ITEM: TIMESTEP
20000000
ITEM: NUMBER OF ATOMS
9000
ITEM: BOX BOUNDS pp pp pp
-75 75
-75 75
-75 75
ITEM: ATOMS id type xs ys zs ix iy iz 
8009 5 0.372537 0.0150481 0.035205 2 0 3 
5244 5 0.809269 0.035819 0.0217164 0 -2 -6 
6042 6 0.00190248 0.0560175 0.0158446 -2 7 4 
5650 6 0.0152606 0.0277075 0.0387113 4 -8 0 
7282 6 0.52106 0.0494668 0.973719 -4 5 2 
5755 5 0.54375 0.0820127 0.979874 -7 2 2 
8786 6 0.0165409 0.0532612 0.0101433 3 -3 2 
7920 6 0.272198 0.0426286 0.0211082 -2 2 2 
7328 5 0.704717 0.0498129 0.986963 1 -3 0 
7387 6 0.14045 0.0938533 0.0554683 -1 -5 -2 
6235 5 0.00321604 0.107481 0.988978 1 5 6 
6811 5 0.259764 0.143182 0.0327641 0 4 1 
6162 5 0.446581 0.131223 0.00636577 4 2 4 
5294 5 0.721435 0.118839 0.00123405 -3 2 7 
8417 6 0.744703 0.078599 0.0273552 6 2 -2 
8318 5 0.0137111 0.173828 0.0205373 0 0 -2 
7469 6 0.0793243 0.109898 0.993259 4 -2 3 
5378 6 0.38589 0.164116 0.0122551 -4 -3 3 
7477 6 0.177653 0.181129 0.0172926 -6 -3 3 
6456 6 0.941424 0.226257 0.0107723 -2 -1 2 
8310 5 0.0338548 0.228981 0.00390665 -1 0 1 
5328 5 0.165458 0.24212 0.0342463 -6 -1 -4 
7230 6 0.54758 0.235291 0.0254527 1 0 -1 
5374 6 0.582381 0.240194 0.990513 0 -3 1 
5803 5 0.915349 0.233129 0.980892 -5 1 3 
6000 6 0.518456 0.284187 0.0211553 1 1 2 
6746 5 0.583113 0.276538 0.0502777 -3 -4 0 
6298 6 0.633083 0.261409 0.0364418 -1 2 3 
7444 6 0.257967 0.33218 0.985411 3 4 -1 
7563 5 0.266678 0.342979 0.996926 0 -2 7 
6449 6 0.152602 0.327496 0.993097 1 2 2 
5212 5 0.737249 0.382243 0.0283043 0 3 -1 
8204 5 0.961718 0.331406 0.00799149 -4 0 -4 
8730 6 0.926773 0.365993 0.992982 -5 3 1 
6685 6 0.093788 0.408262 0.00849718 -1 -3 -3 
6006 6 0.143462 0.386576 0.00213692 -4 4 2 
6738 6 0.230069 0.414115 0.998323 3 -4 0 
6890 6 0.290332 0.383258 0.0046531 -1 0 2 
8244 6 0.54574 0.418932 0.0311827 1 3 2 
8532 5 0.326703 0.435049 0.985645 1 -3 2 
6481 5 0.3383 0.42142 0.00897692 -1 0 3 
7466 6 0.691221 0.443053 0.0396053 1 4 -6 
5550 5 0.900837 0.463451 0.00648432 1 -2 3 
8986 6 0.0120481 0.460623 0.00400554 4 3 2 
7026 6 0.0496965 0.493378 0.976287 -1 -1 5 
8973 5 0.326069 0.447226 0.00820179 -5 0 3 
7655 6 0.853183 0.416354 0.973503 2 0 1 
7442 6 0.817048 0.48233 0.992216 0 4 -1 
7703 5 0.124872 0.527704 0.00400442 -3 -2 -1 
6134 5 0.505232 0.492479 0.0519212 -5 4 -1 
7697 5 0.079873 0.505851 0.992357 1 3 1 
5321 6 0.540344 0.533447 0.964397 -3 3 -1 
7571 6 0.834127 0.556286 0.00201542 0 3 -3 
7048 5 0.870037 0.563526 0.0213147 2 2 -3 
6050 6 0.104978 0.547 0.0519818 -2 -1 2 
8420 6 0.630878 0.564388 0.000806447 -3 -3 4 
5273 6 0.914817 0.540655 0.032749 -1 -1 0 
5830 6 0.0552432 0.587693 0.0423936 1 -2 -1 
8522 5 0.13186 0.560272 0.0509006 -4 1 -1 
7381 5 0.838594 0.602612 0.984166 3 3 -2 
7623 6 0.808253 0.62607 0.99447 1 -5 0 
6096 6 0.682234 0.633111 0.981433 -1 -2 -2 
5716 5 0.771344 0.600517 0.0151016 0 2 6 
7611 5 0.611812 0.654254 0.026027 0 -4 3 
7352 6 0.370847 0.653784 0.0114896 -2 -1 3 
7570 6 0.505287 0.647977 0.0362406 -2 2 -4 
6384 6 0.523651 0.700587 0.0557922 -2 4 0 
5871 5 0.751056 0.699609 0.972786 2 -1 6 
7131 5 0.420536 0.753732 0.988586 3 -2 4 
8036 6 0.55351 0.681738 0.0129635 3 -6 2 
8882 5 0.624699 0.67549 0.0326808 7 -1 8 
5518 6 0.748455 0.732096 0.00850089 -4 1 -2 
7460 5 0.910715 0.700185 0.0143652 -1 1 -2 
8460 5 0.330052 0.781379 0.0454848 -2 -1 3 
6067 6 0.571739 0.806616 0.989809 0 -3 3 
8436 5 0.771522 0.790407 0.988979 -4 -3 -2 
7246 6 0.0788684 0.829323 0.031202 3 2 -5 
7487 5 0.85023 0.818286 0.0347822 0 -6 2 
5172 5 0.12747 0.838937 0.0207891 2 -2 1 
7375 6 0.775789 0.828938 0.0103311 -3 0 -1 
8338 6 0.931738 0.810173 0.970235 1 -3 3 
5634 5 0.28043 0.902466 0.962451 -1 -1 0 
6341 6 0.272223 0.89379 0.0175413 -3 -2 1 
8150 5 0.706854 0.895722 0.00696001 -4 -3 2 
8677 6 0.885228 0.908031 0.00285614 2 0 -2 
7041 6 0.949771 0.931013 0.976085 6 0 2 
8118 6 0.350459 0.971284 0.0516499 3 0 3 
6922 6 0.933294 0.893513 0.991849 -3 -3 1 
7244 5 0.391665 0.940655 0.993626 0 -3 2 
7647 6 0.529853 0.948597 0.957275 3 5 1 
6570 5 0.708807 0.939041 0.991952 -2 -3 -2 
8987 5 0.0841318 0.9757 0.0221404 -6 1 -2 
7378 6 0.316321 0.99317 0.0410479 -2 -2 -1 
7522 6 0.52208 0.982367 0.0323096 -2 -5 -4 
5977 6 0.0304907 0.0353151 0.058075 -1 -4 0 
6307 5 0.433175 0.0679827 0.0605815 0 -6 -1 
7270 5 0.483984 0.0289772 0.0356943 -4 1 -2 
7836 5 0.959602 0.0822435 0.0318976 -3 3 -1 
6924 6 0.182766 0.0190987 0.0374125 1 2 3 
7561 6 0.383898 0.0879279 0.0238341 3 -3 -4 
5085 6 0.854786 0.00691383 0.0370091 -1 -2 -3 
7931 5 0.187435 0.0731133 0.0588418 3 2 3 
5748 5 0.217472 0.0529888 0.998728 -5 4 1 
8742 5 0.385855 0.0436376 0.0729769 0 -3 -2 
7217 5 0.573401 0.0667873 0.0132342 -5 1 -1 
6614 6 0.320506 0.146227 0.0155995 4 -3 3 
8911 6 0.688597 0.176768 0.0324111 0 0 -2 
7130 6 0.797543 0.171127 0.0512384 -4 0 -5 
5807 5 0.180006 0.195596 0.0237375 0 4 -2 
6897 6 0.809903 0.160564 0.0559489 4 -5 1 
8541 5 0.871001 0.221343 0.0364249 6 5 0 
6243 6 0.139052 0.250189 0.0577727 3 -2 1 
5954 5 0.19465 0.223417 0.00383768 2 -2 1 
8068 5 0.625165 0.251886 0.043206 -1 -2 6 
6591 6 0.184741 0.25095 0.0380414 0 -2 0 
5601 5 0.826076 0.25362 0.0420885 0 0 2 
8359 6 0.584069 0.301723 0.0696265 2 4 7 
6203 6 0.938104 0.271549 0.0741872 3 1 -1 
8240 6 0.260216 0.248065 0.00590826 -6 0 1 
5386 5 0.837504 0.310001 0.00575885 -5 -1 4 
8434 5 0.0154175 0.310966 0.975135 2 1 -2 
7535 6 0.502051 0.328055 0.0165845 1 0 2 
6805 5 0.789919 0.358121 0.0142796 -1 -4 4 
8039 5 0.273866 0.34961 0.0324764 5 3 1 
5712 6 0.631867 0.412398 0.0370993 -5 -4 0 
5739 5 0.835221 0.392094 0.00852863 -7 0 4 
5853 6 0.863997 0.383819 0.0370011 -1 5 2 
6585 6 0.58627 0.406315 0.997635 1 -1 2 
8694 6 0.918493 0.422872 0.0539927 4 -2 4 
7409 5 0.619976 0.487867 0.0555911 2 -1 0 
5238 6 0.382206 0.489696 0.000907015 4 -5 -3 
8371 6 0.521562 0.500701 0.0484491 3 -1 3 
8737 5 0.602026 0.488888 0.0619299 -2 -4 1 
8096 5 0.320498 0.53492 0.0230471 5 1 -1 
5614 6 0.542766 0.511071 0.0552454 6 0 -1 
7788 5 0.244542 0.549177 0.0258006 0 4 -2 
7508 5 0.84275 0.50722 0.021802 -2 1 5 
8060 5 0.206921 0.552408 0.0335939 2 4 2 
8612 6 0.378815 0.563895 0.995798 0 0 1 
6438 6 0.540029 0.606509 0.0475737 3 0 -2 
8069 6 0.114431 0.619454 0.043128 3 5 1 
6040 5 0.0783207 0.603894 0.0845706 2 -7 4 
8468 6 0.946362 0.60784 0.0198163 5 0 -3 
7947 6 0.371683 0.615587 0.990606 0 -4 0 
7421 6 0.598243 0.593607 0.0488082 3 2 0 
5333 6 0.808169 0.579596 0.00514971 7 0 -1 
6820 6 0.780814 0.652923 0.0346273 -6 -3 -1 
7103 5 0.831767 0.660312 0.0345049 0 0 -1 
8921 5 0.848409 0.646527 0.00630053 -4 3 1 
6776 6 0.832108 0.638781 0.0232182 -1 0 1 
5725 5 0.964246 0.718402 0.0387414 -3 -4 2 
6684 6 0.0557803 0.709557 0.0152281 -1 -4 0 
7674 6 0.422201 0.695314 0.0310666 -4 1 0 
6560 5 0.65285 0.667772 0.979587 3 -5 -3 
6313 6 0.536992 0.675056 0.0501228 6 -3 0 
6594 5 0.0988073 0.742459 0.0102633 -1 1 1 
8877 5 0.194307 0.766425 0.0285756 -5 4 -3 
5151 6 0.392455 0.753062 0.0465001 -2 1 0 
6180 6 0.537078 0.775151 0.0432952 -4 1 2 
5571 6 0.379478 0.762856 0.0243899 -1 -3 1 
8868 5 0.505293 0.811364 0.022749 2 -2 -2 
5501 5 0.56198 0.800053 0.0585662 1 1 -3 
7990 6 0.583076 0.787114 0.0227308 -2 -2 4 
6628 5 0.467025 0.811882 0.036404 -3 2 1 
8191 6 0.760136 0.833528 0.00900965 -1 0 2 
5700 5 0.1208 0.82907 0.038978 3 -2 -3 
8007 5 0.490164 0.845195 0.00847497 -3 1 0 
6508 6 0.626469 0.87571 0.045563 -3 1 2 
8846 6 0.928857 0.904919 0.0149767 -1 2 4 
5959 6 0.651847 0.88681 0.0509837 0 -2 -4 
7620 6 0.693962 0.900012 0.0268702 5 -2 -2 
8788 5 0.70771 0.943327 0.036886 0 -7 4 
8982 6 0.940012 0.948127 0.0435161 -2 0 0 
8350 5 0.622083 0.95543 0.0558854 2 1 0 
8075 6 0.492143 0.954515 0.0397023 -1 -4 4 
5041 6 0.855258 0.981958 0.0561774 -5 4 2 
5247 6 0.879 0.00632208 0.00387365 2 2 2 
7802 6 0.93859 0.957197 0.0220094 1 0 1 
7786 5 0.337635 0.0231975 0.0338447 -1 3 5 
5185 6 0.435436 0.0499228 0.0598727 -1 5 1 
8299 6 0.411607 0.0305752 0.0603338 -1 1 5 
7755 6 0.920326 0.0400561 0.0578214 -2 -3 -3 
5489 5 0.983483 0.0178541 0.0279404 -1 -1 4 
6311 6 0.056431 0.0603198 0.0585543 -1 0 3 
5258 6 0.461575 0.025406 0.0668947 1 3 0 
5204 6 0.629534 0.99566 0.0536581 -5 1 -1 
5092 6 0.441397 0.0726543 0.0630923 -3 -4 1 
7644 6 0.576671 0.0581258 0.0371952 -3 -5 0 
7770 5 0.561412 0.124511 0.0519903 4 1 4 
5344 6 0.774669 0.119082 0.0696793 -1 -1 -3 
5435 6 0.352598 0.152137 0.0360046 0 3 -2 
8829 5 0.0592319 0.15945 0.0186485 -3 4 -8 
8465 6 0.221573 0.170282 0.0409545 -5 3 3 
8565 6 0.5849 0.171449 0.0334441 -4 3 4 
5171 6 0.813852 0.1295 0.0396639 -2 2 4 
5163 6 0.940041 0.160321 0.042904 -1 3 -7 
5926 6 0.186848 0.187881 0.0520684 -2 7 -1 
8101 5 0.405842 0.178377 0.0399374 -2 -1 1 
8771 5 0.480614 0.173546 0.112425 2 0 3 
7361 6 0.0933657 0.149957 0.0833962 -3 1 -3 
7635 6 0.3015 0.201636 0.0560581 0 4 -2 
6251 6 0.533011 0.167451 0.064279 -3 -1 5 
8466 5 0.794636 0.147706 0.0677054 2 1 -1 
7046 5 0.833081 0.208214 0.0718694 -1 4 5 
5156 6 0.232287 0.246057 0.0136576 -7 -3 1 
7934 5 0.50366 0.250762 0.0523433 -1 0 -1 
8087 5 0.888274 0.262714 0.050139 1 0 2 
7220 6 0.0966968 0.264912 0.033736 5 -2 3 
7175 6 0.303834 0.281596 0.0425152 -2 2 4 
6981 5 0.196235 0.29056 0.0464118 3 -2 0 
6777 5 0.342617 0.297249 0.0525432 1 4 3 
7201 5 0.395181 0.316392 0.0118004 10 -3 3 
8090 5 0.790539 0.256291 0.0832201 -6 -3 0 
7528 6 0.672291 0.343564 0.0577376 0 2 -2 
5814 6 0.919093 0.306522 0.0760677 3 1 0 
7516 5 0.996638 0.27347 0.0431547 -1 -6 2 
6335 6 0.616715 0.307358 0.0968791 2 1 -1 
5174 5 0.740023 0.359847 0.0624503 0 1 3 
8577 5 0.405465 0.334325 0.0698982 -1 2 -1 
8421 6 0.946926 0.318072 0.0503899 4 4 -5 
8180 5 0.119162 0.370154 0.0943363 3 1 -2 
5495 6 0.311202 0.344731 0.0791928 -1 0 2 
6409 6 0.0445922 0.40774 0.0881267 3 3 -1 
8164 6 0.122665 0.418403 0.0221314 -2 -3 -3 
6900 5 0.450793 0.440901 0.0912971 -3 5 3 
5331 6 0.0299191 0.439595 0.0268282 -3 -1 4 
5607 5 0.666495 0.424227 0.0859579 -4 2 5 
5306 5 0.762573 0.463821 0.0322518 4 0 3 
6649 6 0.117793 0.487767 0.0732427 -3 4 6 
7211 6 0.275689 0.485697 0.0780479 2 2 -3 
7315 5 0.726911 0.487286 0.0517516 -2 -2 0 
8091 5 0.704318 0.464866 0.0833436 -3 1 0 
7365 6 0.756806 0.515786 0.00859772 -2 0 0 
7094 6 0.170889 0.533559 0.108131 2 -2 5 
5216 5 0.314146 0.497929 0.0806007 4 -4 0 
7714 5 0.395037 0.51501 0.0492374 0 1 5 
5941 5 0.407197 0.525566 0.0479524 4 -1 3 
6419 6 0.779926 0.523898 0.0530757 -2 -4 2 
7560 6 0.364003 0.524363 0.0491459 -3 2 1 
5117 6 0.453372 0.536058 0.0685881 2 9 1 
8719 6 0.608354 0.557619 0.0886488 4 -5 5 
6920 5 0.879994 0.563244 0.032396 -2 0 0 
6917 6 0.432617 0.590749 0.0347721 -3 0 1 
5593 6 0.997846 0.565339 0.0358157 -2 0 3 
7045 5 0.222784 0.630532 0.0334706 1 1 3 
6355 5 0.240118 0.602443 0.0561761 2 1 -1 
5209 6 0.618275 0.628746 0.0601522 3 -3 2 
5173 6 0.927085 0.59611 0.0677405 3 -4 1 
6553 6 0.260351 0.622972 0.0333345 0 1 1 
7398 6 0.42695 0.571665 0.0843354 -2 4 2 
7322 6 0.372029 0.645313 0.0419602 -2 3 3 
8640 5 0.471218 0.618499 0.0390137 2 -1 0 
5674 5 0.941927 0.620754 0.0593095 1 0 -2 
6791 5 0.298953 0.673012 0.0568732 -1 2 4 
5584 5 0.861284 0.658648 0.0535528 -2 -1 -1 
7475 5 0.435754 0.670652 0.0418867 1 0 -2 
7609 6 0.660429 0.701847 0.0579906 -1 5 4 
6737 5 0.812916 0.711418 0.0615808 -3 1 -3 
7024 6 0.632284 0.744171 0.0441925 -4 -2 2 
7519 6 0.257154 0.756154 0.0511879 3 -2 -6 
7773 5 0.599088 0.765514 0.0501442 1 -7 -1 
8972 6 0.283357 0.754512 0.0404252 0 -6 -2 
6224 6 0.390019 0.792672 0.0412301 -2 -2 2 
8934 6 0.457751 0.765078 0.0527419 -2 2 -3 
7815 6 0.632839 0.804937 0.0651739 -6 -3 0 
6294 6 0.0130216 0.783953 0.0768108 -3 -3 4 
5198 6 0.294472 0.813399 0.0453732 -3 -1 0 
5391 5 0.549551 0.823373 0.0562416 5 0 -4 
5367 5 0.59691 0.83542 0.059385 7 1 3 
5707 5 0.537396 0.821917 0.0442018 0 0 5 
8165 6 0.449432 0.85074 0.038875 2 -5 3 
8753 5 0.755747 0.867281 0.0914624 -3 0 4 
8918 6 0.778827 0.835996 0.0812364 -1 3 -3 
6986 5 0.403303 0.854199 0.0185258 1 -2 1 
6315 5 0.515078 0.893201 0.0373619 -1 4 3 
6452 5 0.507193 0.896055 0.0392413 3 1 -1 
8738 6 0.337756 0.939866 0.0558095 7 -2 -1 
8684 5 0.243597 0.990415 0.0482685 2 -2 1 
8794 5 0.814136 0.994628 0.0340281 3 -2 -2 
6867 5 0.802781 1.00015 0.0549147 2 -2 2 
7805 6 0.897842 0.966291 0.0646928 -3 -1 2 
5948 6 0.515331 0.0278206 0.0687971 6 -4 0 
7517 5 0.577726 0.0465035 0.0607102 1 0 -7 
7255 5 0.104477 0.0926549 0.0577877 0 -2 0 
5414 6 0.339181 0.112234 0.0780827 1 -1 8 
6785 5 0.53586 0.0608201 0.0594716 1 2 -4 
5281 5 0.860375 0.117317 0.10795 -2 0 7 
7128 5 0.577404 0.189822 0.0579245 7 -3 1 
8504 5 0.398231 0.216025 0.0741654 -2 -1 4 
7156 6 0.662434 0.193983 0.0701701 -4 1 3 
6269 5 0.872114 0.258177 0.0523129 -7 -3 -1 
6643 5 0.887784 0.310991 0.0726994 3 0 1 
6955 5 0.988094 0.296857 0.113308 0 -1 -1 
5669 6 0.354142 0.253285 0.0521469 2 1 2 
5758 6 0.788073 0.317483 0.0740435 -2 2 -4 
8394 5 0.0057207 0.298192 0.11141 6 -6 2 
8517 5 0.265387 0.354438 0.0938637 2 -3 -4 
8049 6 0.4791 0.335787 0.0702888 2 -6 1 
5442 5 0.760856 0.363806 0.0617778 0 -2 6 
6727 6 0.818048 0.282948 0.0930948 -1 -1 4 
7864 5 0.895541 0.35645 0.0951967 1 -1 1 
7766 5 0.968958 0.328381 0.0581738 1 -3 -1 
5096 5 0.666576 0.34885 0.0782824 5 4 1 
8106 6 0.838871 0.34665 0.104482 1 2 -3 
8637 6 0.303284 0.357318 0.071717 -2 3 -3 
5960 5 0.721542 0.356476 0.0768397 1 3 -1 
5821 5 0.396608 0.384923 0.107591 -1 -4 1 
7779 5 0.158284 0.461932 0.107462 -1 1 2 
8053 5 0.337233 0.43846 0.10086 -6 1 -1 
5332 6 0.991697 0.447565 0.0994046 1 3 4 
5717 6 0.5929 0.530807 0.0605709 -4 -3 3 
7547 5 0.796474 0.528102 0.130581 1 3 3 
8221 6 0.0558589 0.501009 0.0864675 3 -2 9 
8946 5 0.214452 0.500132 0.0709356 2 -4 -5 
8202 6 0.430525 0.497117 0.0248778 0 -2 2 
7594 5 0.435225 0.502719 0.126709 2 4 -1 
5909 6 0.585726 0.500245 0.0663448 0 3 0 
6360 6 0.234568 0.548044 0.0255842 1 -3 0 
7716 5 0.282107 0.553059 0.0701762 -1 0 -1 
7481 5 0.306486 0.548098 0.0979381 -3 -5 0 
5588 6 0.441212 0.549965 0.0821194 3 1 2 
7470 5 0.395508 0.556715 0.123921 0 2 -4 
6630 5 0.404363 0.564365 0.0859744 -4 0 -2 
7448 5 0.48216 0.595433 0.0669107 -2 1 -2 
6957 6 0.27907 0.567718 0.0788374 4 1 0 
8790 5 0.360751 0.6008 0.071174 -2 -1 1 
5068 6 0.580172 0.603986 0.1022 2 2 2 
5596 6 0.975744 0.604545 0.0534938 3 5 0 
7341 6 0.250402 0.664961 0.0606752 4 -2 0 
6972 5 0.447965 0.610898 0.0544892 -2 1 1 
5066 5 0.384669 0.653632 0.0802086 -4 -3 0 
5360 6 0.442949 0.659416 0.0675135 -1 1 -2 
7192 5 0.134457 0.69017 0.0882236 0 1 -7 
8686 6 0.108193 0.678863 0.0789388 -1 0 3 
8716 5 0.46072 0.67892 0.0553918 1 -1 -3 
6962 5 0.486394 0.685081 0.0766248 2 2 3 
8162 6 0.572184 0.739273 0.0229601 -2 1 -3 
7858 6 0.376201 0.794994 0.0351005 6 3 2 
5226 6 0.12925 0.760482 0.0917584 3 3 0 
5881 5 0.508849 0.77296 0.091521 -1 0 3 
7473 5 0.838635 0.740046 0.0803571 1 6 2 
8570 5 0.522521 0.775537 0.0578716 2 -2 0 
6503 6 0.187534 0.803043 0.0539851 1 0 4 
7987 5 0.749165 0.811943 0.0784578 -2 3 0 
7765 6 0.940717 0.791803 0.0473453 -4 1 0 
6082 6 0.957019 0.838992 0.107807 -6 0 0 
8633 5 0.209466 0.842396 0.0601715 -1 -4 0 
7705 5 0.565807 0.839035 0.0579898 2 -3 3 
8624 6 0.73229 0.873991 0.110371 -2 -1 2 
6391 5 0.75646 0.857576 0.0761782 0 2 2 
6948 5 0.797382 0.877625 0.0913614 0 3 -1 
8233 5 0.78742 0.873798 0.0578296 -5 -2 4 
6969 6 0.0216254 0.903353 0.0846461 -5 0 2 
8132 6 0.230869 0.856304 0.0821158 -4 -2 1 
7306 5 0.115083 0.837322 0.0347706 3 -2 -1 
8623 5 0.440002 0.913319 0.0574381 -2 -2 1 
6857 6 0.404106 0.883419 0.0819264 0 2 0 
8462 5 0.580916 0.856799 0.0774328 -3 -1 0 
6835 6 0.311989 0.933892 0.0569902 2 -3 5 
6907 6 0.359949 0.877938 0.0560253 -2 1 1 
7585 6 0.397234 0.915316 0.0875871 2 3 2 
7125 6 0.661543 0.923632 0.072507 -5 -5 4 
5443 6 0.00519317 0.93332 0.0526156 0 -2 2 
7695 6 0.737499 0.933789 0.0897528 0 4 0 
6062 5 0.687971 0.972037 0.0477059 0 -4 -1 
6314 5 0.760146 0.927123 0.102886 1 -3 -3 
5905 5 0.830718 0.985815 0.0771177 4 -4 0 
5020 5 0.722881 0.968501 0.117172 3 -4 -2 
7326 5 0.972658 0.987057 0.0752869 -3 -2 -2 
7165 5 0.499878 0.0139289 0.119038 -1 -1 -1 
7137 5 0.597612 0.0451938 0.121589 1 2 0 
8681 6 0.957817 0.0265435 0.111942 0 -5 -2 
8703 5 0.35232 0.00817046 0.118988 -6 -1 2 
6204 5 0.949198 0.0389868 0.116001 -4 -5 -2 
6210 6 0.0935311 0.0370863 0.10059 -5 2 -3 
8733 6 0.106867 0.0469845 0.12169 -1 1 6 
5460 5 0.190835 0.0616703 0.0873917 0 -1 -1 
7830 6 0.452797 0.0484655 0.145984 -11 3 -1 
6980 5 0.868555 0.0327776 0.0963373 0 3 0 
8801 6 0.441261 0.0747733 0.10853 -4 1 -1 
8187 5 0.613925 0.0433572 0.0713005 0 -1 0 
8621 5 0.329601 0.0734315 0.0974184 0 4 0 
8182 6 0.489902 0.0699386 0.0998576 6 -5 1 
8725 5 0.240505 0.157298 0.0805893 0 -4 1 
8880 5 0.244653 0.128523 0.109276 -4 1 -4 
5009 6 0.92491 0.0990775 0.105346 -5 0 -1 
8653 6 0.846696 0.167237 0.0992273 -1 -2 -2 
7852 5 0.820446 0.1433 0.102766 1 -1 0 
6534 6 0.295907 0.210509 0.0757675 -7 -4 -4 
8974 5 0.602483 0.224162 0.120108 0 -5 0 
5927 6 0.633326 0.198359 0.143189 -6 -1 1 
7287 5 0.887986 0.220261 0.118733 -1 1 -2 
8627 6 0.237214 0.266784 0.127427 1 2 -5 
5137 5 0.940368 0.301453 0.0869065 -3 0 -1 
7064 6 0.583379 0.28665 0.0995584 -2 3 3 
6966 5 0.642186 0.316238 0.107411 3 1 5 
7261 5 0.943487 0.314493 0.121922 1 -1 0 
5059 6 0.916779 0.335788 0.109826 -3 -2 -2 
5001 6 0.507263 0.351854 0.156083 -5 1 5 
5737 6 0.897916 0.343288 0.110073 0 4 3 
7271 6 0.156902 0.409377 0.129184 1 3 -2 
5886 5 0.268202 0.375055 0.0798468 4 2 2 
7218 5 0.846585 0.41976 0.0928947 -3 0 1 
5995 5 0.0173467 0.404953 0.065266 1 0 0 
5144 5 0.284136 0.389564 0.101898 3 1 3 
7882 6 0.140098 0.399728 0.10154 3 4 -3 
7510 6 0.289941 0.463316 0.133552 1 1 0 
7373 5 0.491227 0.471408 0.100714 -5 2 -2 
8081 5 0.53707 0.479996 0.0905125 4 -2 4 
7832 6 0.676562 0.450471 0.0982263 -3 -1 -3 
7553 5 0.757995 0.45885 0.106709 1 4 1 
8208 5 0.0278697 0.50144 0.0868825 -3 -2 -1 
6578 6 0.44306 0.478184 0.094319 1 2 -4 
7539 5 0.904155 0.518267 0.132351 5 1 4 
5123 6 0.261247 0.525107 0.102473 3 -1 1 
5295 5 0.596049 0.560856 0.0986714 2 -3 -2 
6901 6 0.961527 0.534331 0.0918354 2 2 0 
8399 5 0.0247667 0.507902 0.10127 3 1 6 
5745 6 0.84319 0.552775 0.111357 5 0 2 
6579 5 0.513136 0.570107 0.101633 1 0 -1 
8807 5 0.135133 0.618857 0.0961449 2 1 0 
8498 6 0.771139 0.609232 0.106747 0 -2 -1 
7124 5 0.307444 0.609512 0.101826 -3 5 4 
6343 6 0.597601 0.680647 0.130917 2 -1 -4 
7402 5 0.937947 0.638164 0.109936 -1 3 5 
6527 5 0.408383 0.680192 0.0911661 2 -1 -1 
5654 6 0.46687 0.683371 0.0812085 4 -1 1 
6963 5 0.912587 0.654509 0.0857119 -1 2 0 
7733 6 0.917448 0.683257 0.0857181 -3 6 -3 
7262 5 0.997231 0.68116 0.129455 -2 3 -2 
8655 5 0.433716 0.731962 0.107828 0 0 -1 
6636 6 0.581369 0.725274 0.10806 -1 3 0 
7578 5 0.611786 0.754806 0.103564 -1 2 0 
7729 5 0.257165 0.793062 0.0788972 -6 -4 4 
6626 6 0.256113 0.799608 0.151158 -2 -3 -4 
5270 6 0.855972 0.786846 0.0894519 -7 0 -1 
8860 5 0.041527 0.800723 0.0761999 -3 1 0 
7012 6 0.491893 0.8435 0.103564 2 1 0 
8061 5 0.585188 0.799799 0.0823122 -1 -1 -3 
7351 6 0.630885 0.830776 0.103023 0 0 9 
7033 6 0.00766466 0.838535 0.0961476 3 0 -3 
6689 6 0.270647 0.884447 0.121674 4 4 -1 
7650 5 0.405075 0.823077 0.122149 2 4 5 
5284 5 0.280078 0.916008 0.129908 0 4 -2 
5711 6 0.862543 0.877731 0.127308 4 1 -1 
5049 5 0.190842 0.929367 0.10355 -4 2 1 
6401 6 0.425993 0.952179 0.0918623 2 -2 4 
5108 6 0.0212126 0.931128 0.0966837 2 2 6 
7426 5 0.383959 0.891553 0.119094 -2 4 -4 
7759 6 0.593586 0.927997 0.0999748 5 1 -4 
8502 5 0.203212 0.952923 0.134561 -2 3 -1 
6989 5 0.553756 0.930948 0.0993704 -4 1 -1 
7672 5 0.806921 0.943574 0.115748 0 -3 -3 
7579 6 0.0877008 0.982798 0.0901844 -4 -4 1 
6448 6 0.0651076 0.0164703 0.0734605 0 -2 -1 
8600 6 0.921095 0.0252224 0.0745467 -1 4 -1 
6992 6 0.469969 0.0404702 0.116742 -3 1 -3 
7893 5 0.99294 0.0172427 0.107201 2 -2 -7 
7404 6 0.0240057 0.0537709 0.116021 -2 3 -1 
6645 5 0.413123 0.0367517 0.13718 -4 1 -1 
5504 6 0.370796 0.0621824 0.129121 1 0 0 
5223 6 0.753205 0.0478457 0.136505 -1 -4 3 
5665 5 0.869515 0.0558816 0.121218 -1 0 3 
5635 6 0.142964 0.111045 0.137956 3 2 -2 
8750 6 0.314009 0.0533187 0.116327 -1 -4 2 
8407 5 0.410717 0.0764364 0.134803 -1 -1 3 
6884 5 0.754948 0.0611296 0.112796 5 5 -3 
7196 6 0.362787 0.0977135 0.145093 -3 -3 -3 
6829 5 0.147486 0.10432 0.132424 4 -4 -2 
6250 5 0.612461 0.131664 0.135248 -4 -3 0 
6555 6 0.734969 0.107218 0.136961 0 6 -2 
5102 6 0.8841 0.109055 0.119201 0 -2 5 
8302 5 0.973127 0.126065 0.141493 -2 1 0 
8781 6 0.0338938 0.149359 0.136666 -1 -2 -1 
7737 5 0.273259 0.156127 0.12208 -1 1 -2 
7995 5 0.337701 0.201904 0.150034 -3 0 -5 
8129 6 0.84684 0.18352 0.160936 0 0 1 
7521 5 0.0114081 0.193028 0.112008 3 -5 3 
7928 5 0.433567 0.214255 0.120216 -5 0 1 
7496 5 0.836567 0.219715 0.154295 -3 -1 3 
5678 5 0.924328 0.223018 0.0773036 5 -3 2 
7489 6 0.866842 0.256136 0.106544 -2 -3 -2 
8888 5 0.552605 0.255275 0.138677 3 3 -1 
8002 5 0.324483 0.303093 0.153001 -7 -1 3 
7518 5 0.47281 0.324256 0.115385 -1 1 3 
8864 6 0.495861 0.26647 0.0974654 -4 1 0 
5823 6 0.784085 0.284849 0.117856 1 1 -4 
5647 6 0.791597 0.278754 0.140756 0 3 -1 
6389 5 0.44958 0.339493 0.139833 1 -2 3 
8850 5 0.50488 0.347981 0.141716 1 -1 2 
5672 5 0.577258 0.364317 0.153726 1 -1 1 
7772 5 0.713046 0.346856 0.151509 1 5 -4 
5740 5 0.236686 0.324082 0.0844554 2 -2 -1 
8147 6 0.385187 0.359133 0.123009 0 5 2 
6229 6 0.862771 0.359999 0.116612 -7 -5 -3 
5237 5 0.0815102 0.380956 0.137865 1 -2 -2 
6462 6 0.893996 0.424881 0.151621 -2 -1 2 
8853 5 0.404913 0.433482 0.163087 -5 5 -3 
5855 6 0.434174 0.389304 0.148329 3 -4 5 
6587 6 0.533738 0.39581 0.154383 3 1 3 
8482 6 0.140681 0.394479 0.125343 4 -2 3 
5872 6 0.882385 0.449989 0.142612 -3 2 0 
7899 6 0.587122 0.427071 0.15948 0 -3 4 
7391 5 0.976697 0.517497 0.123608 1 -4 2 
5535 5 0.218186 0.506326 0.117019 1 0 0 
7625 6 0.288989 0.525217 0.11594 -2 -4 -1 
6329 6 0.397773 0.528731 0.136556 -8 -2 1 
5283 6 0.443934 0.55854 0.129427 3 -3 -2 
6661 5 0.765701 0.539892 0.136213 3 0 1 
7272 6 0.918499 0.522152 0.120683 2 -1 2 
7538 5 0.0550797 0.563007 0.140875 3 -2 -1 
6091 5 0.59695 0.555573 0.145712 0 1 -2 
8905 6 0.56644 0.627376 0.131738 2 -8 0 
8591 5 0.00959027 0.608983 0.123386 -1 2 4 
5837 6 0.304603 0.615802 0.133034 -4 3 0 
8458 6 0.318985 0.628275 0.129887 -3 -4 4 
8995 6 0.436568 0.649483 0.116074 1 -3 -2 
8047 6 0.91905 0.609923 0.150826 1 -2 1 
8751 6 0.0417502 0.62311 0.118257 3 5 3 
8619 6 0.106792 0.66247 0.159948 0 2 5 
6213 6 0.435125 0.671939 0.0981574 -2 1 -2 
8193 6 0.693111 0.691526 0.150144 -2 2 -3 
7844 6 0.290367 0.66852 0.144404 1 -4 -2 
5831 5 0.514858 0.679842 0.141086 0 0 3 
5661 5 0.842294 0.691281 0.114896 3 -2 -1 
7676 6 0.988679 0.736684 0.138547 -1 -3 -3 
6169 6 0.391986 0.746745 0.141096 -6 -5 -2 
6635 5 0.312277 0.786684 0.100846 1 3 7 
6405 6 0.75445 0.737002 0.0903719 2 0 0 
8862 5 0.120207 0.794102 0.112182 6 1 -2 
8430 6 0.392281 0.786187 0.114408 5 3 -5 
7042 6 0.997701 0.822274 0.155648 1 8 3 
7696 5 0.466817 0.80782 0.111561 -1 -1 4 
7216 6 0.960086 0.825101 0.108994 0 -3 1 
5411 5 0.950153 0.884597 0.111165 1 -1 5 
8988 5 0.341633 0.857784 0.1242 4 -1 6 
6605 5 0.461644 0.848315 0.134044 0 0 2 
5304 6 0.543623 0.828166 0.156635 2 -1 1 
5232 5 0.645151 0.876325 0.118844 -3 -2 5 
5767 6 0.875523 0.808927 0.108638 1 -1 1 
7345 5 0.979248 0.87705 0.0987761 -3 -3 -3 
8190 5 0.930185 0.895218 0.107253 -1 -1 1 
6164 6 0.729533 0.941616 0.128534 3 2 -1 
5896 6 0.143616 0.947432 0.12849 1 1 -1 
7837 5 0.871499 0.90806 0.137963 5 1 1 
5900 6 0.0762104 0.957995 0.1166 3 -4 0 
6721 5 0.0923228 0.960056 0.139548 7 0 -2 
8902 6 0.432745 0.953244 0.116816 2 -5 3 
7835 5 0.395086 0.0133166 0.129295 4 -2 -1 
8020 5 0.618044 0.988697 0.144835 3 -3 5 
7534 5 0.168557 0.0161781 0.11931 0 0 3 
5958 6 0.509441 0.00859514 0.123147 -5 0 2 
8473 5 0.948183 0.0413529 0.156074 -1 6 4 
8285 6 0.0324565 0.0545363 0.159106 1 -3 4 
8547 5 0.189947 0.0672241 0.123361 0 -5 2 
5944 6 0.703998 0.0665874 0.166327 -1 6 -1 
7273 6 0.724772 0.0636598 0.124531 -3 -1 4 
7745 6 0.440216 0.0878344 0.185343 -2 4 3 
6488 5 0.914269 0.0704445 0.117278 0 -1 -1 
6473 6 0.868925 0.0496226 0.155438 -1 -7 5 
6135 6 0.112331 0.162232 0.129191 -5 -2 1 
8405 6 0.148358 0.158023 0.115153 6 2 2 
6144 6 0.572831 0.169331 0.183836 1 -4 3 
5537 6 0.683665 0.200546 0.162828 1 1 4 
6970 6 0.476648 0.229821 0.161012 -1 0 -3 
5529 5 0.513567 0.197237 0.111722 1 0 2 
8280 6 0.604309 0.216691 0.148836 7 4 -5 
5099 5 0.178338 0.264851 0.194953 4 -4 7 
5710 6 0.623926 0.243552 0.122018 1 -4 4 
8275 5 0.889504 0.290654 0.161829 0 -3 2 
5897 6 0.0511008 0.300498 0.155407 -3 -2 8 
7989 6 0.286208 0.315907 0.147151 0 0 0 
6937 6 0.314487 0.351812 0.150506 1 0 2 
6707 6 0.45835 0.347263 0.159692 -1 0 0 
8810 6 0.768139 0.391516 0.137032 -1 1 1 
7319 5 0.972097 0.36478 0.155743 -2 4 0 
7108 6 0.00610397 0.376673 0.141737 4 1 -3 
7153 5 0.0292765 0.398695 0.103579 2 -2 3 
6116 5 0.647336 0.373751 0.185528 4 0 1 
5210 6 0.952095 0.441939 0.129239 0 2 -1 
7082 5 0.281209 0.467478 0.11903 1 -1 0 
8732 5 0.896711 0.459433 0.182935 5 -5 -1 
6317 6 0.0365214 0.473451 0.142198 1 2 -3 
8199 6 0.83151 0.515147 0.172179 -2 5 -1 
7416 5 0.855494 0.506287 0.118691 0 -1 6 
6672 5 0.337949 0.516888 0.129177 1 0 -2 
5100 5 0.376117 0.517038 0.105888 -4 -2 -4 
5918 6 0.332375 0.527843 0.0976133 -1 3 -1 
7408 5 0.814609 0.564933 0.131226 -3 1 -1 
8043 6 0.0573658 0.575826 0.194371 1 -5 0 
8015 5 0.187795 0.575325 0.149714 -2 2 -1 
6781 6 0.114339 0.600978 0.141637 1 -2 -4 
5608 5 0.436294 0.663813 0.162963 0 -1 -4 
8489 5 0.51012 0.614273 0.167762 4 2 -2 
7323 6 0.585591 0.641457 0.1105 2 -7 4 
7884 5 0.964655 0.639235 0.138592 2 -2 -3 
8444 6 0.831623 0.641355 0.138868 -1 -1 0 
8867 5 0.427838 0.695905 0.143223 0 1 3 
8262 6 0.462015 0.635907 0.168563 5 -3 -1 
7440 5 0.972711 0.685103 0.146487 0 -1 4 
8116 6 0.0835275 0.702128 0.147933 2 -6 -4 
5538 5 0.200805 0.69122 0.12659 5 1 0 
5766 5 0.365559 0.709031 0.146005 -1 -1 1 
7288 6 0.587631 0.782162 0.141894 -5 1 1 
5922 6 0.969371 0.707339 0.124408 1 1 -1 
5698 6 0.982552 0.746592 0.161292 -1 1 2 
5473 5 0.0585064 0.754607 0.143322 4 -5 2 
5544 5 0.473855 0.797283 0.159407 -1 0 -3 
7823 5 0.430778 0.871453 0.190642 2 -3 1 
7687 6 0.984685 0.851383 0.150994 -5 -6 2 
8933 5 0.986659 0.889313 0.124974 -2 -8 -4 
5271 6 0.443651 0.913066 0.174116 1 -6 -4 
6408 6 0.56436 0.881143 0.174167 -1 1 2 
8662 5 0.643061 0.854585 0.127096 -5 -2 5 
5889 6 0.570721 0.916835 0.160233 -1 1 -1 
6181 6 0.643548 0.930066 0.100795 3 -4 -3 
6120 6 0.944929 0.936868 0.147818 -1 -2 -1 
6035 5 0.177896 0.956921 0.192179 2 -2 -3 
5211 6 0.523812 0.933462 0.139089 4 -2 -1 
6059 5 0.634763 0.960016 0.172359 -3 4 0 
6185 5 0.67223 0.91318 0.114016 1 -5 -3 
6589 5 0.751616 0.965548 0.161826 0 -2 -2 
8351 6 0.344997 0.988015 0.149 -1 -2 3 
6792 5 0.0874686 0.956081 0.213673 2 -2 -7 
7474 5 0.675139 0.975847 0.190904 1 1 -1 
6549 5 0.269383 0.0202102 0.188836 -1 5 3 
5805 5 0.0246295 0.0376247 0.190592 0 1 3 
5675 5 0.391028 0.0219828 0.121267 2 4 1 
6403 6 0.610442 0.063031 0.176728 4 4 -6 
6692 6 0.669091 0.00242353 0.179744 -8 1 -1 
8312 5 0.0496993 0.0796159 0.17798 -3 -1 -1 
8661 6 0.374156 0.0516471 0.184843 0 4 -2 
6843 6 0.786032 0.102838 0.137412 3 -2 -1 
5468 6 0.801512 0.0632034 0.178614 1 1 2 
6338 6 0.14416 0.125826 0.156271 2 2 6 
6132 6 0.184091 0.110832 0.218985 0 0 5 
6468 5 0.652974 0.0730845 0.168603 3 -6 1 
5450 6 0.775596 0.124944 0.153923 -5 3 -1 
6422 5 0.94537 0.111938 0.176954 -4 0 -7 
8330 5 0.515353 0.168538 0.204599 2 2 -3 
6025 5 0.593789 0.186428 0.167547 -5 3 -3 
5404 5 0.913966 0.146162 0.148143 0 -4 2 
7783 6 0.465014 0.164652 0.137825 1 1 -4 
5288 6 0.62282 0.205823 0.192835 2 2 1 
6801 6 0.560892 0.237453 0.147222 3 2 4 
7545 6 0.0898469 0.227282 0.172922 2 8 2 
6679 6 0.718382 0.242331 0.176503 1 -1 5 
7368 6 0.126081 0.274565 0.189381 4 -1 -3 
7297 6 0.254555 0.2612 0.190009 -1 0 4 
8497 5 0.372458 0.256347 0.143963 -2 -2 2 
8131 6 0.396557 0.291875 0.194612 1 0 1 
5540 6 0.499765 0.310705 0.158442 8 4 -1 
5671 6 0.802707 0.262817 0.164571 -1 0 -2 
5248 6 0.493688 0.329775 0.188791 3 -4 0 
8955 6 0.947776 0.305388 0.199197 1 -2 4 
7327 5 0.30889 0.355133 0.169854 8 -1 0 
7303 6 0.986289 0.385237 0.141529 0 -3 3 
7790 6 0.464918 0.385821 0.159376 -5 4 3 
5423 5 0.190266 0.378 0.174487 3 2 0 
5037 6 0.22145 0.400296 0.168 -3 -1 1 
5454 5 0.940136 0.390165 0.200068 -3 -1 0 
7362 6 0.973067 0.438573 0.169308 3 0 -2 
7088 6 0.125124 0.46254 0.176216 -6 -1 -1 
5317 6 0.158973 0.446005 0.206195 -2 1 -6 
5736 5 0.279383 0.432705 0.145455 -2 0 -3 
8959 6 0.482719 0.459624 0.193051 1 2 4 
6445 5 0.95288 0.44015 0.154058 0 -1 -2 
7797 6 0.302403 0.492651 0.188247 -1 1 2 
8874 6 0.484597 0.460965 0.1634 4 7 -1 
6435 6 0.32839 0.514972 0.156842 1 2 -1 
8364 6 0.368079 0.524853 0.157269 3 -3 0 
6668 5 0.683496 0.542106 0.169317 -1 -2 -4 
8841 6 0.744835 0.521132 0.174263 -5 2 0 
5724 5 0.970039 0.515759 0.185195 -2 2 3 
5940 6 0.577715 0.521684 0.151345 5 4 1 
5203 6 0.620716 0.51378 0.151008 -1 -3 8 
7276 6 0.295928 0.552113 0.169983 3 0 -3 
7891 5 0.14954 0.63351 0.167835 -1 0 -4 
8450 5 0.367292 0.597282 0.141759 -1 1 4 
8847 6 0.587046 0.614398 0.151166 3 2 3 
7120 5 0.900535 0.64955 0.193198 2 -2 0 
8589 6 0.994443 0.578175 0.139321 0 3 2 
8942 5 0.0322269 0.623441 0.156605 0 -4 2 
8274 6 0.147602 0.619782 0.179065 4 1 0 
8925 6 0.30564 0.668524 0.180775 3 -2 -1 
5368 6 0.475746 0.662032 0.186086 -2 -2 2 
7901 5 0.680989 0.687199 0.152151 1 -7 -6 
8103 5 0.502525 0.681894 0.183536 0 6 -6 
5494 6 0.816772 0.671571 0.168828 0 -1 -2 
7630 5 0.781408 0.737248 0.153764 4 -1 -3 
6090 6 0.955617 0.751373 0.177362 -1 -1 4 
8170 5 0.10084 0.732917 0.170943 -1 -2 4 
8293 6 0.723904 0.719378 0.165926 1 -1 2 
5839 5 0.802137 0.736615 0.121621 1 -2 -1 
6211 6 0.652091 0.780202 0.201551 -4 0 0 
6855 6 0.12862 0.805034 0.150619 -2 0 1 
6114 5 0.17051 0.797594 0.184325 -4 0 0 
8978 5 0.709671 0.841327 0.126432 -3 2 -4 
8307 6 0.765107 0.87668 0.11558 -1 0 4 