ITEM: TIMESTEP
50000000
ITEM: NUMBER OF ATOMS
9000
ITEM: BOX BOUNDS pp pp pp
-75 75
-75 75
-75 75
ITEM: ATOMS id type xs ys zs ix iy iz 
7108 6 0.0221202 0.0297917 0.986163 2 4 2 
5212 6 0.1126 0.971102 0.99717 -1 2 -1 
5405 5 0.24886 0.0597674 0.991022 -5 -1 -10 
5919 6 0.288195 0.0388667 0.982804 -6 2 -11 
5895 5 0.481248 0.0538541 0.0122233 5 3 0 
7774 6 0.203663 0.052067 0.0152956 -4 -2 3 
6413 5 0.859901 0.0537043 0.996534 3 -1 -2 
7187 5 0.104391 0.0665326 0.982153 -1 -8 -1 
8933 5 0.508455 0.0544408 0.971215 -5 3 8 
6185 5 0.0490314 0.126567 0.00258182 -3 1 2 
5951 5 0.212057 0.129594 0.0296066 1 -1 5 
7585 5 0.673086 0.165557 -0.000876261 3 3 -3 
6040 6 0.7114 0.1732 0.0328958 -3 1 -4 
7492 5 0.82628 0.170101 0.00332108 5 -3 4 
7797 6 0.831611 0.140274 0.996655 -8 6 -1 
7506 5 0.459769 0.209033 0.0277961 1 7 4 
7005 6 0.719893 0.206567 0.993046 -6 10 1 
5387 6 0.180744 0.243989 0.0594385 -1 10 -4 
7335 6 0.589966 0.285642 0.0124776 -2 -7 -6 
6856 6 0.584172 0.273654 0.026672 -3 -2 4 
7173 6 0.0310364 0.28011 0.00411935 -7 -1 -2 
5884 6 0.75794 0.348463 0.0141767 1 5 4 
8367 5 0.228771 0.335181 0.0145573 2 1 -5 
5798 5 0.719421 0.340374 0.00662054 -9 8 2 
6512 5 0.479567 0.398667 -0.000594813 2 -3 4 
8508 6 0.727522 0.368744 0.977915 5 0 3 
6579 6 0.900084 0.389927 0.0109974 3 -1 -3 
5458 5 0.978899 0.444003 0.00625156 -6 -12 -2 
6187 6 0.0650272 0.445222 0.0260184 2 2 -2 
6037 5 0.271756 0.420169 0.0237227 6 -3 -3 
8545 6 0.0131801 0.434986 0.0177932 2 -8 0 
5635 6 0.535293 0.464888 0.00519357 7 5 5 
6584 6 0.656161 0.50477 0.0173178 1 2 -1 
8683 6 0.828723 0.49713 0.00936516 0 10 -3 
7974 6 0.984338 0.515535 0.0237686 2 4 2 
5163 6 0.163593 0.505649 0.00920121 3 10 2 
8923 6 0.540595 0.516903 0.012361 3 2 3 
8769 5 0.977962 0.497454 0.0260973 -4 -5 2 
6056 5 0.145425 0.543912 0.994945 -2 2 -6 
6249 5 0.3667 0.523088 0.0173844 3 -8 2 
5760 5 0.675968 0.512252 0.00323925 8 -4 4 
8126 6 0.971737 0.56358 -0.00298827 0 -8 -2 
7383 5 0.396494 0.569346 0.0196239 -5 -2 -5 
7481 5 0.801682 0.59188 0.986129 -4 -2 0 
5602 6 0.763656 0.591796 0.0029749 -6 -2 -1 
7518 5 0.55289 0.599724 0.0344292 3 6 -5 
8276 5 0.0916826 0.598191 0.0156454 2 -3 -3 
7019 5 0.0978236 0.648247 0.0393189 5 1 -12 
6599 5 0.761235 0.713222 0.976979 -8 -6 5 
5257 6 0.190787 0.704079 0.00810802 -6 -3 -2 
7970 5 0.841494 0.702344 0.991636 3 -7 5 
7794 5 0.157458 0.716031 0.951795 8 1 -1 
8939 5 0.820638 0.753091 0.0233599 -5 1 1 
5236 6 0.93553 0.748561 0.996877 -5 10 2 
8418 6 0.413818 0.770228 0.0106602 4 -11 -3 
5119 5 0.0746444 0.81561 0.0199612 5 -5 -6 
8520 5 0.497584 0.78782 0.0060369 4 -12 -1 
8977 6 0.315026 0.825419 0.999897 3 7 4 
8787 5 0.510017 0.816761 0.0138754 6 4 -6 
6273 6 0.607728 0.823146 0.997678 -9 3 0 
6266 6 0.132038 0.898258 0.0110075 8 8 2 
5279 6 0.156962 0.942849 0.0404615 -4 -3 2 
7900 6 0.077723 0.918227 0.983625 -4 -2 -4 
5452 6 0.374663 0.940567 0.011331 -3 0 -2 
8067 6 0.755853 0.987205 0.0272128 2 -9 -6 
7478 5 0.369485 0.969112 0.0135131 -4 -1 0 
5247 5 0.63354 0.978461 0.00649586 -2 1 -6 
5929 6 0.196631 0.00145524 0.0398847 -1 12 -7 
6580 6 0.0295316 0.0203945 0.0448029 -1 -8 -9 
5326 5 0.507952 -0.00218927 0.0633604 -1 4 10 
5990 6 0.0209801 0.0444804 0.0357634 3 2 3 
7403 6 0.525581 0.0623157 0.0554483 4 -5 1 
7237 6 0.571966 0.0531967 0.0685123 -3 6 1 
5243 5 0.814887 0.0638078 0.0169208 -4 2 -3 
5314 5 0.843279 0.0811708 0.0487112 1 0 1 
5927 6 0.160189 0.0938053 0.0443752 -5 1 7 
8051 5 0.214206 0.122796 0.0242538 0 -10 4 
6050 5 0.330443 0.0785701 0.00549473 4 -6 -6 
6084 5 0.874097 0.0833706 0.0281101 0 9 2 
8022 5 0.157406 0.13153 0.0157591 -6 1 3 
5450 5 0.434991 0.130898 0.0521873 5 5 -6 
7337 5 0.863881 0.103602 0.0343127 0 -6 -7 
7751 6 0.946727 0.117207 0.0403369 -4 7 -1 
6650 5 0.275478 0.169737 0.00176839 -13 -2 5 
8758 6 0.855171 0.168614 0.037686 4 0 -2 
5630 5 0.0508895 0.204191 0.0243062 5 3 2 
8635 5 0.734185 0.167696 0.0272503 3 2 6 
5281 6 0.996611 0.27587 0.0769712 1 0 3 
7067 6 0.128488 0.28432 0.00872486 -3 -5 -2 
6767 6 0.347982 0.275315 0.0903451 -9 -5 5 
7399 5 0.357454 0.283127 0.0167759 -2 8 -1 
7853 6 0.865882 0.253401 0.0306743 -3 -1 -1 
8566 6 0.240625 0.345279 0.00821836 6 4 0 
8976 5 0.341539 0.333272 0.0399354 5 1 9 
8697 5 0.655817 0.368107 0.0782519 -8 1 5 
8417 5 0.666477 0.35195 0.0308268 -3 -2 8 
6204 5 0.250593 0.381825 0.0549606 -4 4 4 
7990 6 0.364271 0.391009 0.0419637 5 -4 4 
6819 6 0.916044 0.368291 0.0228228 -2 -2 0 
5653 6 0.946196 0.367742 0.0358573 -1 0 -1 
7973 5 0.322008 0.429649 0.0303123 -4 -4 -3 
6615 6 0.742211 0.442114 0.0152648 -1 -2 6 
8656 6 0.86397 0.446496 0.0176105 -5 7 3 
7884 6 0.171649 0.467375 0.0429514 5 3 4 
5835 6 0.428508 0.430005 0.0753245 -1 2 3 
6961 5 0.669757 0.49418 0.0497373 -1 1 0 
6176 6 0.82188 0.503339 0.0264876 -3 1 1 
6844 5 0.86966 0.485281 0.021535 3 0 4 
5434 6 0.403524 0.537692 0.0546017 -2 4 1 
7696 6 0.889109 0.597784 0.0263033 -1 -10 7 
8438 5 0.102754 0.582393 0.0234894 3 0 -3 
5155 5 0.665922 0.556215 0.00253594 -6 0 5 
5443 5 0.988582 0.594473 0.0564353 8 -1 -2 
8086 6 0.970939 0.587039 0.0343304 4 3 -3 
8319 6 0.0414121 0.561118 0.983169 3 11 -1 
7641 6 0.609937 0.596494 0.0606805 -4 2 1 
6501 5 0.898525 0.605891 1.00036 6 3 3 
7952 6 0.405916 0.641377 0.0652205 6 2 4 
6612 6 0.127777 0.685258 0.0128272 3 3 4 
7307 6 0.537443 0.665379 0.0361046 5 -2 3 
6860 6 0.768807 0.710874 0.0236232 1 -1 2 
6951 5 0.386155 0.751464 0.0245655 -2 2 -4 
5078 5 0.957562 0.750246 0.038908 -1 5 7 
6457 6 0.29658 0.760768 0.993829 -4 -1 1 
7114 6 0.283315 0.767161 0.994076 -2 -9 10 
6039 5 0.182995 0.850194 0.0357459 1 2 0 
8359 5 0.299274 0.829862 0.0541676 -1 -1 4 
7220 6 0.346899 0.889334 0.0222334 -4 -1 -7 
5804 6 0.0010792 0.886538 0.0172226 0 1 7 
7425 5 0.125485 0.880224 0.0726012 1 1 -4 
7875 6 0.798942 0.921286 0.0290962 2 3 -3 
7524 6 0.0170132 0.893966 0.00302049 1 -4 3 
5193 6 0.369835 0.958072 0.0469961 -1 2 -3 
6442 5 0.792981 0.950251 0.986149 0 0 0 
7934 5 0.318769 0.964955 0.0515875 5 2 0 
5352 5 0.796939 0.899884 0.0315674 1 6 0 
7517 5 0.0635056 0.986557 0.0264085 -4 0 1 
8088 6 0.182249 0.961561 0.0272623 0 4 -2 
5646 6 0.350944 0.944357 0.0441341 -2 -8 3 
5412 5 0.389745 0.989341 0.0516293 -2 9 -6 
6942 5 0.0924929 0.988992 0.027201 4 1 1 
6255 6 0.475875 0.977818 0.0461571 2 -13 6 
8475 6 0.913247 0.0524517 0.00151326 -4 -12 5 
5981 6 0.972133 0.00499141 0.978849 0 7 -7 
7375 5 0.0787264 0.999621 0.044472 3 4 3 
7317 6 0.889483 0.057126 0.0851274 1 5 2 
8358 5 0.228789 0.0119309 0.0301381 7 2 -1 
8898 6 0.539146 0.0661631 0.0333299 -2 -1 -5 
7041 6 0.538233 0.0419651 0.0794045 3 9 1 
6420 5 0.704318 0.107409 0.0863772 8 0 5 
6480 5 0.718756 0.0368145 0.0522574 -8 -6 4 
7668 5 0.821857 0.0565174 0.0733298 -3 3 3 
5545 5 0.0806817 0.10339 0.057326 0 -4 7 
8090 5 0.884049 0.0848225 0.0686928 0 3 2 
7571 6 0.432906 0.096198 0.0374634 -6 -1 -4 
8982 6 0.464867 0.100491 0.0810191 1 5 -2 
5325 5 0.807451 0.155466 0.0243706 6 -7 5 
6759 5 0.453813 0.191637 0.0268289 6 0 5 
6445 6 0.121636 0.173324 0.0886665 1 -5 2 
6041 6 0.41341 0.202968 0.0275446 -1 -7 8 
7684 6 0.624891 0.214519 0.0356206 -5 5 2 
5644 6 0.446103 0.215368 0.0459482 -3 10 8 
8120 6 0.0778149 0.253534 0.0773682 5 5 5 
7693 6 0.723721 0.25586 0.0804954 -5 -4 -1 
6893 6 0.420526 0.281978 0.0108364 5 0 3 
8421 5 0.509137 0.268484 0.0372101 9 1 5 
7617 6 0.570071 0.357819 0.0129466 0 6 -2 
8831 5 0.167229 0.345297 0.0229741 -7 0 2 
8017 6 0.401891 0.348262 0.0479391 2 7 1 
6571 5 0.529473 0.359028 0.0324206 -4 3 -1 
5525 6 0.0440086 0.409519 0.0742016 1 3 4 
8598 6 0.251718 0.386898 0.0424027 3 3 5 
6490 6 0.219192 0.40829 0.0410141 -1 4 0 
6152 5 0.478137 0.40337 0.0410035 -4 -7 -1 
8835 6 0.301462 0.470319 0.053778 1 -11 -1 
8909 5 0.312616 0.424843 0.0388593 -2 0 -5 
5136 5 0.532534 0.479345 0.0558467 2 4 -3 
6915 6 0.680946 0.413166 0.0362201 -2 -8 4 
8217 6 0.821744 0.448474 0.0683594 -4 5 5 
7042 5 0.823496 0.436846 0.0422647 4 1 9 
8973 5 0.128751 0.478329 0.0577344 0 0 4 
8436 6 0.240908 0.503119 0.0337938 3 -4 -1 
5546 5 0.345149 0.474946 0.0572903 4 -7 2 
6794 6 0.690379 0.498277 0.0798878 6 -5 9 
8734 6 0.740495 0.45683 0.0290467 -1 0 -2 
7269 6 0.443994 0.54493 0.0721517 -3 -2 0 
8070 6 0.5465 0.464558 0.0395735 -2 -4 -5 
5633 6 0.851925 0.534808 0.0366546 -2 3 5 
7581 6 0.00319359 0.521357 0.102261 -1 4 -1 
6891 5 0.138543 0.578114 0.0517992 0 0 5 
7138 5 0.414668 0.585326 0.0160298 -4 -1 1 
8428 5 0.0104305 0.542005 0.0838237 6 -2 12 
5410 5 0.324007 0.529757 0.0426395 8 0 -5 
5224 5 0.795823 0.581387 0.0777223 2 -9 -5 
7378 5 0.129732 0.585705 0.0630571 3 4 3 
8756 6 0.657152 0.58464 0.0643334 3 -4 -4 
7778 6 0.963186 0.547803 0.0875475 1 0 8 
5049 5 0.962814 0.579157 0.0492782 -1 -1 -4 
7859 5 0.879259 0.622828 0.0696234 -6 4 6 
7435 6 0.108751 0.637354 0.0600102 -9 -3 7 
7814 6 0.383107 0.637632 0.0861317 2 -6 5 
8510 6 0.558883 0.657755 0.0685333 -6 -1 -3 
7632 6 0.690847 0.665793 0.0511406 -5 -6 5 
6653 5 0.055522 0.724189 0.0130498 6 2 -2 
5340 5 0.930164 0.702967 0.0258677 -8 -3 -4 
6729 6 0.36612 0.758371 0.0626604 3 -1 -7 
8406 5 0.406462 0.724157 0.00162175 -5 1 5 
8664 5 0.420568 0.754146 0.0807862 1 -8 -4 
8493 6 0.85249 0.763868 0.0724067 -16 -2 6 
6841 6 0.256886 0.750329 0.0519745 -3 3 0 
5028 5 0.0513364 0.763935 0.0892892 -5 -1 -8 
7728 5 0.189819 0.798951 0.0850014 -8 -2 3 
6096 6 0.514352 0.775664 0.063518 0 -2 2 
6357 6 0.888083 0.776103 0.0454365 3 2 0 
6388 5 0.206223 0.887578 0.058042 2 -6 1 
5081 6 0.0561317 0.87441 0.0505105 3 2 6 
6214 5 0.566372 0.880998 0.105559 -1 -6 -1 
5986 5 0.693992 0.895783 0.0720442 -3 2 8 
7937 6 0.733854 0.877943 0.0683154 -4 1 5 
7871 6 0.499619 0.882779 0.0547121 -2 -3 -7 
5074 6 0.559768 0.870643 0.043202 1 7 -7 
8330 6 0.866745 0.916389 0.0546436 3 -3 1 
8274 6 0.936044 0.889587 0.0450683 1 -2 4 
8218 6 0.362475 0.976534 0.0173627 -1 -3 7 
7229 5 0.313663 0.979279 0.0609367 2 -6 2 
6446 6 0.605498 0.982535 0.069125 5 0 3 
7038 6 0.600218 0.957127 0.0652455 2 -10 -2 
5150 5 0.970132 0.937919 0.0617684 -8 -2 5 
5096 6 0.0318864 0.937768 0.0534612 1 0 3 
5701 5 0.905655 0.97208 0.0347842 2 -1 9 
8229 6 0.218414 0.968872 0.0435026 -4 1 -7 
6850 5 0.608747 0.975739 0.0610158 7 9 5 
6245 6 0.495957 0.98622 0.0487211 10 2 -4 
7345 6 0.0744452 0.0348856 0.0977956 0 1 2 
8458 6 0.800965 0.0219032 0.0626454 -5 1 -4 
7125 6 0.713669 0.0565396 0.0968263 -6 -1 -1 
8735 5 0.994656 0.0481584 0.109848 -4 3 1 
6479 5 0.072076 0.0601039 0.0840356 0 -7 -2 
6569 5 0.622145 0.104432 0.0780106 -2 -1 8 
5200 5 0.810925 0.121867 0.0714287 -4 3 5 
6105 5 0.717599 0.0840819 0.0828487 5 2 5 
5577 5 0.0794929 0.143593 0.0891838 0 4 7 
8585 6 0.987364 0.169936 0.0633076 -1 3 9 
8922 5 0.691258 0.154908 0.0915107 -7 -3 6 
5859 6 0.883511 0.161178 0.0764186 -1 2 -4 
5712 5 0.273646 0.113648 0.0680062 -1 -7 -1 
8984 6 0.278731 0.146354 0.0628775 -2 -2 -2 
5610 5 0.0743986 0.20861 0.102896 1 -3 1 
5421 6 0.624726 0.218931 0.0946829 -7 2 7 
5869 6 0.580596 0.301806 0.0554771 -3 5 -4 
8080 6 0.399355 0.283741 0.0579189 -18 -5 0 
5745 6 0.636187 0.30556 0.0735708 10 -6 4 
7410 6 0.677382 0.297007 0.0638109 6 -6 10 
7102 5 0.887435 0.34337 0.0901231 -2 -1 11 
5515 5 0.128155 0.348481 0.0749561 0 3 -10 
7608 5 0.899145 0.336992 0.0942281 1 7 3 
5372 6 0.486263 0.39356 0.032214 -1 -5 2 
8963 6 0.0628241 0.46664 0.0671755 7 -2 0 
8208 6 0.34818 0.444135 0.128814 6 -4 2 
6628 5 0.660163 0.439212 0.0764099 1 0 -4 
8185 6 0.930223 0.455538 0.0544947 3 6 10 
7343 6 0.391457 0.493726 0.0894295 5 -7 0 
7724 6 0.872387 0.435254 0.0638171 -4 -1 2 
5871 5 0.543763 0.472265 0.0935667 8 4 3 
6189 5 0.156384 0.488813 0.0706221 4 4 4 
8838 6 0.318315 0.489283 0.0699852 -1 2 9 
6201 6 0.636917 0.523411 0.01373 -3 -3 1 
6777 5 0.0533999 0.589629 0.065024 2 3 2 
5226 6 0.511869 0.557091 0.0732572 -2 2 3 
8618 5 0.293762 0.579489 0.0612614 -6 1 0 
5060 6 0.902642 0.561888 0.0581626 -6 -7 12 
5493 6 0.133409 0.597239 0.079206 3 -10 -3 
7539 6 0.221279 0.616086 0.101749 -4 -7 0 
5857 6 0.471791 0.62073 0.0760138 0 -6 -2 
5034 6 0.64222 0.629557 0.115373 1 3 1 
8941 5 0.043942 0.646357 0.0537436 -5 8 -1 
5948 6 0.209992 0.611252 0.0987457 -4 4 -1 
7487 6 0.517941 0.590817 0.0875364 -5 4 1 
7136 5 0.855909 0.654553 0.0652899 3 -2 -2 
5632 6 0.303166 0.700926 0.0922896 -2 0 0 
5715 5 0.493856 0.654185 0.0635317 10 -3 3 
7933 5 0.654401 0.709453 0.0977057 1 -1 2 
5160 5 0.846551 0.745759 0.0928808 -1 -6 4 
7681 5 0.585677 0.725789 0.0758207 -7 -1 6 
8364 6 0.830781 0.811386 0.0744276 5 -9 -1 
7474 6 0.938304 0.784311 0.0873637 2 -2 4 
5566 6 0.0259002 0.858478 0.0887042 -2 -1 0 
6688 6 0.291487 0.766384 0.111246 -4 0 2 
5671 5 0.851288 0.81526 0.0533406 1 2 -7 
8279 5 0.160572 0.861729 0.0787334 10 5 -13 
6980 6 0.752377 0.86219 0.0984742 4 -2 -8 
7950 5 0.926858 0.840998 0.106857 3 -3 4 
7835 5 0.976523 0.844488 0.13541 0 -6 12 
7142 6 0.21214 0.918896 0.0687202 0 -1 -2 
7404 5 0.470936 0.901218 0.0938922 0 1 -4 
5849 5 0.838789 0.970469 0.106846 0 -5 6 
8228 6 0.173049 0.929734 0.0652537 2 1 0 
6685 6 0.485168 0.938067 0.0712015 6 2 1 
6430 6 0.591227 0.949471 0.0836026 4 8 1 
7148 6 0.0302123 0.989734 0.0554887 -3 -1 0 
5574 5 0.251628 0.996592 0.0659664 2 -1 -3 
6063 5 0.270453 0.940097 0.103998 -3 -2 4 
7809 5 0.530967 0.0209688 0.0979691 4 -2 2 
7959 5 0.604997 0.96551 0.0885052 1 -3 -3 
8869 6 0.239456 0.975698 0.0639739 1 -5 -7 
5318 6 0.146416 0.986908 0.11653 -2 1 0 
6738 5 0.811235 0.0293076 0.137112 -2 -5 4 
7171 6 0.550337 0.0405126 0.0799017 2 0 0 
7252 6 0.0511232 0.0609703 0.0518589 3 1 3 
6684 6 0.174355 0.103764 0.0563617 6 3 -3 
5694 5 0.0895546 0.10365 0.129232 -5 -6 -1 
8398 6 0.187336 0.107081 0.07669 0 6 -3 
8301 5 0.503635 0.108451 0.135751 -4 5 -9 
6760 6 0.975045 0.106684 0.142779 3 3 1 
8147 6 0.460881 0.122188 0.0904186 5 1 -5 
6161 5 0.469631 0.155786 0.12669 0 -2 2 
7082 5 0.766024 0.174372 0.0901295 -2 12 0 
8646 5 0.924186 0.198919 0.101595 4 9 -1 
7382 6 0.545497 0.199055 0.116086 3 9 -4 
8965 6 0.813339 0.208527 0.0893521 -1 10 4 
6793 6 0.874547 0.181853 0.0927633 4 0 -5 
6507 6 0.276532 0.186318 0.0961834 -2 -2 2 
5643 5 0.411114 0.194504 0.0943622 3 0 -2 
6956 6 0.932275 0.189702 0.125775 -6 8 4 
5021 5 0.740001 0.247326 0.102588 5 5 0 
5472 5 0.880366 0.230971 0.0505791 -4 0 1 
5816 5 0.00894647 0.21231 0.0841979 2 0 3 
8561 6 0.408216 0.252025 0.0772491 7 7 4 
7849 5 0.708609 0.291086 0.083633 1 -9 -9 
7421 6 0.888467 0.295088 0.135131 6 -3 -4 
8608 6 0.356833 0.357774 0.141618 5 6 6 
7654 5 0.883708 0.337986 0.133546 6 -3 -6 
5932 6 0.922468 0.305517 0.0833402 -4 8 2 
6471 6 0.997812 0.331717 0.110121 -5 -5 2 
5536 6 0.629556 0.425607 0.0959507 -6 -1 0 
7775 5 0.789472 0.38008 0.0943422 -5 0 4 
8959 5 0.121344 0.415984 0.116624 0 -1 1 
7511 5 0.409009 0.371914 0.0708782 -11 6 -4 
8397 5 0.404863 0.411906 0.0698167 -6 -4 3 
6260 6 0.493346 0.420633 0.114975 0 1 5 
6190 5 0.619114 0.456177 0.107502 -6 0 6 
6174 5 0.762017 0.407034 0.0878197 -4 -2 1 
8107 6 0.820401 0.427692 0.0827556 0 -2 2 
6907 5 0.927022 0.407886 0.0965306 -3 -4 1 
5902 6 0.0599094 0.421372 0.100131 2 2 0 
5534 6 0.174454 0.439865 0.122326 -2 2 15 
7241 5 0.641577 0.464283 0.104804 -3 -5 -1 
6396 6 0.99263 0.464633 0.101931 -3 -6 -8 
6561 6 0.040462 0.511288 0.0858487 2 0 5 
8170 6 0.720854 0.513845 0.0566394 -6 -6 -4 
8226 5 0.328911 0.541766 0.141829 0 7 -2 
7123 6 0.0564073 0.558778 0.103826 -3 -1 -6 
8641 5 0.397015 0.52714 0.103817 7 -1 5 
7222 5 0.802338 0.638623 0.116332 -1 3 -9 
6380 5 0.173072 0.643208 0.0952824 0 1 -7 
8992 6 0.870259 0.625633 0.108757 1 -11 -4 
8203 6 0.988435 0.634478 0.0833482 0 3 3 
8138 5 0.634569 0.660014 0.137075 0 3 4 
6781 5 0.420943 0.702021 0.0903562 -5 3 6 
7715 6 0.551598 0.739281 0.11077 -7 -1 3 
8636 5 0.695213 0.675832 0.0531243 1 -4 -4 
6843 5 0.990768 0.660751 0.111005 4 2 -1 
6281 5 0.184133 0.698123 0.100862 -1 4 -5 
8887 6 0.324685 0.724679 0.0819763 -2 2 -2 
8175 6 0.335686 0.717932 0.0715193 7 6 1 
6563 6 0.491795 0.734016 0.0903213 4 -6 4 
5620 5 0.797281 0.712553 0.109841 3 2 -2 
8738 6 0.874432 0.748997 0.103837 -2 -4 -12 
8434 5 0.285818 0.744206 0.103393 -1 -1 6 
7962 6 0.962205 0.745688 0.122175 -6 1 0 
8072 5 0.442664 0.779566 0.100472 4 -6 4 
6721 6 0.640342 0.77252 0.117736 -3 -2 6 
8340 5 0.102524 0.843509 0.113394 1 -3 5 
7930 5 0.33733 0.799102 0.154131 3 6 -2 
8710 6 0.249782 0.788601 0.114712 1 2 4 
8220 6 0.443876 0.878193 0.0989726 -7 -5 -6 
7344 5 0.485788 0.843793 0.123688 -1 -1 2 
8791 5 0.663013 0.854731 0.0704496 0 -8 -1 
5647 5 0.0612086 0.893372 0.108625 4 -4 0 
7820 5 0.502724 0.868297 0.0934485 4 2 9 
5216 5 0.640179 0.926652 0.0988738 5 -12 5 
6155 5 0.0742253 0.902993 0.0876727 -1 -1 0 
5101 5 0.285313 0.910929 0.127759 5 -1 -4 
5196 6 0.64909 0.883626 0.137121 -2 0 -1 
6742 6 0.876596 0.884909 0.142363 -3 1 0 
5466 6 0.907603 0.896486 0.126129 -8 -4 0 
7225 6 0.250283 0.913884 0.150346 4 -5 2 
5778 5 0.547341 0.897479 0.120659 -9 1 6 
6011 5 0.691048 0.921153 0.101985 6 1 4 
6048 5 0.140269 0.953381 0.0972915 0 1 2 
5019 6 0.741898 0.947083 0.0501997 -3 1 -8 
7503 6 0.856211 0.938306 0.0863609 1 1 -2 
5967 5 0.114684 0.980224 0.0665695 0 -1 2 
6950 5 0.4982 0.0102316 0.101141 4 7 -4 
7251 6 0.623231 0.986477 0.130935 5 -1 -3 
5672 5 0.476202 0.0385268 0.0978824 -7 -3 -1 
6948 6 0.611027 0.030437 0.132126 -9 3 12 
8209 6 0.962242 0.0470904 0.120782 -1 2 5 
8883 6 0.705704 0.0675589 0.131357 1 -4 1 
8268 6 0.0279481 0.149902 0.173816 -7 4 -3 
5142 5 0.109364 0.143864 0.11347 -3 -1 -6 
6421 6 0.195798 0.0781867 0.108388 -7 0 -1 
7061 6 0.507941 0.185817 0.115064 1 -2 -5 
8303 5 0.0774859 0.17405 0.144155 1 9 6 
5436 6 0.218584 0.157239 0.105764 -3 -1 -1 
8057 6 0.755077 0.111694 0.145912 2 -5 -12 
6773 6 0.0066993 0.202955 0.153753 3 -2 -5 
6426 6 0.583296 0.184399 0.0911115 -5 8 -1 
7512 5 0.607031 0.21398 0.148777 -3 8 -7 
6926 6 0.331382 0.236812 0.124645 -3 -6 2 
5199 6 0.342443 0.246103 0.109717 -1 4 3 
6952 6 0.856128 0.256209 0.153707 -2 -3 -5 
6923 6 0.222845 0.248318 0.104897 -5 -5 1 
7277 5 0.352363 0.280595 0.0812425 7 -4 1 
7235 5 0.547726 0.265386 0.136304 -2 -3 -3 
5732 6 0.934736 0.297356 0.127616 3 -3 8 
6205 6 0.346884 0.353691 0.131807 4 -5 2 
8286 6 0.57599 0.305514 0.118891 -8 -1 7 
8894 5 0.976319 0.281046 0.10705 -5 4 -1 
8232 5 0.74009 0.349855 0.116588 5 0 1 
8610 5 0.760231 0.323529 0.0761887 1 -7 -3 
6485 5 0.114103 0.3688 0.121047 5 7 -1 
7704 6 0.363785 0.368946 0.0508515 -6 -7 -5 
5168 6 0.714895 0.349636 0.0909816 3 -7 3 
7280 6 0.242328 0.368998 0.124738 3 -5 5 
7872 6 0.342168 0.375287 0.119493 9 0 4 
6812 6 0.357358 0.375094 0.115748 6 -2 6 
5455 5 0.0844382 0.450309 0.0961956 -9 -2 6 
8867 6 0.245889 0.445246 0.166546 4 1 0 
7603 6 0.262516 0.395195 0.116364 9 0 -1 
5461 6 0.0272412 0.426067 0.120266 0 -1 0 
5056 5 0.00590752 0.489066 0.164781 -2 1 3 
5952 5 0.527461 0.512888 0.0983331 -7 -7 3 
7564 5 0.94208 0.471101 0.145841 -4 -2 -4 
7879 5 0.133236 0.504879 0.126336 -4 -1 3 
7232 5 0.376452 0.521702 0.146958 5 -2 3 
7529 5 0.477146 0.494146 0.121589 -9 3 0 
7691 5 0.0113425 0.528504 0.108083 2 6 0 
8195 6 0.493381 0.558661 0.139075 1 -2 2 
7438 5 0.968172 0.60376 0.186542 6 -5 6 
7202 5 0.35025 0.631875 0.0893894 2 -3 -3 
6350 6 0.478659 0.66209 0.143981 -2 1 -3 
7584 6 0.778289 0.650097 0.124799 6 -5 0 
7124 6 0.230709 0.683975 0.150199 -1 -1 3 
7147 5 0.380269 0.685051 0.130713 -4 -6 -4 
8440 6 0.418417 0.682042 0.138061 -1 -1 -4 
7748 5 0.575396 0.665022 0.0709142 0 0 3 
7262 6 0.684233 0.668754 0.0988243 1 -1 -5 
7429 5 0.865272 0.719201 0.143017 -4 1 -1 
6412 6 0.125701 0.753915 0.13678 -3 -3 1 
8323 6 0.579221 0.682854 0.101284 -2 -3 -6 
6845 5 0.162379 0.810419 0.131158 -5 -3 -1 
5047 6 0.397769 0.791177 0.15865 -4 7 -2 
5608 6 0.669473 0.831681 0.104368 -6 0 12 
5522 5 0.418548 0.844938 0.13192 2 4 -10 
5563 5 0.35111 0.890406 0.126082 2 1 9 
5836 6 0.882087 0.955294 0.104868 0 -3 1 
7995 5 0.526549 0.892338 0.107221 4 -2 8 
7342 5 0.519099 0.928876 0.125875 8 -4 0 
6106 6 0.662461 0.934036 0.123005 2 -13 3 
5819 6 0.72553 0.937318 0.14948 1 -6 9 
7921 6 0.407661 0.955656 0.0801949 2 -2 -2 
6102 5 0.658585 0.953547 0.110465 1 -5 1 
6551 5 0.376423 0.96381 0.0859238 -2 8 3 
7706 5 0.579268 0.0186956 0.146944 -3 8 5 
5276 5 0.680013 1.00136 0.13202 -4 2 -7 
5022 5 0.973613 0.977262 0.142516 -12 10 1 
5565 5 0.0551262 0.991486 0.182809 3 2 -2 
7741 6 0.107852 0.0384322 0.178204 -5 8 7 
5046 5 0.413434 0.986177 0.138528 -1 -1 -6 
8732 6 0.576889 0.0319841 0.181192 0 2 0 
8712 5 0.111974 0.00771007 0.172079 -2 -8 -5 
7624 6 0.257761 0.07038 0.146527 1 0 6 
6798 5 0.307059 0.0612511 0.11071 6 2 1 
7661 6 0.695204 0.0733263 0.112387 -1 2 7 
6407 5 0.758119 0.0405728 0.153528 6 4 -3 
7166 6 0.00863845 0.066178 0.150423 -5 2 -10 
8527 6 0.429965 0.0801684 0.151123 -3 -3 3 
5246 6 0.503263 0.0613214 0.127594 1 1 1 
6329 5 0.546675 0.0983999 0.135228 -4 -2 3 
7056 6 0.085154 0.108825 0.147619 9 0 4 
5772 6 0.617111 0.0831533 0.151156 0 -1 4 
6889 6 0.941651 0.110239 0.145501 7 -9 -2 
6108 5 0.59679 0.130718 0.18369 -3 5 -4 
5506 6 0.73383 0.154473 0.142327 -6 -1 1 
8673 6 0.902597 0.144131 0.154778 -1 -1 0 
6409 5 0.15607 0.141042 0.137772 1 -1 2 
6594 5 0.323492 0.147894 0.132548 3 6 2 
7530 6 0.693847 0.161112 0.155189 -3 -3 4 
6707 5 0.977853 0.147727 0.125642 3 2 7 
7134 6 0.896575 0.15397 0.102729 -3 8 -1 
6222 6 0.139062 0.214568 0.127161 -2 -2 -3 
8155 6 0.377327 0.197229 0.179833 -3 -10 1 
8947 5 1.00073 0.233809 0.0916746 -2 0 1 
8913 6 0.132841 0.228467 0.161233 0 4 0 
8396 5 0.644222 0.25546 0.186543 -1 -4 -6 
8609 6 0.637659 0.219215 0.169577 8 8 -3 
6453 6 0.760623 0.207884 0.145964 -5 1 8 
7144 6 0.0913294 0.224545 0.178877 2 -1 -1 
5757 5 0.554117 0.252207 0.112881 -2 5 5 
6142 6 0.627882 0.255009 0.141717 -6 1 10 
6978 5 0.847876 0.297572 0.131712 -2 4 9 
7631 5 0.941663 0.26485 0.127175 0 4 -4 
6608 5 0.514598 0.266529 0.149428 -1 -6 2 
8706 5 0.594739 0.296805 0.13157 12 0 2 
7551 5 0.693714 0.27673 0.139227 -3 6 14 
8784 5 0.677794 0.28533 0.156334 1 1 4 
8556 5 0.505342 0.300283 0.169984 -2 4 1 
5220 6 0.50842 0.301012 0.138116 2 6 3 
8253 5 0.0931228 0.294396 0.142567 -3 4 0 
7502 6 0.238974 0.341088 0.141806 -1 7 -5 
6955 6 0.299396 0.338315 0.171675 5 4 3 
8978 5 0.29984 0.322171 0.130351 -3 4 4 
6662 6 0.755567 0.396136 0.101731 -6 -5 -2 
6473 5 0.69945 0.398804 0.133237 -2 -14 2 
8424 6 0.293921 0.442652 0.165567 -2 -5 -7 
8449 6 0.41735 0.416522 0.128445 5 6 3 
5912 5 0.314853 0.43975 0.106872 -1 -1 0 
6897 6 0.312067 0.450277 0.121381 7 9 -6 
7020 6 0.541125 0.460279 0.154382 -1 -3 -4 
6065 5 0.949793 0.444294 0.14463 -3 6 3 
6623 6 0.278712 0.511543 0.16356 9 -10 5 
5299 5 0.537401 0.4959 0.130684 4 -1 4 
5420 6 0.0714455 0.511548 0.118565 -5 1 6 
8498 5 0.152923 0.465971 0.0807225 -2 2 -1 
7675 6 0.345172 0.561069 0.146182 0 -4 1 
5390 5 0.483934 0.565903 0.118192 9 -2 -2 
8278 5 0.602742 0.531105 0.130456 2 -4 1 
5360 5 0.803389 0.551049 0.164569 3 -6 3 
8071 6 0.815493 0.587849 0.186423 3 4 -3 
7709 6 0.562065 0.575475 0.117372 2 0 -5 
5963 5 0.992343 0.625813 0.157218 -11 3 -9 
8622 6 0.186661 0.665689 0.190224 3 4 5 
7285 6 0.93433 0.642423 0.156193 0 1 1 
6752 6 0.838612 0.632809 0.124329 -1 9 -3 
5012 5 -0.000720751 0.719683 0.159687 9 5 -3 
8578 6 0.876552 0.72281 0.106461 -1 -1 -1 
7656 5 0.957004 0.712556 0.177117 -10 -12 -3 
5585 6 0.857709 0.786764 0.147091 4 4 0 
6110 5 0.938496 0.718956 0.101429 4 -7 2 
8788 5 0.398005 0.703035 0.145675 -8 3 -4 
5771 6 0.601026 0.798535 0.160351 2 -4 2 
7595 6 0.52047 0.78144 0.138832 -3 2 -1 
8925 6 0.953899 0.770692 0.213362 -3 -1 11 
6854 6 0.127376 0.778269 0.17099 0 -4 -7 
5115 6 0.239047 0.805314 0.173612 -1 5 6 
6232 5 0.43583 0.825138 0.0943407 1 -1 6 
8586 6 0.63486 0.847891 0.127523 -2 -1 -2 
8205 5 0.397925 0.89135 0.190489 0 -8 0 
7658 5 0.418583 0.882743 0.118821 3 6 10 
8932 5 0.879123 0.938714 0.159688 -3 2 -6 
6672 6 0.0619931 0.951843 0.16528 3 -4 4 
7052 5 0.699308 0.98047 0.148909 2 1 -3 
6478 6 0.229097 1.00163 0.118498 0 2 0 
5931 6 0.39186 0.977001 0.126932 -1 -1 8 
8034 5 0.585049 0.0179258 0.159047 -6 -7 11 
8840 5 0.667927 0.972475 0.113283 3 -5 1 
5449 5 0.203464 0.0786602 0.191388 5 4 1 
7350 5 0.527697 0.0828424 0.17756 0 8 9 
8371 5 0.097309 0.0917888 0.16207 -8 -4 -8 
6695 5 0.409006 0.117568 0.163204 -2 1 8 
5616 5 0.508151 0.117617 0.188644 8 2 5 
8245 6 0.727058 0.0648606 0.209817 -4 -2 -5 
5080 5 0.35064 0.112535 0.152718 -5 -2 -3 
5500 5 0.543766 0.151381 0.164369 -1 -2 2 
7902 5 0.381393 0.100073 0.165059 3 -1 0 
6574 5 0.435119 0.159941 0.15739 -5 5 6 
7469 6 0.559704 0.154743 0.194761 4 6 -4 
7387 6 0.716816 0.155885 0.209402 4 -5 -5 
7727 5 0.560623 0.187336 0.169131 0 0 -7 
6570 6 0.90557 0.215662 0.1975 -4 4 -2 
8528 6 0.446921 0.181393 0.180195 -2 0 -5 
6213 6 0.119172 0.20172 0.1552 4 4 2 
7961 6 0.402798 0.169461 0.1907 -3 4 1 
6657 5 0.604163 0.207962 0.151713 -3 -5 -2 
7113 5 0.481314 0.215278 0.14887 -3 0 1 
8690 6 0.554955 0.236464 0.163728 -4 0 5 
7258 5 0.78089 0.227028 0.134476 -5 0 2 
5801 6 0.346804 0.248444 0.126885 -4 -7 -5 
8549 5 0.89317 0.262287 0.198552 -3 -6 4 
8548 6 0.134475 0.274357 0.147197 -5 -1 -2 
5213 6 0.63899 0.291211 0.196636 5 -2 -14 
6083 6 0.633206 0.28476 0.165214 -4 3 1 
8324 6 0.902802 0.263094 0.195238 2 -1 -2 
8450 6 0.697444 0.340244 0.152725 4 -6 0 
6235 5 0.436004 0.329045 0.167017 2 4 3 
8478 5 0.546435 0.329545 0.190758 -4 2 3 
7890 5 0.104865 0.371759 0.161266 7 4 4 
5900 5 0.334923 0.388977 0.180243 -5 2 -5 
6044 6 0.707171 0.371695 0.143686 0 3 0 
7677 5 0.828624 0.363658 0.157549 4 -4 2 
6193 6 0.202683 0.43488 0.182354 -9 -1 0 
5076 5 0.611747 0.433536 0.159683 0 -9 6 
8166 6 0.44057 0.442012 0.185893 2 3 1 
7209 6 0.695549 0.483779 0.1665 -6 0 3 
5416 5 0.144782 0.479052 0.165738 6 -11 -6 
8942 5 0.592233 0.447755 0.170208 -5 0 -3 
6248 6 0.280252 0.522239 0.151917 -1 6 1 
8335 5 0.773181 0.513085 0.154987 -3 2 2 
7349 5 0.137482 0.546562 0.187654 -2 -1 0 
8895 6 0.254327 0.537951 0.155134 6 0 8 
6616 5 0.770718 0.53396 0.142963 -1 3 2 
5837 5 0.323811 0.589538 0.173011 -1 2 1 
7242 6 0.7889 0.547259 0.150308 -7 -3 0 
5903 6 0.240563 0.583805 0.184848 3 4 3 
7886 6 0.437865 0.613915 0.206343 -5 -3 1 
7093 5 0.250853 0.625346 0.166079 0 4 5 
5043 6 0.520486 0.618863 0.158682 -1 -3 3 
8875 5 0.399609 0.694505 0.155531 1 -8 -6 
6021 6 0.836765 0.72243 0.166525 6 -6 -2 
7811 6 0.460548 0.721912 0.161406 10 -4 3 
7679 6 0.759263 0.751774 0.157645 0 1 2 
5391 5 0.770779 0.782486 0.165649 -3 -4 -7 
6605 5 0.078507 0.752872 0.181255 -1 -4 0 
8789 6 0.368424 0.78325 0.142693 -4 1 -6 
8905 6 0.32611 0.815923 0.132926 -1 1 -2 
7422 6 0.417856 0.827412 0.163103 2 4 3 
7110 5 0.779878 0.800416 0.194836 2 1 1 
7303 5 0.200247 0.803355 0.16202 -1 -10 -3 
6592 5 0.613052 0.839834 0.193652 0 -4 7 
6138 6 0.801072 0.82044 0.173946 -3 -7 1 
7489 6 0.178944 0.844668 0.178879 -1 -7 0 
8474 5 0.576725 0.846341 0.163712 -7 -2 -4 
6557 6 0.379824 0.87177 0.160613 0 2 -4 
6077 5 0.933038 0.875149 0.167881 -3 -5 -6 
8513 6 0.909409 0.875827 0.164847 -2 -4 8 
5177 6 0.956832 0.886836 0.151905 -3 1 -1 
6810 6 0.565408 0.905055 0.149893 -6 -6 4 
6985 6 0.894687 0.939727 0.17997 1 1 1 
8588 5 0.335958 0.964187 0.160548 5 1 10 
8168 6 0.32064 0.996941 0.166989 -3 -3 1 
7737 5 0.364786 0.998039 0.148592 -8 5 10 
5426 6 0.532629 0.972247 0.188741 -7 -3 -1 
6537 6 0.982574 0.00493642 0.182271 4 -5 0 
6673 6 0.0974425 -0.00461336 0.176795 -7 -5 -3 
7873 6 0.794381 0.0370398 0.20701 -7 5 14 
6116 5 0.649455 0.0963622 0.190053 2 2 7 
8315 6 0.758574 0.045441 0.170928 6 -4 -7 
8927 6 0.186044 0.133272 0.196965 4 -1 1 
7687 6 0.784354 0.122963 0.190418 -12 -3 -13 
6276 6 0.442215 0.138844 0.192692 -2 -2 -2 
6120 6 0.664415 0.114813 0.210384 5 1 1 
8187 5 0.0779178 0.151526 0.206346 2 1 -5 
7215 5 0.236336 0.137951 0.190934 4 5 -1 
7753 6 0.561814 0.185587 0.188655 -3 2 2 
5459 6 0.684726 0.149651 0.152132 1 6 5 
5478 6 0.279828 0.142649 0.199008 1 0 1 
6705 5 0.372959 0.183336 0.192012 3 -8 0 
8059 6 0.63658 0.123426 0.198828 10 -2 8 
7676 5 1.00165 0.209963 0.18724 -3 -7 1 
8219 5 0.560561 0.200065 0.180101 -3 3 -1 
5072 5 0.91547 0.194707 0.217605 1 4 4 
5994 5 0.615176 0.209214 0.169139 4 9 3 
8930 5 0.167994 0.225236 0.164563 7 1 3 
8201 5 0.238435 0.240627 0.180809 -8 -2 -4 
5807 6 0.307311 0.25058 0.18507 -4 -1 3 
6783 6 0.493227 0.232122 0.194189 13 0 -4 
8631 5 0.399599 0.224893 0.208542 -5 -4 -1 
7816 5 0.474392 0.240321 0.183925 1 4 -4 
6795 5 0.836788 0.293614 0.188564 0 0 7 
5832 5 0.218226 0.27658 0.18235 0 -2 7 
6774 6 0.28079 0.284117 0.200495 1 -2 4 
6497 6 0.476946 0.284845 0.201342 4 1 -4 
8517 6 0.676278 0.326818 0.180906 -7 4 3 
8133 6 0.418735 0.342378 0.214294 -4 -1 -2 
8949 5 0.817018 0.365919 0.185945 5 -7 -5 
7296 6 0.912127 0.386839 0.256429 -3 -3 -4 
7866 6 0.748131 0.423668 0.219695 2 3 -7 
8305 6 0.142055 0.468747 0.210943 -8 -2 2 
5073 5 0.583027 0.408868 0.198017 -2 3 0 
7572 5 0.742756 0.415348 0.184881 7 3 -1 
8353 5 0.820555 0.462634 0.202984 -2 -3 1 
7869 6 0.184188 0.49057 0.177389 2 -2 -2 
6730 6 0.256636 0.490119 0.155787 -2 -1 1 
8543 6 0.957217 0.451669 0.200353 5 1 5 
8612 5 0.0411369 0.497885 0.140254 0 8 -7 
5638 6 0.158307 0.516063 0.172409 1 -6 -1 
8839 5 0.232902 0.481064 0.200299 6 6 0 
7829 5 0.578606 0.516399 0.216426 6 -3 3 
7926 6 0.926442 0.506 0.166513 -2 4 -5 
5723 5 0.978073 0.486821 0.206322 2 2 1 
7635 5 0.150076 0.559756 0.204901 7 -5 1 
8699 6 0.434175 0.503571 0.20057 -6 1 6 
6115 6 0.638671 0.553631 0.187022 2 -7 7 
8885 5 0.783809 0.539146 0.205994 5 -4 2 
5158 5 0.826164 0.543356 0.211542 1 4 2 
6818 5 0.128506 0.63115 0.208035 3 5 -9 
6836 5 0.238298 0.660185 0.20925 -7 3 -4 
7188 6 0.402892 0.638248 0.163253 -1 2 5 
5385 5 0.847865 0.641384 0.202241 -1 -3 -1 
6981 6 0.142801 0.675842 0.179207 8 -3 -12 
5429 6 0.663848 0.705429 0.175591 -3 -5 -2 
8669 5 0.7887 0.69444 0.214218 2 3 6 
6761 6 0.279224 0.720822 0.234218 1 -7 6 
5558 5 0.762362 0.706896 0.191442 -2 -2 1 
5430 5 0.997432 0.689824 0.179221 -1 -1 4 