ITEM: TIMESTEP
20000000
ITEM: NUMBER OF ATOMS
9000
ITEM: BOX BOUNDS pp pp pp
-75 75
-75 75
-75 75
ITEM: ATOMS id type xs ys zs ix iy iz 
7299 6 0.428087 0.00569878 0.970679 1 -7 1 
7743 5 0.0615553 0.0528466 0.0193062 3 0 -1 
5815 6 0.607033 0.051474 0.0539854 -2 2 4 
6887 5 0.869735 0.988284 0.04031 2 -2 0 
7794 5 0.882705 0.00450005 0.0439288 -5 -1 -2 
6523 5 0.239476 0.0634557 0.0211225 5 -3 -4 
7614 5 0.404087 0.0435754 0.0157161 -3 1 7 
5871 5 0.460466 0.019593 0.00854295 0 4 -2 
8447 5 0.267421 0.0894643 0.982396 1 -3 0 
5554 5 0.0443192 0.0813589 0.0554373 -5 2 3 
8866 5 0.188612 0.14646 0.9922 0 1 1 
8593 6 0.467124 0.178094 0.0174654 2 -7 2 
5324 5 0.649413 0.0983695 0.994315 3 0 -3 
7267 6 0.2306 0.120163 0.0258349 4 2 -1 
5025 6 0.302797 0.144222 0.00760779 5 -1 1 
8133 6 0.198994 0.1397 0.0255737 0 3 -1 
7586 5 0.318873 0.161891 0.00765114 -2 1 0 
5307 5 0.345059 0.18036 0.0383366 1 -1 -2 
8867 6 0.474545 0.168873 0.983459 -5 0 -3 
8628 6 0.51918 0.150578 0.0447913 -3 -1 0 
8990 5 0.990981 0.20385 0.0266572 1 1 -3 
7869 6 0.13903 0.207292 0.0157829 2 -1 2 
6363 6 0.199675 0.225605 0.0639294 1 3 -2 
6464 5 0.555809 0.185764 0.024342 -2 -2 3 
8698 5 0.049922 0.228366 0.996627 5 -2 2 
5126 5 0.25637 0.194699 0.985719 -4 -4 0 
7260 6 0.506543 0.226739 0.012828 2 -6 4 
6168 5 0.683043 0.205443 0.00368916 -5 3 -5 
5786 6 0.860707 0.196475 0.0331501 2 -5 4 
8957 6 0.571974 0.207997 0.0078669 1 -2 -2 
7894 5 0.525468 0.253513 -2.16354e-05 3 1 -1 
5751 6 0.638774 0.23704 0.993828 -1 3 -1 
7666 6 0.366736 0.25111 0.992653 1 4 0 
7076 6 0.631477 0.309872 0.0468318 0 -1 -2 
8565 6 0.0386208 0.279349 0.983124 1 -1 0 
8594 6 0.303422 0.309018 0.0407426 -1 2 4 
6119 6 0.646666 0.289353 0.0176443 3 1 1 
8040 6 0.82785 0.304744 0.0653339 1 -1 2 
8313 6 0.941886 0.304115 0.943859 -3 -3 -1 
6538 6 0.0440445 0.324935 0.0186504 -1 0 2 
6993 6 0.147009 0.366547 -0.000183963 1 5 0 
8656 6 0.453662 0.319003 0.0263574 -3 0 4 
7867 5 0.224066 0.352454 0.999024 -3 -3 -3 
7173 5 0.0443093 0.391046 0.0270201 2 4 1 
5524 6 0.807368 0.424711 0.0370866 -1 2 3 
5736 6 0.859527 0.412997 0.029513 3 0 2 
6347 6 0.804921 0.374972 0.988601 7 4 -3 
5243 6 0.237782 0.459158 0.99185 -2 1 2 
6895 5 0.0284151 0.471648 0.00527704 0 2 0 
6449 6 0.390238 0.486209 0.0218517 -1 -3 -4 
7816 6 0.526297 0.476615 0.0660082 3 1 0 
5370 5 0.686126 0.451638 0.0192731 -2 -2 -4 
5438 6 0.168996 0.493749 0.0589724 5 -1 4 
7316 5 0.288117 0.506785 0.987594 -3 3 -4 
5686 5 0.58677 0.519909 0.0283154 4 -2 -1 
7275 5 0.16758 0.585617 0.991916 4 3 0 
5525 5 0.400507 0.562064 0.0276263 -1 1 -2 
6135 5 0.0941457 0.645758 0.0117613 1 -2 0 
5333 5 0.153706 0.644337 0.0195146 1 2 -3 
7834 5 0.27009 0.605609 0.0284949 0 -1 0 
5788 6 0.697185 0.646681 0.97535 3 0 4 
6581 6 0.82413 0.613014 0.99533 -2 -1 -1 
8449 6 0.414822 0.666804 0.989255 -1 -1 -1 
5360 6 0.129964 0.64946 0.0560754 3 -2 -1 
8510 6 0.808216 0.646478 0.982317 -4 -6 -2 
5207 5 0.136199 0.704147 0.0126062 -2 -3 -3 
8080 5 0.496517 0.710703 0.994728 -3 -3 3 
8647 5 0.665018 0.697366 0.0329682 -4 1 -5 
6628 5 0.653053 0.73346 0.00873674 0 -6 2 
8259 5 0.203868 0.7269 0.00288427 1 -2 -2 
7465 6 0.297667 0.721235 0.00525537 4 4 4 
7431 5 0.696399 0.724459 0.00539213 0 -5 -1 
7518 5 0.196627 0.75634 0.0250234 2 3 -2 
6986 6 0.548723 0.749551 0.994049 1 1 -2 
6150 6 0.0998741 0.753335 0.0106368 3 -1 4 
8770 6 0.326449 0.762123 0.0212702 -2 0 3 
5971 6 0.576747 0.787805 -0.000450823 -5 2 0 
6917 6 0.887381 0.75856 0.0264884 5 4 -1 
5681 6 0.921564 0.778965 0.00226991 4 1 0 
6985 6 0.714986 0.810142 0.989339 2 -5 2 
8710 5 0.853186 0.843567 0.00946979 -3 -5 -1 
7779 5 0.886666 0.86011 0.988404 1 1 -7 
7190 6 0.386264 0.891486 0.0301458 -2 -2 8 
7081 5 0.55832 0.875964 0.997236 -3 0 -1 
6602 5 0.0686179 0.920738 0.0270495 1 5 -1 
8497 6 0.574308 0.944728 0.0299949 3 -2 -4 
6351 6 0.927419 0.907638 0.986796 -2 3 1 
6813 6 0.148977 0.908985 0.0252449 0 3 5 
6176 5 0.63801 0.940181 0.0188757 2 1 4 
8688 6 0.751483 0.99039 -0.00127716 3 -1 0 
7140 5 0.886658 0.969359 0.0335665 -1 -1 0 
6019 5 0.970783 0.910764 0.985787 -2 0 0 
6354 5 0.185235 0.936287 0.00251839 -3 0 -2 
8469 6 0.884263 0.952978 0.980864 -1 0 5 
8051 6 0.48453 0.977787 0.988871 0 -2 0 
6400 6 0.745455 0.990341 0.0116695 4 -4 -1 
5499 5 0.773515 0.99403 0.992804 -1 -4 -1 
6252 5 0.515414 -0.000503397 0.0245942 -4 1 -1 
6108 5 0.707069 0.994924 0.027571 -3 -1 -4 
8917 6 0.735097 0.00918938 0.0253436 -7 3 2 
8783 6 0.94933 0.0624217 0.0280429 -2 -4 -2 
7048 6 0.66332 0.0580098 0.0776757 0 -1 1 
6306 5 0.299098 0.100524 0.0514637 8 -5 0 
7123 6 0.798072 0.110626 0.0467466 2 0 1 
6822 5 0.102409 0.166833 0.0376483 -5 -3 1 
5430 6 0.572363 0.110794 0.0416251 0 -4 -3 
6654 6 0.64067 0.125879 0.00795119 0 -1 2 
5696 6 0.801879 0.16428 0.0665751 -7 0 -2 
5674 6 0.973662 0.150871 0.0428385 4 1 -4 
6743 5 0.326336 0.195516 0.0368914 -5 0 -1 
6236 6 0.409402 0.200225 0.0626815 1 3 -1 
7228 6 0.36567 0.214253 0.0152641 2 -3 -3 
5032 6 0.58682 0.207362 0.0379172 2 -1 1 
8195 6 0.58346 0.174678 0.0559521 2 3 2 
6406 6 0.395586 0.222389 0.0193005 5 4 -2 
8214 6 0.500311 0.235078 0.0172043 2 -3 -1 
5306 6 0.55765 0.245547 0.0258952 3 1 1 
5503 6 0.599926 0.224541 0.0400912 2 8 -3 
5155 5 0.58494 0.250986 0.0414519 -1 -2 -4 
8953 5 0.821372 0.247318 0.0223477 -2 -2 3 
5597 6 0.608841 0.287921 0.046307 -1 3 -3 
5387 6 0.163717 0.255013 0.0573261 1 1 0 
7263 6 0.226692 0.281947 0.0921543 5 1 1 
8769 6 0.409879 0.321787 0.0353602 -1 5 0 
7907 6 0.770923 0.250042 0.015242 4 2 -2 
7778 6 0.7566 0.288744 0.0316196 0 -2 -2 
5042 6 0.72568 0.330416 0.0322104 5 5 4 
5843 6 0.315727 0.351344 0.032713 0 -2 1 
6531 6 0.0338331 0.353823 0.0520547 -3 -3 0 
7317 6 0.116048 0.341351 0.999561 3 -1 -3 
8572 5 0.0716712 0.359067 0.0143374 -1 -2 0 
6072 6 0.4872 0.388323 0.0126587 0 4 1 
6033 6 0.454525 0.34332 0.0434508 1 4 -3 
7650 6 0.851715 0.340379 0.0248272 0 -2 -2 
8489 5 0.434202 0.396084 0.0345416 2 -2 0 
5905 5 0.16614 0.45041 0.0375206 3 1 2 
5889 6 0.569167 0.408229 0.0420612 -1 -1 4 
7085 5 0.0713865 0.447508 0.0531602 4 5 -3 
7875 6 0.233534 0.469347 0.00365183 -5 1 2 
7198 6 0.767426 0.489829 0.0295035 -2 1 4 
7203 5 0.20236 0.518767 0.0167646 -3 1 -1 
8395 5 0.790508 0.51678 0.0155679 -1 0 -1 
7563 6 0.115112 0.526679 0.031824 3 -2 -6 
7024 5 0.259971 0.507372 0.0181307 -6 4 3 
5340 5 0.48281 0.502139 0.0188433 -1 1 -3 
8590 5 0.814226 0.491183 0.0135772 3 -3 -1 
6356 5 0.648101 0.526338 0.0472377 -3 4 -2 
6026 5 0.793338 0.544899 0.00722272 0 -4 2 
8065 5 0.0254775 0.553716 0.012525 -6 0 0 
6850 6 0.395526 0.576297 0.0659097 1 4 -2 
8155 5 0.810974 0.52553 0.0109266 -1 0 -1 
7399 5 0.232668 0.605285 0.0449511 -1 -4 0 
7680 6 0.462012 0.585558 0.0298393 3 -2 4 
8128 6 0.873697 0.628161 0.0290803 -5 8 2 
6566 6 0.115099 0.670569 0.0148386 -1 3 0 
6355 6 0.723405 0.672442 0.056252 -4 -2 -2 
7217 5 0.875252 0.697153 0.00461969 -4 -2 3 
5258 5 0.436871 0.689564 0.028618 0 -5 0 
8889 5 0.533006 0.714446 0.0559475 -1 2 1 
5555 5 0.644886 0.680567 0.0181494 1 -3 -1 
5599 6 0.873825 0.691898 0.0420913 1 -1 8 
8158 6 0.738258 0.70014 0.0227598 3 -2 -5 
5137 6 0.247354 0.790291 0.0427867 2 -1 2 
7449 6 0.0624931 0.767681 0.00568709 -1 3 1 
8161 5 0.470584 0.809454 0.0169741 3 -2 5 
5049 6 0.957165 0.782947 0.0119332 0 2 -4 
8858 5 0.224885 0.814365 0.0213846 1 -2 -4 
5723 6 0.731206 0.879114 0.0442045 -1 -1 2 
7213 6 0.696028 0.850569 0.0418902 4 -6 2 
5724 5 0.253254 0.800841 0.0171394 5 4 0 
6142 6 0.520633 0.806325 0.0975613 3 1 -3 
7667 5 0.0750358 0.848754 0.0103407 0 0 -2 
6911 6 0.360213 0.832054 0.0183311 3 -3 0 
7821 6 0.0888688 0.887027 0.0218308 3 1 3 
7507 5 0.77663 0.888971 0.0328972 1 -1 0 
6641 5 0.403566 0.940543 0.0309556 -2 -2 -3 
6199 6 0.774665 0.932454 0.00235303 -1 -1 1 
8329 5 0.0861899 0.939216 0.0429882 2 -2 -8 
7690 6 0.452022 0.970283 0.0321003 0 -1 -2 
7729 6 0.758071 0.0115482 0.00973812 1 1 -2 
8209 6 0.891596 0.00428173 0.0527627 -4 1 1 
6183 5 0.216316 0.966622 0.0308169 4 5 -3 
5682 6 0.266305 0.0369634 0.0634036 -1 1 -4 
8274 6 0.350044 0.997392 0.0568311 -1 -2 0 
7772 6 0.374495 0.983986 0.026383 4 4 1 
5364 6 0.526044 0.00956824 0.0564654 1 -3 1 
7456 6 0.000625101 0.0296427 0.0605109 -1 3 1 
7151 6 0.472514 0.0140604 0.0514539 3 1 0 
8418 5 0.864608 0.036357 0.0435451 1 -3 1 
7231 5 0.00563082 0.0429878 0.0526577 1 1 1 
6045 6 0.694353 0.0107232 0.0538876 2 -2 1 
8508 6 0.00215735 0.100525 0.0759084 -2 2 -5 
6735 5 0.898833 0.173902 0.0447074 -4 -2 -1 
7320 5 0.0350368 0.138769 0.06646 6 2 -3 
7152 6 0.79346 0.204957 0.0959012 1 -2 1 
6430 6 0.753193 0.231205 0.0121927 -4 4 -7 
6155 5 0.117683 0.296742 0.0560077 3 -2 0 
8767 5 0.306423 0.22552 0.0289735 -5 5 1 
7819 6 0.48511 0.269503 0.0881965 1 -2 -1 
7611 6 0.676757 0.236617 0.0367468 3 -2 -3 
5281 6 0.594676 0.303104 0.0737437 1 3 -2 
6174 5 0.785888 0.296996 0.0510471 5 -2 -2 
6105 6 0.0895824 0.329394 0.0306191 4 0 0 
8963 6 0.410141 0.335197 0.0653237 -2 3 -4 
7594 6 0.971551 0.364582 0.0582029 -1 -1 0 
7610 6 0.875266 0.356539 0.0295666 2 -1 5 
5730 6 0.0697482 0.381601 0.0186338 2 0 1 
5884 5 0.907987 0.363611 0.0241688 -3 2 -2 
6832 5 0.718494 0.433496 0.0446166 -2 5 -1 
7086 5 0.176834 0.426537 0.0413179 -4 -3 -2 
5256 5 0.361739 0.430261 0.0331123 0 2 -1 
6810 5 0.72248 0.438476 0.0224533 0 -3 2 
8456 5 0.116441 0.508022 0.0870836 -1 -3 -3 
7909 6 0.277499 0.452573 0.109497 3 -2 1 
6524 6 0.746587 0.489967 0.0218979 -3 -2 -4 
6308 6 0.0900358 0.535735 0.0405159 1 -4 -3 
6475 6 0.118122 0.511785 0.0469941 -3 -3 5 
6204 6 0.311585 0.570347 0.092952 0 -1 -1 
6446 6 0.446584 0.570802 0.0946224 1 2 1 
5657 5 0.738907 0.607241 0.0650845 1 -4 0 
7356 5 0.882032 0.580879 0.0239011 3 3 0 
5758 6 0.240894 0.645215 0.0340282 -2 1 -2 
6946 6 0.364981 0.598587 0.0536337 0 0 -3 
8863 5 0.335204 0.594661 0.0382728 2 -5 -3 
7289 6 0.984719 0.611991 0.0822601 -2 2 0 
7617 5 0.741342 0.612543 0.107365 -1 3 1 
6286 6 0.442682 0.634763 0.0371027 3 -5 -1 
8150 5 0.0824148 0.65564 0.0831114 4 -5 -2 
6502 6 0.501816 0.710283 0.0308805 -3 -4 -1 
7550 5 0.523096 0.792936 0.0540505 4 -1 3 
6962 5 0.256808 0.767016 0.0614047 2 -1 3 
7897 6 0.536631 0.751833 0.0723458 3 -1 0 
5816 6 0.266634 0.788965 0.0382099 3 2 3 
7866 6 0.51937 0.813787 0.0508234 0 0 -1 
7886 6 0.406518 0.782257 0.02376 1 2 2 
5794 5 0.140667 0.836575 0.0624557 3 -1 -3 
8011 6 0.271262 0.83958 0.0936204 -3 -2 -1 
7080 6 0.35221 0.834177 0.038414 -2 -1 2 
6342 6 0.261854 0.832594 0.0908373 0 -2 0 
8517 5 0.148815 0.843327 0.0677573 2 0 0 
6954 6 0.236302 0.864512 0.0338861 3 -2 -2 
5579 5 0.376487 0.855717 0.0623399 1 3 -2 
5449 5 0.227631 0.872927 0.0293851 -2 6 -3 
6116 6 0.142867 0.92687 0.099419 -1 1 0 
5979 5 0.616118 0.960574 0.0533889 -3 4 -3 
8480 5 0.708596 0.943135 0.0628138 1 1 1 
5475 6 0.816614 0.913857 0.0521144 -2 4 -3 
6923 6 0.84478 0.927517 0.0733243 -2 -1 -1 
6407 5 0.374387 0.977529 0.0647475 4 -1 2 
6498 6 0.935217 0.954646 0.0442495 -1 0 -1 
5171 6 0.101987 0.980113 0.10734 2 5 1 
7420 6 0.157386 0.00117583 0.0851554 0 -1 6 
5800 6 0.175745 0.993608 0.10524 5 -1 3 
5872 5 0.445861 0.0334543 0.102541 1 -12 0 
7531 5 0.595078 0.996496 0.103744 -6 1 2 
5593 5 0.667472 0.992971 0.094845 -3 2 -1 
8012 5 0.484952 0.00545626 0.0883063 -4 2 -4 
8613 5 0.928674 0.0124066 0.0749095 0 6 -3 
5100 6 0.822043 0.094685 0.0874947 0 -5 -1 
8975 5 0.878844 0.0656593 0.0423618 4 1 0 
8316 6 0.349244 0.0212919 0.0753599 1 5 1 
7314 5 0.543118 0.125361 0.0934796 4 -4 -4 
7647 5 0.608848 0.0791337 0.0792911 4 2 3 
5687 6 0.264875 0.118433 0.0696665 4 1 4 
8402 5 0.126333 0.152557 0.102752 -5 1 1 
8648 5 0.115966 0.173061 0.080887 -4 1 -1 
8643 6 0.559235 0.166167 0.0504111 -1 -3 0 
5329 5 0.603723 0.156327 0.141938 0 2 1 
5545 6 0.810608 0.181934 0.0887863 2 4 3 
6285 6 0.333332 0.240192 0.0610923 1 -3 -2 
8974 5 0.918854 0.215503 0.0891695 -1 3 -1 
8032 6 0.975375 0.227126 0.07277 1 1 -4 
7459 6 0.0306701 0.20259 0.101046 -2 2 -1 
8123 6 0.238169 0.24013 0.136533 2 -3 1 
5471 5 0.724537 0.226802 0.050599 4 0 4 
7799 6 0.188246 0.284387 0.0553906 2 -7 -1 
7631 6 0.766769 0.232359 0.0927883 3 2 -2 
5205 6 0.946495 0.275735 0.094131 0 0 -2 
5264 6 0.326962 0.288507 0.0638211 -1 -2 -3 
8006 6 0.474692 0.317737 0.0538344 -1 2 2 
8425 5 0.777787 0.311774 0.104218 3 2 5 
6508 5 0.0894992 0.330348 0.0969069 2 5 -7 
5382 5 0.783241 0.319698 0.0875207 0 0 -6 
5848 5 0.263795 0.346489 0.0904597 0 -1 1 
7068 6 0.956899 0.367096 0.079867 2 0 -3 
6219 5 0.100929 0.385919 0.081843 0 1 0 
8360 6 0.583238 0.378569 0.076236 3 1 2 
6163 5 0.0204203 0.389606 0.0569499 2 -1 -3 
6180 5 0.786491 0.351817 0.0888201 3 -1 1 
5832 6 0.45441 0.416542 0.113452 3 -2 0 
5635 5 0.105759 0.415788 0.0703058 4 -1 0 
8208 6 0.38267 0.437827 0.0340118 2 2 4 
7805 6 0.767933 0.441063 0.109143 5 -1 -5 
7517 6 0.877401 0.4447 0.0938356 -7 4 1 
8639 6 0.456751 0.46616 0.0976145 1 4 -1 
8732 5 0.511814 0.488623 0.0844062 1 0 -2 
7022 5 0.279761 0.501524 0.0588888 0 -2 -1 
5211 5 0.744831 0.532262 0.0191691 -4 -1 3 
8899 5 0.813919 0.494789 0.0589816 -4 3 -1 
7272 5 0.209701 0.554755 0.0545539 0 3 -1 
7757 5 0.286584 0.531746 0.0738471 1 5 4 
5784 5 0.582504 0.601715 0.0582467 -2 -2 2 
6934 5 0.597615 0.579795 0.0524123 2 -3 4 
8367 6 0.666667 0.546734 0.0681845 0 2 0 
8681 6 0.701841 0.518293 0.0821577 -2 2 -3 
7367 5 0.457662 0.5773 0.0374653 1 0 3 
6669 6 0.629869 0.611944 0.0607503 1 0 2 
6374 6 0.735236 0.578839 0.0672841 -1 3 1 
6413 6 0.408209 0.63183 0.099756 1 2 -3 
8808 5 0.51291 0.646153 0.034586 1 1 3 
6397 5 0.649749 0.63594 0.114343 1 2 -2 
8460 5 0.0526552 0.663037 0.080895 2 -2 0 
8323 5 0.732602 0.696 0.0729676 0 1 -2 
5397 5 0.767115 0.640397 0.0692108 -1 -6 4 
7461 6 0.688111 0.715197 0.0765012 2 3 0 
6560 6 0.780191 0.702596 0.0780132 -4 0 -1 
8108 5 0.945039 0.67635 0.0632191 0 0 3 
5208 6 0.0379778 0.706174 0.068042 -2 1 3 
8370 5 0.682134 0.725384 0.115794 3 6 -3 
6325 5 0.582106 0.815123 0.0801437 1 1 0 
8680 6 0.479349 0.819929 0.0894534 6 1 -2 
5535 5 0.782407 0.817781 0.0796255 2 -6 1 
6537 6 0.675792 0.840058 0.0791053 2 0 -3 
7433 6 0.997213 0.825833 0.0941644 0 0 0 
8212 5 0.138639 0.855163 0.0549363 3 -2 -1 
7685 6 0.320377 0.871098 0.087495 1 -1 3 
6162 6 0.665298 0.89667 0.101531 -5 0 0 
6872 5 0.731137 0.886604 0.0466098 -4 1 1 
6987 5 0.995426 0.932348 0.0666672 1 0 1 
6899 5 0.786572 0.887631 0.0767208 3 -3 -1 
5363 5 0.991894 0.958945 0.0857325 5 -1 2 
6528 6 0.783207 0.915756 0.042129 -1 3 3 
6175 5 0.815275 0.932054 0.0810223 -3 1 2 
6747 6 0.453186 0.954401 0.0889532 -3 -2 -1 
6165 6 0.731393 0.946188 0.0783483 1 3 -2 
6291 5 0.835968 0.952955 0.108598 2 3 0 
8112 5 0.0368469 0.99494 0.110711 -1 -3 2 
5590 5 0.81477 0.97619 0.0477846 -7 -1 4 
6910 5 0.110831 0.0393831 0.113121 -5 1 3 
7916 6 0.156633 0.0290894 0.101148 2 2 -3 
7497 5 0.240638 0.0178161 0.0910083 -2 2 4 
6886 5 0.713079 0.0547514 0.102389 -6 0 -3 
8106 5 0.295631 0.0196987 0.105891 -1 0 0 
6877 6 0.304002 -0.000132728 0.0998454 0 3 1 
5707 6 0.456558 0.0363928 0.114798 1 -3 -5 
7623 5 0.649025 0.0657938 0.103232 0 -3 -1 
5185 5 0.382779 0.0312306 0.134357 -1 3 -2 
5739 6 0.402924 0.0600701 0.110036 4 -1 -2 
6645 6 0.94087 0.0912277 0.0902391 1 -2 -2 
5538 5 0.382128 0.0633754 0.108319 1 5 2 
6576 5 0.20515 0.0991317 0.0533554 -3 5 -1 
7782 6 0.242057 0.116098 0.107889 0 -6 -2 
6154 5 0.977523 0.122698 0.139165 1 -2 -5 
8237 5 0.587977 0.152607 0.123236 -1 -5 -2 
6100 6 0.534076 0.100601 0.110161 -1 3 -2 
8839 5 0.644712 0.131283 0.121875 -1 -3 1 
6563 5 0.89347 0.156779 0.0864739 1 7 6 
7823 6 0.654315 0.185365 0.123832 -4 -4 -1 
5991 6 0.772381 0.139072 0.131061 -3 0 -1 
8844 5 0.323266 0.237313 0.108067 -2 -4 0 
8463 5 0.150985 0.227197 0.109986 -2 2 4 
8168 5 0.942768 0.242685 0.109707 2 4 -1 
8298 6 0.223242 0.240029 0.0713875 1 2 -1 
6242 5 0.493681 0.270643 0.104647 2 0 2 
5885 5 0.547695 0.238785 0.140679 3 -1 -1 
5691 6 0.990284 0.24589 0.0764759 3 6 -2 
7641 6 0.917238 0.253064 0.0899119 -1 -3 0 
5580 6 0.0628792 0.308745 0.0888947 -3 -6 -1 
8191 6 0.727286 0.337779 0.0890611 -7 4 2 
8257 5 0.844244 0.323122 0.094843 0 -5 0 
5917 5 0.688076 0.326718 0.141813 -7 0 -1 
5988 5 0.757698 0.374983 0.0742253 -2 1 -1 
5763 5 0.581991 0.352912 0.115358 -2 2 4 
7609 6 0.657493 0.370607 0.0853775 -3 -2 2 
5711 6 0.424728 0.359253 0.0953682 -2 0 0 
8270 5 0.557151 0.411562 0.0887443 -2 2 0 
5700 6 0.258882 0.417689 0.0962988 0 1 5 
8019 5 0.369361 0.411266 0.118609 0 3 1 
5745 5 0.565387 0.390648 0.0811818 5 -4 -1 
7744 5 0.150103 0.428312 0.1502 -2 -3 3 
7172 6 0.500709 0.466463 0.146568 0 7 -2 
8518 6 0.0889589 0.466402 0.121401 1 4 1 
6806 5 0.554422 0.505465 0.0720276 -2 0 3 
8470 5 0.982488 0.470197 0.0804971 -5 4 2 
6003 6 0.333042 0.497419 0.0843254 6 2 -3 
7334 6 0.495306 0.564828 0.134752 1 5 -1 
7373 5 0.167394 0.521887 0.115409 3 3 0 
8089 6 0.277368 0.538519 0.132564 4 5 3 
7915 6 0.713317 0.537319 0.0561319 -1 -1 -6 
7478 6 0.159009 0.53631 0.0848985 1 -3 2 
6803 5 0.262695 0.576519 0.0777682 2 0 0 
7536 6 0.849804 0.570252 0.086097 -1 -6 -5 
6992 5 0.923534 0.540771 0.127577 -1 -1 -4 
7511 6 0.25603 0.565439 0.113256 -2 -6 -1 
6659 6 0.146646 0.629022 0.133563 1 3 -4 
5248 6 0.479646 0.614538 0.0888222 -7 0 1 
5709 5 0.794095 0.632308 0.0981068 -6 0 -3 
5975 5 0.541148 0.59908 0.131729 -4 1 0 
8392 6 0.690872 0.655464 0.0789421 4 1 -2 
5837 6 0.796985 0.646617 0.0799595 -1 -4 5 
5200 5 0.273962 0.664645 0.106246 2 1 -6 
6471 6 0.660163 0.686311 0.117339 4 1 3 
5923 5 0.684423 0.63841 0.133329 -2 0 -2 
8550 6 0.580378 0.667598 0.0853654 0 -2 1 
7632 6 0.997771 0.710273 0.0728274 2 -6 2 
8101 6 0.0311355 0.717678 0.0967017 -3 4 -4 
8376 6 0.0433344 0.729915 0.117996 -3 1 -2 
8184 5 0.206405 0.705806 0.0931544 -2 3 2 
6634 6 0.294369 0.693528 0.0983428 1 3 2 
8576 5 0.902044 0.69748 0.124262 1 -2 2 
6549 6 0.925259 0.70284 0.119388 3 0 -1 
7557 5 0.791514 0.724866 0.122146 1 0 3 
5097 5 0.930581 0.761851 0.117034 -1 0 -1 
6557 6 0.151694 0.753706 0.0795314 5 -8 1 
5652 6 0.556757 0.766322 0.108358 0 0 1 
6087 6 0.110162 0.792673 0.0875759 1 2 2 
5128 5 0.365313 0.800076 0.144199 0 -2 -5 
8087 5 0.656456 0.806613 0.0687239 2 1 0 
6979 5 0.818251 0.77586 0.120005 -6 -1 3 
5621 6 0.21388 0.801915 0.108369 0 0 4 
5413 5 0.522124 0.840001 0.0951356 -2 0 0 
7832 6 0.901224 0.866475 0.114905 3 7 -2 
6964 6 0.800634 0.918302 0.110316 2 -2 -1 
7483 6 0.247393 0.960312 0.112161 0 -3 1 
8979 6 0.306527 0.893564 0.105846 -2 3 1 
5358 5 0.372495 0.959271 0.139277 -1 1 -4 
6395 5 0.498106 0.913435 0.102285 3 1 0 
5216 6 0.686106 0.937419 0.0887981 0 1 3 
5638 6 0.493563 0.961921 0.0811287 -2 -3 2 
7535 6 0.0567346 0.993921 0.094204 -1 -2 2 
5362 6 0.0630576 0.00817982 0.120212 -1 -1 -1 
7940 5 0.433764 0.978346 0.0826057 1 -4 -5 
6839 5 0.853322 0.0179619 0.132024 0 2 0 
5467 5 0.736646 0.0725986 0.137571 5 2 -2 
6752 6 0.0967367 0.0282037 0.150213 -1 -2 -4 
7283 5 0.968877 0.0641705 0.126149 -6 -1 -1 
7695 5 0.707086 0.0792641 0.131063 1 1 -2 
7256 5 0.507265 0.112033 0.132632 0 -1 8 
5702 5 0.511397 0.0658906 0.103838 -5 -3 3 
8525 6 0.780835 0.14851 0.137467 1 3 -2 
7950 5 0.374207 0.156814 0.140545 -1 3 1 
6688 6 0.520661 0.138942 0.139285 3 3 3 
7243 5 0.174135 0.268059 0.0780945 2 7 -1 
7884 5 0.597852 0.17579 0.154768 -2 -4 -5 
8671 6 0.0365454 0.220542 0.121037 1 -1 2 
5222 5 0.109562 0.275525 0.135438 -1 1 1 
6368 5 0.582991 0.227972 0.104933 -4 1 -1 
7893 5 0.0779987 0.223459 0.138594 1 3 4 
7447 6 0.530359 0.252898 0.12591 0 4 2 
6014 5 0.171706 0.264396 0.12227 -1 -2 4 
6359 5 0.36992 0.297147 0.122989 -3 -4 -1 
5127 6 0.396531 0.321946 0.101349 4 -2 0 
8622 6 0.265791 0.327235 0.0955059 -2 0 3 
7441 5 0.672228 0.372167 0.152021 -5 3 -1 
8166 5 0.697703 0.379723 0.135651 -3 2 3 
6714 6 0.230313 0.345952 0.132892 4 1 -1 
6283 5 0.643656 0.394484 0.113532 0 7 0 
7981 5 0.309459 0.385941 0.130568 2 0 2 
8561 5 0.40697 0.390537 0.132353 2 1 4 
6554 5 0.488257 0.442751 0.130862 2 -3 2 
7645 6 0.945006 0.447203 0.109063 -4 0 3 
7979 6 0.777497 0.469328 0.104936 -1 0 -3 
8461 6 0.266799 0.481868 0.107573 3 -1 4 
6838 6 0.587157 0.509621 0.148437 0 2 -2 
5172 5 0.538379 0.478718 0.10782 1 1 2 
5477 6 0.653143 0.509456 0.11957 -3 -1 1 
7947 5 0.367988 0.504579 0.118785 0 -3 -4 
5660 6 0.394778 0.508546 0.141243 5 -5 2 
8611 6 0.502542 0.524887 0.105952 -4 1 -7 
8762 6 0.477628 0.57211 0.123665 0 2 1 
6723 5 0.912004 0.551006 0.0760878 -2 1 -4 
8649 6 0.989734 0.585842 0.13739 5 -2 -1 
7638 5 0.456044 0.637858 0.140706 -6 0 3 
5031 6 0.456512 0.628277 0.128876 1 5 -1 
5285 5 0.708202 0.626693 0.153329 0 4 4 
8325 5 0.830213 0.574104 0.142993 -3 -4 3 
7382 6 0.118365 0.656813 0.131312 2 3 -1 
6501 6 0.272581 0.652738 0.0958228 -4 1 -1 
8016 6 0.536161 0.659939 0.162457 -5 -6 3 
6062 5 0.036701 0.712606 0.123958 -5 0 -3 
5454 5 0.657768 0.723294 0.159773 -1 6 -2 
7817 6 0.936864 0.703318 0.105366 2 3 -1 
5156 6 0.394855 0.755678 0.126243 1 -1 0 
5658 6 0.897074 0.735335 0.105947 1 -1 -1 
7814 6 0.504722 0.807511 0.135003 -1 -6 -3 
5263 5 0.403476 0.865711 0.123111 3 0 2 
7732 6 0.416203 0.857595 0.0923441 0 -1 -1 
7978 5 0.66436 0.869887 0.122704 -4 3 0 
7837 6 0.482907 0.855949 0.155739 6 6 3 
5079 5 0.237016 0.902754 0.134935 3 1 -2 
8115 6 0.78526 0.927285 0.115762 -1 -4 -1 
5226 5 0.816135 0.917877 0.0815728 -1 2 -2 
7598 5 0.496854 0.996153 0.108992 4 1 1 
5331 6 0.674572 0.951362 0.132088 0 0 -4 
8847 6 0.326694 0.990564 0.108243 1 2 3 
7250 6 0.502095 0.960619 0.139681 1 3 0 
7114 5 0.558847 0.0391381 0.150856 5 -3 -3 
8937 5 0.623077 0.0413835 0.162221 -1 -1 1 
6775 6 0.901061 0.0688678 0.128745 -3 -2 2 
6482 5 0.349414 0.0712297 0.163432 -1 4 0 
6046 5 0.582603 0.103649 0.172853 2 2 0 
6481 5 0.43176 0.0899372 0.164815 0 3 -1 
8756 5 0.600094 0.0858573 0.119548 0 1 4 
7018 5 0.112267 0.153931 0.109573 1 -2 1 
8798 5 0.542313 0.0994983 0.109022 -6 3 2 
6229 6 0.839371 0.114182 0.14861 -1 3 5 
8795 5 0.333378 0.137549 0.147896 6 -2 4 
6074 5 0.348629 0.114859 0.132504 1 -3 4 
8630 5 0.438367 0.172342 0.140574 2 -2 0 
7576 6 0.459662 0.128769 0.136353 -4 2 -1 
6572 6 0.531569 0.157216 0.197249 -2 0 3 
5924 6 0.546435 0.111394 0.159283 0 4 -2 
6023 6 0.413697 0.157073 0.117012 -1 -4 1 
5894 6 0.441911 0.164099 0.155781 1 3 -6 
8314 6 0.609371 0.167047 0.151833 1 0 2 
5879 5 0.979106 0.223443 0.131313 1 -2 0 
5047 6 0.112979 0.211309 0.14416 2 2 2 
8254 6 0.647862 0.168947 0.178075 -2 4 -2 
6687 5 0.0490039 0.251319 0.12587 2 1 -1 
5431 6 0.141065 0.242993 0.166136 0 0 -3 
5352 5 0.514995 0.252667 0.141916 0 5 -1 
8225 6 0.7286 0.220779 0.105552 -4 -2 0 
8714 5 0.860051 0.260421 0.147605 -1 0 -1 
7574 6 0.259444 0.25176 0.158046 0 -2 -1 
5238 6 0.367057 0.273795 0.16576 3 0 1 
7951 6 0.474021 0.285274 0.126359 0 0 2 
5719 6 0.55751 0.246123 0.175325 0 -1 -5 
8442 6 0.914725 0.265011 0.166258 0 -6 -2 
7917 6 0.730814 0.30185 0.172327 1 1 -4 
7663 5 0.562709 0.352763 0.15292 -8 -3 3 
7053 5 0.669523 0.302562 0.126702 0 1 0 
8715 5 0.79636 0.329797 0.203646 1 4 -1 
6898 5 0.150898 0.337182 0.135107 -4 1 0 
8441 5 0.660024 0.359482 0.16299 -4 -4 -2 
7596 5 0.892935 0.367428 0.161914 -1 1 1 
6307 5 0.0358148 0.385108 0.177233 0 -1 -3 
6730 5 0.767906 0.40041 0.145784 4 -3 -2 
5289 6 0.788286 0.384916 0.148599 -4 -4 -5 
8267 6 0.201293 0.435037 0.155731 -3 0 2 
5213 5 0.602802 0.440791 0.147811 1 6 0 
7201 6 0.954077 0.442262 0.116053 -2 5 -2 
5558 6 0.475116 0.48696 0.140457 1 1 0 
7684 6 0.422978 0.451975 0.139284 2 2 -4 
7245 5 0.16559 0.503615 0.123581 3 2 -3 
5957 5 0.447477 0.474765 0.163528 -2 1 2 
8055 6 0.890762 0.507156 0.170794 1 0 1 
6721 5 0.562988 0.540524 0.144692 3 -1 2 
6366 6 0.576284 0.542134 0.1366 -1 0 -1 
5892 5 0.977885 0.567789 0.172173 -2 1 2 
8154 6 0.121082 0.587304 0.163776 -1 0 -4 
8971 6 0.616493 0.569663 0.140741 -3 2 -1 
5563 5 0.20045 0.60503 0.200168 2 2 -1 
8141 5 0.929859 0.606563 0.148675 5 1 -2 
5504 5 0.217065 0.654978 0.136119 -3 -2 1 
5379 6 0.305145 0.697522 0.1649 3 -3 -1 
7537 6 0.26405 0.673658 0.16402 1 0 1 
7365 5 0.642762 0.672251 0.127527 2 1 -4 
5604 5 0.234129 0.721683 0.161418 1 1 0 
5826 6 0.198217 0.732743 0.151754 -3 -2 0 
8369 6 0.468743 0.71878 0.133759 2 2 4 
5102 6 0.607947 0.784742 0.154623 2 -1 0 
6915 5 0.402814 0.806075 0.160061 0 -1 2 
8387 6 0.38056 0.754471 0.130156 -1 -2 3 
7659 5 0.445185 0.787112 0.139151 -5 -8 0 
5366 5 0.876124 0.788513 0.163172 1 -1 -5 
8494 6 0.0108086 0.771384 0.112553 -1 -5 3 
5419 6 0.337075 0.797725 0.140946 0 -1 1 
8381 5 0.431821 0.844138 0.108628 0 3 -2 
8743 6 0.0445735 0.85241 0.146197 2 2 2 
7278 6 0.850705 0.858417 0.170143 1 3 4 
8728 5 0.0842432 0.875826 0.122747 -1 -2 -2 
8708 6 0.178318 0.890316 0.142773 3 -6 3 
6410 6 0.674165 0.948493 0.0957504 5 -4 -1 
7872 5 0.944578 0.935753 0.164046 -1 -2 0 
5041 5 0.999432 0.926933 0.155302 1 -5 -1 
5219 5 0.00820555 0.931714 0.110694 -2 -3 -3 
8411 5 0.0551817 0.935186 0.13709 6 -1 -1 
8568 5 0.732625 0.922833 0.179446 5 3 -1 
5544 6 0.494366 0.952168 0.130046 0 -4 3 
8085 6 0.774047 0.980109 0.15426 -3 -2 -3 
8339 6 0.436278 0.0710569 0.168633 3 0 -1 
8955 5 0.0515447 0.0782324 0.165012 -2 5 -2 
8097 5 0.198368 0.0629207 0.197069 3 -1 -3 
7265 5 0.657097 0.0807148 0.18321 4 6 0 
6864 6 0.768167 0.127732 0.158601 -2 0 -2 
6404 6 0.0154001 0.102976 0.194143 -4 -4 0 
8379 6 0.528913 0.14086 0.166161 -5 0 1 
8623 5 0.0747379 0.189633 0.144836 -1 0 -1 
7498 5 0.722644 0.137853 0.197827 1 -1 4 
7109 5 0.112368 0.174976 0.174629 1 -1 0 
5506 5 0.220103 0.162391 0.198121 1 3 3 
8781 5 0.873973 0.150694 0.15387 -4 0 5 
7171 5 0.0490384 0.224189 0.162861 -2 0 -4 
6968 5 0.236255 0.162261 0.149997 5 2 0 
5931 6 0.306117 0.231665 0.21824 0 0 -2 
7025 6 0.441143 0.222404 0.212931 -2 0 -1 
5666 5 0.531624 0.171251 0.158921 2 1 2 
5818 5 0.780481 0.17622 0.150792 3 6 3 
7885 5 0.738912 0.199996 0.164771 1 -2 1 
7556 6 0.069169 0.214872 0.178836 5 3 1 
8936 6 0.099379 0.225098 0.164344 -1 2 -5 
8190 6 0.268394 0.18713 0.198649 2 -1 -2 
5161 6 0.274903 0.234334 0.168244 -2 -2 2 
6879 5 0.35165 0.227809 0.164213 -2 -2 4 
7492 6 0.377246 0.235065 0.186909 0 0 -2 
8583 6 0.42104 0.213643 0.171066 -2 2 0 
7254 5 0.103517 0.241017 0.169501 2 0 -2 
5166 6 0.620037 0.252229 0.181058 -1 -3 2 
8817 5 0.834935 0.229786 0.141711 -1 2 3 
5497 5 0.483458 0.224281 0.141035 -4 -3 2 
5550 5 0.636723 0.332598 0.207938 -2 -4 1 
8502 6 0.518899 0.359517 0.179025 3 -1 -3 
8125 6 0.0490184 0.333387 0.191406 -2 2 -3 
7178 6 0.310257 0.347148 0.137985 -2 1 1 
6348 5 0.317347 0.366642 0.149741 6 3 7 
7792 6 0.755092 0.390754 0.177523 -2 -1 6 
8902 6 0.134536 0.39379 0.16022 -2 1 -2 
6536 6 0.6815 0.37443 0.164659 -5 4 -8 
8318 6 0.716663 0.382958 0.17103 -4 -4 -2 
5214 6 0.25081 0.382752 0.184604 -2 -4 -2 
6591 5 0.526818 0.385445 0.172067 0 -2 -3 
6441 5 0.0614288 0.443815 0.149915 1 -2 2 
5112 5 0.153457 0.416945 0.17012 1 -4 3 
8000 5 0.0383913 0.438711 0.206253 3 0 -4 
8875 5 0.0186036 0.464825 0.146393 0 1 4 
5779 5 0.650327 0.456384 0.163303 -1 1 1 
8438 5 0.229041 0.506045 0.187588 4 4 0 
8619 6 0.0859704 0.54392 0.170738 1 -1 -2 
7972 6 0.326655 0.501884 0.192937 -3 -1 2 
7191 6 0.115801 0.506878 0.184701 3 3 2 
7212 6 0.763292 0.577265 0.175887 0 2 1 
5753 6 0.233661 0.599269 0.133225 2 0 -3 
7633 5 0.522901 0.581459 0.173494 0 -4 0 
5877 6 0.980029 0.574139 0.163223 4 -1 5 
6124 5 0.24834 0.602935 0.160984 5 2 2 
6493 6 0.433225 0.622998 0.167385 0 -4 0 
8752 5 0.784872 0.644085 0.179316 -7 -1 -2 
7923 6 0.317137 0.664296 0.194463 0 -2 1 
7648 6 0.6207 0.651795 0.168554 -1 -2 -1 
5262 5 0.186345 0.667726 0.192283 -1 -3 4 
6873 6 0.408325 0.68769 0.169316 2 1 -7 
6349 5 0.943226 0.627822 0.19715 -1 -5 -6 
6476 5 0.129834 0.74833 0.165926 4 -2 1 
7890 5 0.643348 0.731393 0.174541 3 0 2 
6247 5 0.711502 0.706219 0.199564 0 3 5 
8913 6 0.718978 0.73828 0.155596 0 -1 1 
8879 5 0.876758 0.732626 0.164387 -1 4 1 
5734 6 0.719791 0.747103 0.187773 -3 4 0 
6099 6 0.0651476 0.771292 0.151627 1 -3 4 
5212 6 0.223187 0.800548 0.156311 1 -1 4 
7340 5 0.297338 0.803599 0.155622 -1 0 0 
6809 5 0.267476 0.793771 0.188214 4 -1 0 
5337 5 0.881679 0.782235 0.159493 1 2 -3 
6098 6 0.219423 0.893455 0.207838 4 -1 -2 
5628 5 0.400959 0.860257 0.128484 0 -1 3 
5802 6 0.494073 0.868927 0.166433 -1 -3 -5 
5764 6 0.721798 0.887925 0.183641 -1 -1 0 
6353 5 0.802885 0.891866 0.182912 -1 -5 -4 
6666 6 0.25766 0.904906 0.189433 3 2 2 
7157 5 0.248394 0.906614 0.157223 0 1 6 
7310 5 0.45761 0.895182 0.199496 0 0 4 
8388 6 0.0857555 0.935276 0.183421 -1 1 0 
6846 6 0.183227 0.957432 0.167966 2 -4 -4 
8684 5 0.413625 0.954985 0.167605 -1 -4 3 
6578 6 0.713757 0.962016 0.173661 0 -5 0 
5308 5 0.435346 0.97927 0.148249 1 4 0 
5513 6 0.646813 0.00108203 0.149266 -5 0 2 
7675 6 0.31773 0.0265751 0.210489 4 5 -1 
7687 6 0.58583 0.00617365 0.176132 -3 -1 1 
5444 6 0.268648 0.02176 0.182877 1 1 -1 
6486 5 0.300694 0.0123682 0.208336 -2 -5 3 
7193 5 0.752469 0.0406244 0.177841 -3 6 -4 
8835 6 0.972376 0.0595654 0.196071 2 -3 1 
5433 5 0.1545 0.0628743 0.170083 -1 3 0 
7374 5 0.355025 0.0500873 0.194469 2 -7 1 
7677 6 0.382194 0.0974946 0.208769 -1 4 1 
6571 5 0.835035 0.0463058 0.215446 3 0 0 
5977 6 0.139286 0.0759961 0.210149 1 3 -3 
8864 6 0.0921186 0.100207 0.164969 -3 0 6 
7410 6 0.167191 0.132612 0.183014 -1 3 1 
8516 6 0.218252 0.149543 0.23362 2 0 1 
7541 6 0.110963 0.144411 0.141218 0 -3 -1 
7703 6 0.951071 0.137886 0.180804 0 2 -2 
8359 5 0.995607 0.170837 0.190579 -4 2 -1 
5091 5 0.00779903 0.210441 0.216462 0 -3 3 
7009 5 0.378827 0.264892 0.203094 0 -4 -1 
7286 5 0.606279 0.224347 0.194251 -4 5 3 
6381 5 0.739144 0.260632 0.185889 4 -2 3 
8213 5 0.042167 0.245021 0.196335 1 0 -3 
5068 5 0.548999 0.287522 0.171665 -2 3 6 
5856 6 0.673311 0.251335 0.192082 4 1 2 
5817 6 0.849128 0.27829 0.191805 -4 -2 2 
6423 6 0.924244 0.316768 0.172191 -2 0 -2 
5806 5 0.486262 0.257046 0.169964 -1 5 2 
8015 6 0.871761 0.317488 0.178283 0 0 3 
5378 5 0.843602 0.341116 0.214628 5 0 4 
7853 5 0.454365 0.350018 0.18439 -2 0 -1 
6220 6 0.590877 0.389759 0.198337 -2 3 3 
8859 6 0.645818 0.326783 0.145894 0 -3 -5 