ITEM: TIMESTEP
20000000
ITEM: NUMBER OF ATOMS
9000
ITEM: BOX BOUNDS pp pp pp
-75 75
-75 75
-75 75
ITEM: ATOMS id type xs ys zs ix iy iz 
7608 5 0.150622 0.993008 0.949086 -3 2 -1 
7270 5 0.161788 0.981128 0.0289289 4 -2 1 
6454 6 0.381872 0.00209869 0.974348 1 4 2 
7750 6 0.57917 0.996893 0.997465 -3 -2 -2 
5386 6 0.475617 0.0347066 0.0439839 1 4 -2 
8088 5 0.374985 0.0481251 0.00969333 1 -5 3 
6914 5 0.254049 0.0562204 0.0170262 -3 0 7 
7433 5 0.448718 0.0999403 0.0515797 4 5 -1 
5732 6 0.701724 0.125675 0.986669 2 2 -1 
6026 5 0.0804534 0.133521 0.0117485 -2 -1 -1 
5342 6 0.172137 0.126477 0.00989629 3 0 -2 
5467 5 0.342196 0.141307 0.0149923 2 7 2 
5160 5 0.165119 0.1486 0.0602448 3 0 5 
6481 6 0.198953 0.189111 0.0234905 0 2 -3 
6162 5 0.505439 0.152501 0.0212306 0 -3 1 
6593 6 0.724379 0.139302 0.990389 0 -2 -3 
7153 5 0.843937 0.161328 0.0139412 0 1 -2 
6333 5 0.473445 0.203556 0.0375293 -4 0 4 
8083 5 0.124087 0.212679 0.0504361 -2 1 5 
8826 6 0.251166 0.276035 0.0118922 1 3 5 
5408 6 0.37039 0.253498 0.00623637 3 2 -2 
8186 5 0.860563 0.236684 0.0264958 2 1 4 
6608 6 0.615982 0.341224 0.0324522 2 2 4 
5411 6 0.684094 0.316726 0.0160526 0 -3 0 
5343 6 0.705564 0.309581 0.037782 -1 -1 3 
6947 6 0.0856554 0.350228 0.992358 1 -3 1 
7804 6 0.400591 0.329632 0.0339536 -2 0 3 
8696 5 0.604305 0.332746 0.0260032 0 1 4 
5432 5 0.997233 0.356213 0.991684 -3 -1 -6 
8512 6 0.609389 0.364409 0.0174553 -2 -1 -2 
7207 5 0.967291 0.332722 0.0434635 1 2 -2 
7517 6 0.977981 0.355123 0.0431845 1 -1 7 
6170 6 0.456668 0.408118 0.0470925 -1 3 3 
6716 6 0.56607 0.429512 0.985933 -2 -2 0 
5546 6 0.830139 0.464653 0.0345698 -1 -3 2 
6908 6 0.574679 0.473129 0.00502432 0 -1 4 
7439 5 0.181958 0.507307 0.0168862 -2 -5 1 
6762 5 0.606328 0.499801 0.0376154 5 4 -2 
8016 5 0.884687 0.477969 0.0108348 -3 -2 -1 
7934 6 0.856189 0.582247 0.0193011 5 -6 -2 
6827 5 0.114139 0.518296 0.0569508 -2 3 2 
5409 6 0.364115 0.589609 0.0328884 3 -5 0 
7547 5 0.417834 0.57034 0.00268395 0 2 0 
7877 5 0.866503 0.598778 0.984101 1 -2 -3 
8171 6 0.0142197 0.627901 0.981274 -3 0 -2 
5036 5 0.167089 0.629683 0.03363 -5 -3 -10 
6666 5 0.0188955 0.629884 0.0247545 4 -2 1 
7522 6 0.299961 0.65416 0.029863 -1 -1 2 
6161 5 0.567902 0.660133 0.999489 -3 0 2 
8819 6 0.664607 0.660637 0.0271315 -1 -2 -4 
5532 6 0.244733 0.647922 0.0422076 -2 -1 -2 
8252 5 0.210177 0.702601 0.0250736 4 -1 3 
8885 6 0.293037 0.663162 0.0389467 1 -1 0 
5391 6 0.445444 0.689998 0.0199707 -3 -2 1 
5639 6 0.693145 0.70924 0.0137578 -3 2 -2 
7058 6 0.955163 0.717799 0.0173686 -3 0 1 
5624 5 0.149435 0.710865 0.0588642 0 -2 -1 
8344 6 0.374482 0.692362 0.0186825 -4 -5 0 
6487 5 0.283121 0.773354 0.0422506 0 -2 -1 
5653 6 0.15723 0.797695 0.0544879 -3 0 4 
8402 5 0.217873 0.796283 0.0251077 -2 -2 -1 
6091 6 0.417244 0.795733 0.0226032 2 2 -4 
8704 6 0.850252 0.789418 0.00530669 0 4 -2 
7219 5 0.227315 0.842908 0.0140232 6 -1 -2 
8195 6 0.616173 0.851784 0.986759 -4 -1 0 
6308 6 0.0459652 0.873791 0.984483 6 7 -4 
7304 5 0.174106 0.913674 0.980608 -2 2 0 
5354 6 0.335325 0.868578 0.00289321 1 -3 -7 
8758 6 0.330712 0.845136 0.036437 2 -1 3 
5528 6 0.367102 0.881014 0.994817 -4 -6 0 
7447 6 0.459087 0.859761 0.0261478 1 1 4 
6772 6 0.957164 0.862698 0.0123818 -1 2 0 
8740 5 0.631836 0.936486 0.992755 3 -1 -1 
5116 5 0.886691 0.943458 0.999864 1 5 -2 
7970 6 0.0515985 0.963349 0.0216309 -1 -1 5 
6441 6 0.504873 0.968322 0.0336904 -3 0 5 
7483 6 0.523622 0.913736 0.0116308 2 -2 -1 
5221 6 0.280798 0.966808 0.0360618 2 0 -3 
8734 5 0.15938 0.988823 0.011802 4 -2 -5 
8282 6 0.456408 0.99149 0.0441982 -4 -3 1 
5042 5 0.583159 0.969869 0.0362621 -2 -4 3 
6980 5 0.979151 0.959125 0.024871 1 -2 2 
6591 5 0.826374 0.00639467 0.0517923 -1 -1 6 
7678 5 0.949276 0.0292996 0.035912 -3 6 -1 
6531 5 0.0987454 0.0201468 0.0524409 2 0 0 
8049 6 0.422364 0.0226097 0.0352952 2 0 2 
6614 5 0.635356 0.0490792 0.0738383 0 0 2 
6192 5 0.788329 0.0387159 0.04169 2 3 -2 
6849 6 0.954134 0.0702104 0.0147722 -3 1 2 
7289 6 0.0920199 0.0430615 0.0324234 2 7 2 
6664 6 0.537826 0.0285685 0.0355747 1 5 -4 
6741 6 0.923811 0.0342526 0.0370184 2 1 -2 
5043 5 0.228707 0.113288 0.0361437 0 5 2 
7373 6 0.600864 0.0685521 0.0310087 0 -1 3 
5550 6 0.795085 0.0915316 0.0259395 -2 0 3 
8513 5 0.921637 0.102141 0.0117136 1 -1 0 
6340 6 0.631483 0.182653 0.0253525 -1 3 -1 
8662 6 0.756683 0.156445 0.0281407 -4 -3 5 
6335 6 0.112687 0.219994 0.0120546 -2 4 -2 
6564 6 0.414193 0.191738 0.0014299 -3 -4 1 
5438 6 0.697161 0.232981 0.0292508 1 4 3 
7386 5 0.507768 0.228618 0.00901117 -3 3 2 
8061 6 0.947029 0.190138 0.0334134 5 1 3 
8700 6 0.503995 0.226596 0.0272255 2 0 2 
7109 5 0.704068 0.278482 0.0486991 -5 -2 -2 
8370 5 0.106242 0.286408 0.0583993 3 0 3 
7585 6 0.385843 0.26658 0.0185076 0 -4 -1 
6684 5 0.758026 0.255429 0.051135 -1 2 4 
8326 5 0.280965 0.322672 0.0311702 -4 7 -2 
6912 5 0.440442 0.318996 0.0321988 -2 1 -4 
8483 6 0.684747 0.355588 0.00315405 3 0 0 
8951 5 0.795518 0.336902 0.0308696 0 -2 1 
6227 6 0.928572 0.343332 0.00377433 -2 2 0 
5996 6 0.870947 0.377493 0.0425341 -2 -3 3 
7379 6 0.0982582 0.368503 0.0560671 3 5 -2 
8432 6 0.182198 0.351072 0.0622061 -2 2 2 
8999 5 0.516251 0.386532 0.0248525 0 10 0 
5145 6 0.901451 0.366389 0.0548078 0 -1 2 
5265 6 0.973181 0.377482 0.0181138 -3 1 3 
8832 5 0.0481945 0.368075 0.0553898 -3 1 -1 
8157 6 0.24588 0.384653 0.0248178 0 -4 -1 
6829 6 0.688766 0.419412 0.068407 -5 1 -4 
8945 5 0.821784 0.372527 0.0275703 2 -1 -2 
7857 6 0.95538 0.38677 0.0115595 4 -2 3 
5660 5 0.279838 0.429829 0.0247039 2 2 1 
6993 6 0.616303 0.438851 0.0241433 3 2 -1 
5439 6 0.933466 0.461997 0.0623882 -2 0 -2 
8026 6 0.450755 0.498678 0.0502921 4 0 0 
5335 6 0.978374 0.506899 0.050248 -4 3 6 
6178 6 0.998526 0.511999 0.0556245 2 -2 5 
5696 6 0.223606 0.525471 0.0389583 3 4 0 
7777 6 0.925984 0.544478 0.00508574 0 -2 0 
6130 6 0.705947 0.570216 0.0260264 2 3 -1 
8722 6 0.819069 0.562118 0.0410653 0 -1 4 
5313 6 0.750763 0.618527 0.0338379 6 -2 -1 
5008 6 0.917155 0.590254 0.0446097 4 -4 -1 
6680 6 0.833445 0.665724 0.0100309 3 4 -2 
8050 5 0.855912 0.679482 0.0361524 -4 4 -3 
5544 6 0.102792 0.660498 0.0277547 0 2 -1 
6380 6 0.14349 0.685607 0.98773 -1 1 1 
8554 5 0.0814537 0.731456 0.0124239 3 0 -2 
5541 5 0.305454 0.720686 0.042701 -3 3 0 
6604 5 0.362465 0.717381 0.0618969 -2 0 4 
7889 5 0.580552 0.765164 0.0446059 -1 -5 -1 
5741 6 0.779787 0.730981 0.0763189 0 -2 -3 
5551 5 0.927408 0.752971 0.0293985 -8 -6 0 
6111 6 0.835981 0.753376 0.0190364 0 0 -1 
5936 6 0.893064 0.79573 0.0443334 4 0 2 
8062 6 0.501094 0.766017 0.0751713 0 3 -1 
6108 6 0.64561 0.827712 0.0463034 -1 1 3 
6306 6 0.00773487 0.845765 0.0367888 2 -2 -1 
5722 5 0.460153 0.851975 0.0218629 6 1 0 
7784 6 0.728511 0.826912 0.0791762 -3 -3 0 
6751 6 0.297789 0.879075 0.0400149 -6 -3 0 
8248 5 0.911649 0.877973 0.0173297 0 -2 0 
5713 6 0.283566 0.962699 0.995281 3 -1 0 
6040 5 0.99668 0.905645 0.0284285 5 -4 0 
7566 6 0.412901 0.94741 0.0444723 0 -3 1 
5742 5 0.970721 0.936027 0.0189042 -2 2 -1 
5406 5 0.105104 0.967247 0.0234491 2 -4 -1 
7026 5 0.408154 0.961283 0.0414491 -1 1 2 
7443 5 0.603941 0.984657 0.991266 -1 -1 -7 
7905 6 0.707617 0.970762 0.00021852 9 3 -2 
5442 5 0.98355 0.989896 0.0752523 -6 -3 -1 
7060 6 0.118243 0.998108 0.0361422 -3 1 1 
7344 5 0.336755 0.980345 0.0253648 1 -4 -1 
7830 5 0.589574 0.978245 0.0395363 -4 1 1 
6331 5 0.633509 0.0150362 0.0250738 -2 3 -1 
8288 6 0.652277 0.992572 0.0423758 1 3 2 
5562 6 0.760548 0.982288 0.0664176 -3 0 -1 
6737 6 0.248517 0.0262345 0.0862281 2 7 -1 
8570 6 0.888587 0.044003 0.0768104 1 -1 -7 
7129 5 0.994923 0.109156 0.0480223 5 6 -1 
5767 6 0.107442 0.0410573 0.0415519 2 -3 -2 
6775 6 0.423862 0.0905298 0.0615831 -1 0 -3 
6690 5 0.501029 0.0982881 0.0428831 3 -1 -3 
7998 5 0.22032 0.127821 0.0458648 3 4 -2 
5655 6 0.567807 0.104185 0.057626 0 0 -1 
5915 6 0.511801 0.0831874 0.0863679 -1 1 6 
7431 6 0.898449 0.108833 0.0576004 -2 9 2 
7943 5 0.17182 0.161508 0.0370341 1 2 -1 
7864 6 0.139932 0.163209 0.0731303 1 -2 2 
8057 5 0.417429 0.133663 0.032751 4 0 4 
6213 6 0.45611 0.206537 0.0328787 -1 2 -8 
5547 6 0.164638 0.185239 0.0612955 0 1 2 
5135 5 0.948907 0.180114 0.0645954 -2 4 2 
6871 6 0.228502 0.212446 0.079434 0 2 3 
7419 5 0.876953 0.233321 0.0973154 0 2 -1 
5921 6 0.451454 0.27209 0.0651681 -2 3 0 
7829 6 0.62732 0.334176 0.0101031 -4 0 2 
5938 5 0.721239 0.339611 0.0627952 -2 0 1 
5725 5 0.875048 0.324951 0.0607841 -1 3 0 
8811 5 0.159776 0.341522 0.0392529 2 2 3 
5957 6 0.573054 0.338671 0.0650125 0 1 0 
5133 5 0.195599 0.382128 0.984167 0 0 -3 
8998 5 0.436897 0.395082 0.0819498 -2 -7 -2 
6706 5 0.441508 0.344234 0.0605788 2 0 -3 
8916 5 0.857783 0.397871 0.0672835 -1 -1 4 
7027 6 0.102788 0.406795 0.0549519 -1 -3 2 
7854 5 0.815356 0.405643 0.0350514 2 0 4 
6589 6 0.143975 0.400365 0.0830404 -3 1 -2 
6937 6 0.641555 0.43058 0.0857677 2 2 0 
6996 6 0.65203 0.398963 0.0460458 1 -4 0 
5765 6 0.125632 0.453833 0.0398722 0 0 2 
7933 6 0.413559 0.460603 0.0419694 2 -4 -4 
6099 6 0.972322 0.469674 0.0516876 -1 -4 0 
6083 5 0.111789 0.464258 0.0539502 -3 -2 1 
8169 6 0.500108 0.480097 0.0956124 -1 1 0 
5175 5 0.20598 0.556116 0.0467405 1 4 4 
7138 6 0.439736 0.552021 0.0361864 -5 -2 2 
6644 6 0.858807 0.529825 0.0300822 -7 1 0 
8184 6 0.24526 0.570932 0.0459433 0 -4 4 
5421 6 0.656754 0.553345 0.0427361 1 -2 -1 
6291 6 0.892636 0.605196 0.0547515 3 -3 3 
6602 6 0.999474 0.590918 0.0909958 0 -3 2 
5453 6 0.0730573 0.59825 0.0321289 1 1 -4 
5893 5 0.952745 0.582902 0.05485 -1 2 -1 
7277 6 0.137808 0.669994 0.0765663 -2 -1 6 
8238 6 0.851786 0.647465 0.0527796 -1 -1 7 
7097 6 0.67872 0.688446 0.0217819 3 -1 -5 
6761 5 0.81499 0.716924 0.0486187 -5 -4 2 
7879 5 0.347738 0.716549 0.0402516 -1 -2 0 
8411 5 0.72115 0.712801 0.041544 -2 -4 4 
8542 6 0.798789 0.741681 0.0523304 0 -1 -5 
7834 5 0.021801 0.73933 0.0978295 2 4 5 
6296 6 0.145542 0.753538 0.0711196 1 -5 -5 
8907 6 0.401312 0.777684 0.0674654 3 -2 2 
7173 5 0.291491 0.766124 0.0747189 0 -1 7 
5205 6 0.291345 0.80966 0.0643053 0 -5 -1 
7624 5 0.340258 0.785285 0.0247347 -2 4 0 
5566 6 0.363085 0.886288 0.0576962 2 0 0 
8369 5 0.0769 0.9211 0.07719 0 1 -1 
7869 6 0.655815 0.857425 0.0170499 4 4 3 
6578 6 0.382876 0.935125 0.0479845 2 -6 5 
6634 5 0.407376 0.900046 0.0461072 1 -2 5 
7536 6 0.431699 0.940399 0.0102177 -1 -5 6 
5124 5 0.648116 0.935824 0.0375051 -7 -2 -3 
7348 5 0.0813483 0.939647 0.0443796 2 -2 -4 
8645 6 0.492169 0.917454 0.037423 1 0 0 
8232 6 0.734274 0.946956 0.0582212 -2 -2 -1 
5303 5 0.263656 0.97599 0.0495557 4 -3 -1 
7114 5 0.587307 0.951246 0.0227042 0 0 3 
8677 6 0.212914 0.000589487 0.0796917 2 3 1 
7184 6 0.371267 0.95917 0.0789426 0 -2 -3 
5290 6 0.487515 0.0109341 0.0783365 -1 1 4 
5983 5 0.933351 0.00555456 0.0752221 0 -2 1 
7004 6 0.905934 0.0131743 0.0382463 -4 1 -1 
5334 6 0.913923 0.0588224 0.0690676 -5 2 2 
5111 6 0.289805 0.105453 0.0755393 -1 1 -4 
6316 6 0.646917 0.120321 0.0773818 -3 1 7 
8384 6 0.813455 0.092391 0.0857932 -2 2 3 
6491 6 0.209971 0.10539 0.0878115 1 -2 0 
6265 5 0.273542 0.124246 0.112723 -2 1 -1 
8303 5 0.569391 0.0956397 0.0655231 0 2 5 
8170 6 0.983897 0.0737343 0.09924 0 -2 -2 
7924 5 0.152956 0.140613 0.0900498 3 4 1 
5569 6 0.00201015 0.124141 0.0887444 -2 3 0 
6462 6 0.950779 0.136584 0.0736907 0 2 4 
8651 6 0.0399882 0.182642 0.116269 2 -2 3 
8519 5 0.426486 0.168865 0.101942 -4 1 0 
7839 6 0.898629 0.178838 0.0637425 0 0 -2 
5522 5 0.397261 0.168458 0.0729884 0 0 1 
8627 5 0.566817 0.175911 0.071637 1 8 2 
5819 6 0.556673 0.196529 0.113894 2 3 0 
6816 5 0.87012 0.205388 0.0431257 -3 1 0 
7371 6 0.994578 0.221205 0.0888415 2 0 0 
6066 6 0.19153 0.214971 0.0988424 2 5 4 
7105 6 0.233354 0.245454 0.0967483 -1 0 2 
5807 5 0.752229 0.261197 0.073984 3 5 0 
7558 5 0.835937 0.263334 0.0926086 -1 -3 -1 
7037 5 0.541512 0.261525 0.0816551 -2 -1 1 
6129 6 0.883493 0.237122 0.0595256 4 7 2 
7194 5 0.0527052 0.317919 0.100715 2 2 2 
5971 5 0.788696 0.289116 0.0579097 2 -1 0 
7197 5 0.0346628 0.316031 0.0708597 1 -1 6 
8780 5 0.309759 0.334486 0.0761134 3 -1 3 
6828 5 0.767334 0.373989 0.0140838 -3 -2 0 
7690 5 0.881978 0.355669 0.0761311 -5 2 1 
5071 6 0.948806 0.296576 0.0473994 -2 -6 5 
6923 5 0.118506 0.405845 0.0881287 -2 0 2 
6955 5 0.142935 0.363785 0.0677647 1 -1 -3 
8657 6 0.148382 0.384609 0.106487 0 -2 -2 
8494 5 0.616371 0.380828 0.0864328 -1 -2 0 
5224 5 0.204776 0.382611 0.110738 -4 -4 1 
7476 5 0.289047 0.409603 0.0998233 -6 -5 0 
6473 6 0.820003 0.408104 0.0532529 4 0 -1 
6262 6 0.994241 0.427379 0.123778 6 1 6 
5329 5 0.147343 0.420438 0.0898355 -1 5 0 
5186 6 0.163894 0.437606 0.0783697 -2 1 -5 
6356 5 0.546867 0.377472 0.0627931 -3 3 5 
5395 6 0.749929 0.410142 0.0974435 -2 2 0 
7340 5 0.625268 0.464922 0.0899248 0 -1 1 
8732 5 0.612475 0.442183 0.0704513 -2 2 -1 
7055 6 0.741975 0.443325 0.0943834 -1 2 -1 
7452 6 0.168646 0.494953 0.0672392 1 4 4 
8528 6 0.335907 0.509397 0.0331486 -2 -2 2 
8450 6 0.777895 0.481187 0.0583925 -5 0 0 
5844 6 0.100202 0.5079 0.0509226 2 1 1 
5484 6 0.638976 0.492617 0.104815 3 3 0 
6740 6 0.160046 0.540807 0.0761335 4 1 2 
7141 5 0.0311859 0.552558 0.0821976 -1 -2 1 
6495 6 0.0926195 0.575693 0.0933034 -5 -5 -2 
7790 6 0.224812 0.61993 0.0723903 0 -2 3 
8011 5 0.0465718 0.628176 0.0618681 0 0 0 
8140 5 0.804671 0.597855 0.113636 2 1 -1 
6915 6 0.0488312 0.655105 0.0976953 1 -1 2 
6728 6 0.0971211 0.623424 0.0661159 1 -1 2 
5630 5 0.113866 0.66956 0.0917503 -2 -2 0 
7157 6 0.0618312 0.68953 0.105888 0 2 3 
8351 5 0.469034 0.64486 0.083241 3 -5 2 
5201 5 0.63894 0.655104 0.0664293 1 -2 -2 
6685 5 0.841678 0.671344 0.103215 1 2 -6 
7595 5 0.830944 0.648271 0.0780502 4 1 2 
8338 6 0.439896 0.69329 0.080132 2 1 4 
7084 5 0.650536 0.650805 0.115601 -1 -1 1 
8408 6 0.178511 0.692388 0.104161 2 0 -1 
6798 5 0.51765 0.691546 0.0899358 -2 -6 -1 
7848 5 0.53298 0.727379 0.0666945 7 2 4 
8557 5 0.788719 0.734456 0.092791 -6 2 6 
6743 5 0.0183993 0.766215 0.0852974 -3 0 0 
5388 6 0.0690872 0.755173 0.0808288 0 4 2 
6295 6 0.340673 0.767539 0.114114 -2 -5 1 
6585 6 0.0840987 0.826961 0.069875 2 4 4 
8821 5 0.556946 0.796856 0.065125 0 0 1 
5710 5 0.657685 0.814584 0.116837 0 0 -4 
6689 6 0.298701 0.852263 0.0415054 1 -2 1 
7342 6 0.464604 0.795075 0.113239 1 -6 -1 
5092 6 0.737417 0.814653 0.0758673 -4 -3 2 
7778 6 0.168494 0.833374 0.0898626 4 -6 -2 
7794 5 0.687304 0.894815 0.0578093 -1 -1 3 
8436 6 0.584973 0.893184 0.10415 0 -6 2 
5682 5 0.992665 0.918217 0.0767178 -1 2 -2 
6509 6 0.567875 0.970749 0.0735253 -2 2 -3 
8903 6 0.893129 0.906646 0.0491128 2 1 -3 
7012 5 0.521567 0.923663 0.100129 -1 1 -1 
8934 5 0.629142 0.961197 0.0662432 -2 4 3 
5683 5 0.772189 0.958726 0.0734361 6 0 -6 
7667 6 0.744856 0.940822 0.0815234 0 -7 0 
5396 6 0.84902 0.960562 0.103011 -2 -8 -3 
8664 5 0.606598 0.987806 0.0975672 2 -3 5 
8581 5 0.913811 0.980541 0.101698 3 -6 5 
5112 5 0.204733 0.0162665 0.112287 -3 1 0 
5488 6 0.507429 0.0117212 0.0973705 -1 -2 -2 
5106 5 0.753429 0.0486902 0.092996 0 -3 -1 
5929 5 0.502775 0.0256806 0.0653243 -1 4 3 
6157 6 0.20862 0.0203796 0.147177 3 -1 -1 
6522 6 0.996485 0.119138 0.119368 3 -1 5 
8784 6 0.412041 0.11981 0.0794104 0 2 -3 
8400 6 0.12108 0.135905 0.0957515 -3 -2 0 
8372 6 0.361493 0.130177 0.0655143 3 -2 -2 
5883 5 0.551586 0.176991 0.0557628 -1 0 3 
5076 5 0.432221 0.219394 0.111544 4 -3 0 
8464 5 0.977989 0.244488 0.0990199 -1 2 1 
7567 5 0.0280622 0.217159 0.149477 -1 -1 7 
6924 5 0.61375 0.256193 0.0717244 -1 4 -1 
6203 6 0.112194 0.200936 0.104291 -3 4 -2 
5367 6 0.259138 0.286675 0.113721 -2 -2 -1 
8685 6 0.137249 0.288807 0.0991305 3 -3 1 
7808 6 0.25438 0.266278 0.0929017 9 -1 1 
5009 5 0.882862 0.291916 0.0966685 -5 5 -2 
5441 5 0.416171 0.350295 0.104954 1 4 4 
6998 6 0.643457 0.262855 0.116757 -1 1 -1 
5122 6 0.707901 0.314438 0.111363 0 1 0 
7564 5 0.149502 0.361901 0.113655 -1 0 7 
8469 5 0.0775333 0.393612 0.105868 -2 0 0 
7198 6 0.548253 0.375455 0.0921225 0 3 -1 
6508 5 0.919351 0.33945 0.101032 4 2 7 
5794 6 0.992403 0.393149 0.111906 -4 0 4 
7199 6 0.0187636 0.370191 0.0757715 2 -4 0 
8569 5 0.351536 0.39241 0.126231 -1 2 0 
7658 5 0.395217 0.420859 0.101683 0 6 1 
7183 5 0.644008 0.417121 0.0739351 -4 -2 6 
6084 5 0.754395 0.344416 0.08107 -1 1 0 
7345 6 0.815366 0.415106 0.0929687 3 4 1 
5643 6 0.352611 0.43378 0.103434 -1 -4 -3 
7893 6 0.196182 0.519771 0.113407 6 1 -1 
6273 6 0.508392 0.459779 0.0785618 6 3 -1 
7360 5 0.818203 0.461886 0.112201 2 -2 0 
6493 6 0.300289 0.481867 0.11922 4 3 -2 
7416 6 0.459896 0.497956 0.119557 -3 2 0 
6143 6 0.886969 0.518933 0.126701 -1 0 0 
5264 5 0.414387 0.472757 0.148185 5 0 4 
7937 6 0.652424 0.508418 0.110514 -6 3 -3 
7709 6 0.15581 0.572449 0.123494 0 3 3 
8041 6 0.0485304 0.603923 0.0811659 -1 -3 -2 
7948 6 0.579955 0.522963 0.10936 -7 -1 6 
8399 5 0.0197313 0.578688 0.15805 -2 5 4 
8901 6 0.086917 0.574853 0.114261 1 2 -3 
8622 6 0.14858 0.579155 0.124671 -3 4 0 
6939 6 0.824485 0.590004 0.103582 -3 -3 3 
6555 5 0.997554 0.648742 0.0844092 -3 3 -1 
6667 5 0.194691 0.619442 0.0887664 3 3 1 
6647 6 0.611351 0.624842 0.0628326 -3 -1 0 
7398 5 0.746795 0.649832 0.111168 -6 -3 -3 
8101 6 0.830675 0.6676 0.140333 1 0 -3 
8562 6 0.0581209 0.696508 0.0808966 0 0 1 
8703 6 0.16218 0.747699 0.11244 -3 1 -6 
6895 6 0.213444 0.70615 0.115437 -2 -1 5 
8733 5 0.465177 0.710836 0.121252 -3 1 6 
5869 6 0.704921 0.735737 0.0735016 4 4 2 
6559 6 0.744532 0.73958 0.0958653 3 -4 5 
7146 5 0.404288 0.703411 0.104444 -5 -1 1 
8095 6 0.707917 0.75231 0.103342 -2 -1 3 
8265 5 0.336396 0.777236 0.124448 0 -9 -3 
6001 5 0.656496 0.792929 0.0984442 3 0 -2 
6074 5 0.888399 0.792838 0.0707949 0 5 0 
5196 6 0.892417 0.798101 0.0574558 0 -2 3 
5266 6 0.535259 0.832317 0.101255 0 -4 -2 
6635 6 0.52067 0.860939 0.104884 3 1 0 
8920 6 0.548447 0.819851 0.119958 0 2 -6 
8389 5 0.785812 0.855203 0.0896086 5 -3 2 
5796 6 0.781469 0.830213 0.101465 1 -2 3 
7077 5 0.244447 0.907391 0.101474 5 -1 -1 
6387 6 0.648647 0.947926 0.118241 -2 -3 2 
8949 6 0.557317 0.937681 0.101672 -1 -3 2 
5661 6 0.813166 0.944123 0.0858081 -4 5 0 
8752 6 0.0126523 0.00153084 0.110793 -2 1 -2 
7170 6 0.0784241 0.018411 0.142184 7 -3 0 
7473 6 0.523735 0.0149897 0.136595 0 -2 2 
8522 5 0.697374 0.0170733 0.125758 0 -3 3 
5211 5 0.0403273 0.0276972 0.119655 4 1 -1 
5667 5 0.351098 0.025692 0.114685 1 1 -2 
8613 5 0.587359 0.00107291 0.110423 2 -6 0 
7958 5 0.766459 0.0153857 0.117891 -3 -2 2 
8164 6 0.926266 0.0430888 0.113316 1 2 2 
7302 5 0.824954 0.0621826 0.125039 1 2 0 
5209 5 0.165984 0.072754 0.144015 1 1 0 
8227 5 0.694065 0.057824 0.0864812 -1 -5 2 
5225 6 0.732657 0.0949738 0.132017 -4 -1 2 
7742 5 0.312282 0.0865633 0.130963 -2 -3 0 
5218 5 0.375506 0.135447 0.103867 -1 2 -2 
5420 6 0.39522 0.118116 0.104757 -2 2 -3 
6520 6 0.416147 0.0913684 0.103183 4 0 -3 
6790 5 0.848052 0.107399 0.142457 2 5 1 
6261 6 0.954054 0.0863034 0.151232 1 6 -1 
6007 5 0.141464 0.0830475 0.106357 2 -2 2 
5966 5 0.844886 0.100545 0.140876 -5 -5 0 
8711 6 0.885546 0.137418 0.113137 2 -2 1 
7883 6 0.295607 0.106991 0.127675 -8 -6 -1 
5911 5 0.29011 0.172062 0.110954 3 -3 1 
6800 5 0.592248 0.182801 0.111196 3 -2 -3 
5423 6 0.658086 0.155386 0.112034 -1 3 1 
8354 5 0.806029 0.157853 0.141112 -1 -5 3 
7035 5 0.00150287 0.202118 0.129724 -4 -1 6 
6624 6 0.505237 0.167437 0.136965 -3 1 3 
8779 6 0.121034 0.230561 0.0908369 3 -5 4 
8964 6 0.786334 0.181994 0.181328 3 1 2 
7698 6 0.497764 0.209005 0.097648 2 -1 1 
8649 6 0.750429 0.242557 0.147826 -7 2 -4 
8133 6 0.126773 0.28869 0.155172 -4 3 2 
6073 6 0.092934 0.27044 0.103179 -1 -3 -1 
6357 6 0.0847854 0.281294 0.12297 -2 0 -3 
7914 6 0.449723 0.293523 0.109306 3 5 -1 
6231 5 0.719616 0.326488 0.131033 4 -3 7 
5113 5 0.795235 0.35916 0.136458 0 4 3 
8807 6 0.382531 0.359864 0.136797 -3 -2 1 
6050 6 0.812933 0.378048 0.149333 3 -4 0 
8782 6 0.872037 0.383307 0.109746 4 2 5 
6459 5 0.444953 0.400113 0.10302 2 -2 -6 
5788 5 0.899573 0.453939 0.118789 0 1 -4 
6990 6 0.933074 0.425878 0.134293 -2 -2 -4 
5383 5 0.383069 0.472817 0.13219 -2 -2 0 
5904 6 0.790145 0.476537 0.129098 -1 2 1 
7874 5 0.822787 0.499295 0.161664 1 0 -4 
5787 6 0.409558 0.541502 0.137012 0 0 -3 
7029 6 0.402174 0.531978 0.135293 -4 1 -2 
8105 5 0.707532 0.547712 0.109615 0 0 -2 
7583 5 0.769922 0.529549 0.132508 1 0 -1 
7278 6 0.945424 0.578776 0.141274 2 -2 5 
5129 6 0.174956 0.598804 0.132991 -1 -1 3 
8980 5 0.293967 0.614819 0.108158 -3 4 -1 
7305 5 0.204467 0.627904 0.125416 -1 -1 1 
6174 6 0.128934 0.680535 0.121525 -3 2 0 
5480 5 0.292669 0.66493 0.131962 -1 0 -4 
6114 6 0.693434 0.648723 0.130285 1 -2 -1 
5232 6 0.803474 0.717926 0.117075 0 -5 0 
7135 6 0.859614 0.731597 0.131221 -1 2 -1 
6467 6 0.902225 0.748169 0.100219 0 5 -1 
7009 6 0.940234 0.767964 0.132281 -6 -1 -1 
8629 5 0.10954 0.765542 0.120375 1 -3 1 
5585 5 0.262958 0.67652 0.121424 -1 -1 -2 
7902 5 0.397564 0.746929 0.152682 -1 4 -1 
8268 6 0.854328 0.736816 0.118631 0 0 1 
8783 6 0.859869 0.703397 0.129727 -4 1 4 
6954 6 0.296588 0.80647 0.149864 -6 3 4 
8525 6 0.367465 0.807065 0.114717 3 4 -2 
8149 6 0.26399 0.825777 0.105262 -4 4 -5 
5097 5 0.241733 0.835039 0.153921 2 2 -2 
8472 5 0.382749 0.901082 0.103704 -1 1 -1 
8890 5 0.597662 0.91732 0.128244 2 -2 1 
7875 6 0.280027 0.954539 0.130007 2 -4 -2 
7707 5 0.863384 0.937674 0.129632 -1 -3 -3 
8415 6 0.995077 0.979769 0.0873008 -3 1 -2 
6538 5 0.0892084 0.97739 0.118109 1 -4 2 
6910 6 0.551214 0.9828 0.117698 2 0 -1 
5610 6 0.972506 0.0321328 0.110955 -1 1 -1 
8361 5 0.45417 0.0258045 0.16057 0 4 1 
5805 6 0.898127 0.0553965 0.13944 0 -2 1 
6154 6 0.0688683 0.0504047 0.159024 0 1 5 
6808 5 0.0738838 0.0801739 0.174346 3 1 1 
7086 6 0.889928 0.0351063 0.140914 -1 0 -2 
5452 6 0.522075 0.0991374 0.12305 4 3 0 
8496 5 0.863242 0.0560768 0.138133 -3 -2 2 
7421 6 0.0400003 0.121553 0.142611 -3 0 2 
8349 6 0.142868 0.134165 0.14219 0 -4 2 
7873 5 0.565536 0.181791 0.134322 1 -1 -4 
8231 6 0.763721 0.131759 0.158744 -1 5 4 
8888 6 0.163769 0.187332 0.153328 2 2 1 
7831 6 0.339442 0.233795 0.17787 4 -2 2 
5616 5 0.603536 0.183028 0.187624 0 0 -2 
5302 6 0.631637 0.247745 0.179924 -1 3 6 
6671 6 0.653475 0.219534 0.179515 -1 2 -2 
7343 6 0.840525 0.238435 0.175557 0 1 6 
7275 6 0.278842 0.275864 0.172997 3 -5 -3 
6872 6 0.377822 0.275657 0.186288 5 0 1 
8428 6 0.593842 0.291657 0.13901 7 5 0 
7142 6 0.646274 0.237338 0.13343 -7 3 0 
5320 6 0.117386 0.303458 0.13045 6 4 1 
8497 6 0.618781 0.315289 0.151736 0 3 1 
8785 6 0.432798 0.372267 0.13027 1 2 2 
8479 6 0.91636 0.372227 0.142171 3 2 0 
7640 6 0.337549 0.382307 0.168308 2 2 2 
5425 5 0.142734 0.429399 0.198658 1 -2 -3 
6330 6 0.614469 0.418494 0.169065 -1 -1 1 
8917 5 0.660087 0.369365 0.173899 -2 2 4 
6364 5 0.607934 0.420043 0.133943 -1 -3 9 
8321 6 0.962386 0.384525 0.143034 -4 5 0 
7833 6 0.572397 0.458993 0.155372 3 2 3 
6384 5 0.0196698 0.46123 0.162045 1 0 0 
5118 6 0.943843 0.480603 0.165893 -5 3 8 
6150 6 0.108592 0.492736 0.116141 6 2 3 
8230 6 0.176619 0.50439 0.133414 1 -2 3 
8806 6 0.715459 0.53608 0.159236 0 3 2 
5586 6 0.657309 0.515987 0.155017 4 -6 0 
7260 6 0.932044 0.546448 0.116835 -1 1 2 
6932 5 0.117264 0.56828 0.113861 -3 -1 5 
5857 6 0.174589 0.563052 0.187718 -1 4 -8 
5231 5 0.249263 0.588698 0.157435 -2 1 1 
5286 6 0.0868633 0.583468 0.152518 4 -2 0 
7525 5 0.512186 0.588577 0.153792 -2 5 2 
6544 6 0.601944 0.612528 0.147625 -1 0 -6 
5400 6 0.252727 0.611532 0.160506 -1 1 4 
5759 5 0.306205 0.599469 0.163272 -1 -4 -3 
5948 5 0.448917 0.621589 0.175727 4 7 -1 
8374 6 0.0236609 0.632211 0.133816 -1 -2 3 
7471 6 0.5723 0.659839 0.157819 -2 3 -1 
8435 6 0.742765 0.650593 0.144837 1 3 1 
8599 5 0.832667 0.597344 0.133104 -3 2 2 
5387 5 0.235556 0.675776 0.172679 -4 -2 -1 
8904 6 0.308485 0.70497 0.17282 1 3 -1 
5374 6 0.948932 0.693653 0.162959 0 4 3 
8474 6 0.457129 0.819177 0.128966 0 -1 2 
6891 6 0.0583839 0.805854 0.127799 0 -2 -1 
8553 5 0.395561 0.824567 0.179748 1 -2 0 
5505 6 0.707271 0.817796 0.161555 -6 -3 1 
5992 5 0.750871 0.821382 0.158911 -1 -1 0 
7196 5 0.246835 0.844554 0.173561 -3 -1 1 
8580 6 0.282619 0.862911 0.138888 2 0 -3 
7362 5 0.916703 0.833725 0.15308 -2 0 -1 
8356 5 0.166731 0.878699 0.117488 -2 3 0 
5178 6 0.288614 0.867931 0.178247 -2 -4 4 
6461 5 0.334578 0.841874 0.134087 -1 2 2 
8167 5 0.330405 0.892286 0.19057 6 1 1 
5704 5 0.463681 0.897992 0.14974 -2 -3 3 
8373 5 0.775684 0.952902 0.183438 -4 -1 0 
5027 5 0.276292 0.939568 0.154128 2 1 -2 
8750 6 0.293073 0.95712 0.137123 -2 -1 -2 
8442 6 0.327027 0.993926 0.139399 -2 -4 1 
7942 5 0.519529 0.930963 0.161313 1 1 1 
5509 6 0.0896295 0.982736 0.167824 2 0 -3 
5882 6 0.557132 0.997178 0.162223 1 3 -3 
7940 5 0.902698 0.00414523 0.181322 -6 5 3 
5108 5 0.306346 0.047925 0.19533 1 -1 -3 
7030 6 0.372274 0.0398674 0.171535 0 0 1 
7695 5 0.67937 0.0220838 0.184107 -1 -3 2 
8119 5 0.547955 0.0789836 0.180519 -4 -2 -2 
8086 5 0.122966 0.0811416 0.171499 1 2 0 
6560 5 0.651013 0.075131 0.201644 0 4 -1 
5977 5 0.842376 0.0909223 0.180426 -3 -1 -3 
8333 5 0.50356 0.0971738 0.175818 3 0 -1 
8635 6 0.680428 0.155136 0.193647 -3 -2 2 
8517 6 0.394119 0.182056 0.179983 4 3 -4 
5031 6 0.249094 0.18687 0.147361 5 -3 -2 
8276 6 0.293666 0.192429 0.221625 -2 0 0 
8714 5 0.447345 0.18592 0.160176 2 -1 3 
6054 6 0.441407 0.191126 0.165561 4 3 2 
6880 5 0.204061 0.228466 0.163167 -5 1 0 
5318 5 0.294511 0.269854 0.209452 -5 -3 2 
7616 5 0.441865 0.228629 0.177526 1 3 8 
8713 5 0.932716 0.211201 0.185563 -2 1 0 
7954 6 0.975348 0.254415 0.138211 -3 1 3 
6102 6 0.290953 0.285767 0.186052 5 -2 4 
8277 5 0.47563 0.273773 0.142116 -7 -3 0 
8725 6 0.545897 0.286452 0.175543 -1 -3 0 
7992 5 0.323678 0.303764 0.168559 5 0 6 
7061 6 0.160497 0.350995 0.177717 -2 3 3 
8717 6 0.328301 0.364783 0.162474 -3 0 -1 
7911 6 0.873895 0.344236 0.170994 -1 0 1 
8860 6 0.0950574 0.336448 0.147573 -5 -6 1 
6169 5 0.306619 0.381539 0.167083 -2 2 3 
7605 5 0.951915 0.365163 0.174495 0 -2 3 
7307 6 0.0845958 0.406495 0.165739 2 2 1 
7437 6 0.163562 0.400451 0.208941 5 -4 -5 
8754 6 0.253002 0.404033 0.181 -1 -5 2 
7602 6 0.759139 0.402669 0.148273 2 3 2 
5207 5 0.0811923 0.414616 0.188891 2 -3 -2 
6646 5 0.29839 0.434488 0.152631 0 0 3 
7331 5 0.62334 0.460506 0.191212 2 4 -3 
5955 6 0.411011 0.487012 0.170994 8 -2 1 
6359 6 0.757729 0.478419 0.157149 -3 2 -2 
5238 5 0.695159 0.487276 0.15942 -1 1 1 
7039 5 0.00237101 0.485715 0.154042 -2 -4 0 
8162 5 0.0239424 0.494616 0.151344 0 -2 4 
6788 6 0.0686433 0.531084 0.166698 -1 0 0 
8948 6 0.289781 0.536235 0.19655 3 -2 2 
8021 5 0.054363 0.519376 0.172682 -1 5 2 
5919 5 0.0561994 0.552725 0.194427 2 3 -2 
7741 6 0.343738 0.516171 0.1554 0 -2 -2 
8706 6 0.540745 0.511714 0.17025 -4 -1 -1 
5350 5 0.701398 0.547753 0.16685 -1 0 -4 
5628 6 0.365558 0.552657 0.193375 -3 1 -4 
6847 5 0.457185 0.562663 0.191377 1 -1 -1 
8988 5 0.658623 0.546311 0.175116 1 2 -2 
6595 5 0.390971 0.577124 0.209173 3 1 -2 
8859 5 0.537304 0.62218 0.189078 0 0 -1 
7699 5 0.600183 0.617801 0.175818 -3 4 3 
5157 6 0.881713 0.583472 0.182789 3 -1 0 
6616 6 0.268562 0.61467 0.15661 -4 5 -2 
7226 6 0.935425 0.650385 0.193127 -3 5 0 
8347 5 0.719689 0.66467 0.137922 0 -2 8 
5435 6 0.640468 0.732902 0.179487 -4 3 1 
8660 5 0.402008 0.737608 0.173253 1 -1 1 
8899 5 0.481839 0.749284 0.184063 -4 -3 3 
6557 6 0.539019 0.750102 0.1743 5 -2 1 
5583 6 0.528737 0.654337 0.171654 5 6 -1 
7038 6 0.97261 0.683155 0.16792 -2 -1 4 
8134 6 0.982323 0.753655 0.189495 0 5 0 
5499 5 0.585255 0.754929 0.17003 3 4 -3 
6041 6 0.640406 0.783715 0.154856 1 1 2 
6739 6 0.000417147 0.808675 0.191392 -1 -2 0 
6696 5 0.101655 0.820919 0.20077 6 4 3 
7508 5 0.371646 0.801476 0.222099 -1 0 -1 
6445 5 0.899205 0.863762 0.147821 -2 6 0 
7328 5 0.712942 0.844131 0.167585 2 -5 -1 
5519 5 0.994915 0.872356 0.20886 5 3 -1 
6062 6 0.246682 0.895668 0.163972 0 -7 0 
6294 5 0.319141 0.900606 0.144696 -1 3 -4 
8822 5 0.366237 0.88182 0.171572 2 -2 -5 
5172 6 0.0939915 0.97549 0.168575 0 2 -4 
7281 6 0.743848 0.943423 0.157262 -1 2 -3 
8694 5 0.854845 0.907659 0.144768 -3 -2 0 
6259 5 0.0117335 0.94727 0.171758 3 3 2 
6093 6 0.817153 0.972055 0.159295 1 2 5 
5138 5 0.586627 0.992999 0.193082 -2 1 4 
8236 6 0.814369 0.99238 0.214488 -1 -1 6 
5460 5 0.13586 0.0346182 0.209401 -5 3 1 
8460 5 0.11617 0.042714 0.209554 1 -1 4 
8031 5 0.261969 0.0717371 0.216287 -2 2 7 
5564 6 0.306724 0.0442275 0.205068 3 2 2 
6490 5 0.742511 0.02873 0.186174 1 5 3 
8413 5 0.0154659 0.0765401 0.214419 0 3 -3 
6668 6 0.13977 0.0748432 0.197457 3 0 2 
8604 5 0.191844 0.0994959 0.222448 1 0 -1 
6622 6 0.852458 0.0444452 0.198351 -3 5 -1 
6529 6 0.2178 0.0975025 0.20979 7 1 0 
8200 5 0.443454 0.115141 0.185668 -2 -3 2 
5806 6 0.0781373 0.117389 0.16883 -2 1 2 
7836 5 0.148077 0.120617 0.2285 -1 -2 0 
7967 6 0.352213 0.150759 0.148981 1 3 0 
6804 6 0.72605 0.151982 0.195971 3 2 -2 
8573 6 0.870959 0.18566 0.193213 0 0 1 
6056 5 0.690003 0.176393 0.208051 3 0 1 
8239 6 0.00792907 0.205706 0.16356 -2 -1 6 
5457 6 0.0525386 0.195898 0.222387 0 -3 -5 
7580 6 0.40578 0.123176 0.208346 1 3 0 
8761 6 0.609873 0.19925 0.229442 -4 4 2 
5324 5 0.683873 0.213481 0.195214 1 2 -1 
7882 5 0.207714 0.256606 0.207222 2 -1 2 
8997 5 0.287277 0.227813 0.247552 3 1 5 
7720 5 0.274088 0.276151 0.213017 -2 1 -1 
5297 5 0.55351 0.301421 0.216356 -4 4 -1 
6786 6 0.879239 0.317704 0.174356 -3 5 -1 
7802 5 0.970806 0.288965 0.173178 -3 4 -1 
5032 5 0.340876 0.353499 0.213252 -1 5 2 
7045 6 0.884238 0.299459 0.23345 -1 3 -3 
5514 5 0.0598996 0.321591 0.171453 -1 -4 1 
6184 6 0.777563 0.353046 0.174561 -4 -1 -3 
6952 6 0.339292 0.366953 0.191334 2 0 3 
8805 6 0.697962 0.39675 0.18267 -1 -1 2 
6479 5 0.3462 0.396833 0.193819 2 2 4 
8924 5 0.0913806 0.434779 0.192096 2 -4 0 
8147 5 0.0771521 0.470684 0.219193 -1 4 2 
5217 5 0.615376 0.425563 0.165473 5 0 -1 
7346 6 0.639207 0.465787 0.227998 4 -2 5 
7775 6 0.923395 0.476326 0.211138 -2 3 -1 
7175 6 0.949692 0.470207 0.19486 -7 -3 1 
7870 6 0.236293 0.543859 0.173914 2 2 -1 
7578 5 0.3694 0.52594 0.192451 0 3 -4 
6446 6 0.409465 0.553491 0.215846 0 -1 5 
6574 5 0.472464 0.512134 0.150069 -1 -2 -1 