ITEM: TIMESTEP
20000000
ITEM: NUMBER OF ATOMS
9000
ITEM: BOX BOUNDS pp pp pp
-75 75
-75 75
-75 75
ITEM: ATOMS id type xs ys zs ix iy iz 
8942 5 0.719814 0.97956 0.01101 -2 3 0 
8702 5 0.2453 0.031902 0.0144567 3 0 -3 
5643 5 0.347892 0.0220105 1.00013 2 2 -3 
6779 6 0.774386 0.00885303 0.0187226 0 4 4 
5471 6 0.120463 0.0855373 0.00807937 -1 0 3 
7183 5 0.53527 0.0840734 0.0259992 2 1 -2 
8590 5 0.267811 0.0661574 0.00840713 -3 -5 0 
7716 6 0.379616 0.11048 0.00133439 -2 -2 -3 
6093 6 0.370618 0.0909277 0.0244592 0 -1 -3 
6646 6 0.971954 0.110288 0.019355 -1 2 2 
7655 6 0.135757 0.0981731 0.0202658 2 0 1 
7723 6 0.663707 0.167123 0.994615 0 -2 -4 
5990 5 0.263294 0.139195 0.00849127 -3 2 1 
8458 6 0.603245 0.178674 0.0224269 -5 4 -4 
5478 6 0.811959 0.146311 0.96323 4 -1 -7 
6522 6 0.909769 0.168608 0.00539722 1 -5 -4 
8511 6 0.0286276 0.147739 0.988468 -2 -1 -2 
8184 6 0.885367 0.18562 0.99254 -1 1 -4 
6819 6 0.168408 0.173837 0.0293612 2 -6 1 
8646 5 0.285717 0.213506 0.997798 1 -1 -2 
8391 6 0.97963 0.204472 0.000454125 0 0 0 
6734 6 0.0327004 0.233202 0.00337778 3 1 4 
6814 5 0.404624 0.243276 0.0391079 6 1 4 
8552 6 0.617082 0.225637 0.0134111 -1 1 -6 
6604 6 0.742351 0.248022 0.0458511 -4 0 1 
7729 5 0.919559 0.246144 0.992866 -1 -1 4 
5816 6 0.594965 0.231026 0.0590427 1 2 3 
8193 6 0.0122908 0.276311 0.986165 1 2 0 
6177 6 0.453014 0.296084 0.985195 0 -1 0 
7446 5 0.808558 0.294444 0.998348 -1 3 3 
7757 5 0.941515 0.280098 0.97239 0 -1 -5 
7897 6 0.99637 0.355622 0.974207 -3 -4 -3 
8371 6 0.477947 0.319728 0.983279 1 -8 4 
6275 6 0.732934 0.351334 0.0143495 5 2 0 
8669 5 0.261174 0.33128 0.0124602 -2 5 -4 
6302 5 0.378678 0.329322 0.00659768 5 6 6 
8713 6 0.411527 0.300024 0.0217684 -4 -2 1 
8526 5 0.13962 0.351282 0.9683 0 5 0 
7021 6 0.168411 0.372744 -4.72662e-05 5 1 -1 
5597 5 0.0340001 0.387419 0.0313057 -3 2 -2 
5074 6 0.0737352 0.374955 0.0100095 1 -3 4 
6764 6 0.165203 0.41908 0.0101846 1 -1 3 
5753 6 0.884705 0.399765 0.00603113 -1 2 0 
5286 5 0.159796 0.418533 0.0257068 3 -2 0 
7566 5 0.881266 0.439539 0.0415962 1 3 3 
6112 6 0.453673 0.443531 0.0133049 -3 -4 5 
7933 5 0.140708 0.49974 0.01364 2 -1 -3 
6525 6 0.374528 0.514108 0.00712035 0 3 -5 
5732 5 0.400938 0.509923 0.0105746 1 2 -5 
8195 6 0.129352 0.517554 0.0598912 -3 -4 4 
7527 5 0.515269 0.475353 0.980497 0 0 -1 
8182 6 0.418271 0.496526 0.0132339 -4 1 3 
5708 5 0.67968 0.545084 0.017462 6 -2 2 
7167 5 0.763042 0.53498 0.0301151 3 -2 0 
7685 6 0.0238288 0.514537 0.993075 1 2 -3 
7259 6 0.137061 0.57337 0.0293633 2 -2 0 
5314 6 0.289708 0.504297 0.050723 1 3 -3 
7029 6 0.370527 0.547579 0.0399527 -6 -1 7 
5130 5 0.422514 0.530429 0.0205274 -1 -3 4 
5253 6 0.453046 0.574773 0.0430639 5 0 -1 
7489 6 0.963447 0.560593 0.0389107 4 -2 2 
5391 5 0.66755 0.604183 0.0310682 0 1 0 
7840 5 0.664788 0.561385 0.0127041 -2 1 1 
5294 6 0.816666 0.540676 0.991779 -2 5 3 
7770 5 0.643404 0.609343 0.0375181 -1 3 -4 
6411 5 0.660951 0.591602 0.993436 -1 4 -2 
8923 5 0.807114 0.62347 0.0174512 -1 2 -3 
6930 6 0.0936194 0.61324 0.99152 4 0 -1 
6773 5 0.709554 0.615293 0.00391071 1 2 1 
7271 5 0.5853 0.666241 0.00727636 -1 -4 -3 
6432 6 0.411133 0.637452 0.00416967 -1 2 4 
7541 6 0.566811 0.616179 0.0565756 3 -1 1 
7629 5 0.775708 0.657108 0.982645 0 1 -3 
6047 6 0.131387 0.689926 0.998382 1 2 2 
8994 5 0.303735 0.683919 0.0132833 0 -4 2 
7351 6 0.361517 0.733292 0.00917901 -5 1 2 
8734 6 0.405001 0.696724 0.987573 0 3 -1 
6886 6 0.0361994 0.719981 0.00279576 3 -2 -4 
5569 6 0.501594 0.714625 0.0232114 1 -4 -1 
7584 6 0.525249 0.706233 0.991702 3 -2 2 
7712 6 0.124562 0.740367 0.0216367 2 -1 -4 
6637 5 0.21796 0.73085 0.00441275 -1 3 3 
6165 6 0.395316 0.721649 0.0124846 0 -3 -5 
8490 6 0.0893434 0.776101 1.00196 0 -1 3 
7544 6 0.153249 0.7678 1.00095 3 0 1 
6178 5 0.453412 0.751676 0.985125 0 4 -1 
7484 6 0.448578 0.772842 0.0537688 1 0 -2 
6754 5 0.927918 0.756239 0.0348833 1 -1 4 
6630 5 0.164082 0.791851 0.0419385 -1 0 3 
7006 6 0.515358 0.774095 0.026003 -3 3 -4 
8611 6 0.75976 0.841867 0.0549705 -3 -2 0 
6910 6 0.172951 0.845472 0.986601 1 -2 1 
6393 5 0.778539 0.840095 0.997933 4 2 -2 
7005 6 0.198414 0.838326 0.0402957 1 -4 3 
8594 6 0.0024696 0.814494 0.0250057 4 3 -2 
8868 6 0.163142 0.933921 0.0157308 0 -1 -1 
8592 5 0.347631 0.901979 0.035125 2 -2 0 
6817 6 0.327015 0.901075 0.00564421 5 1 1 
6450 6 0.759545 0.935521 0.0244485 -1 2 -1 
5003 5 0.778458 0.888691 0.0305956 -2 1 5 
6110 6 0.125913 0.947591 0.979192 -3 0 0 
6537 5 0.517755 0.93771 0.0200845 4 -2 -3 
5902 5 0.212321 0.988874 0.0174552 1 -4 -1 
6674 6 0.798154 0.947297 0.064658 5 2 0 
8394 6 0.516078 0.0116229 0.0300226 0 2 2 
8240 6 0.647946 0.990526 0.993847 -4 -3 -1 
8165 6 0.694664 0.981604 0.0328791 -1 3 2 
8110 6 0.0909391 0.98324 0.0593762 3 3 5 
5922 5 0.558658 0.0383623 0.0361933 -1 -2 4 
6231 5 0.0773849 0.0465469 0.0198411 -1 -1 -3 
5239 5 0.276624 0.0237483 0.0503494 -4 -2 -1 
5007 6 0.768393 0.046794 0.0380875 -5 1 -5 
7441 6 0.461945 0.0472965 0.0797495 4 -2 -1 
7632 6 0.657349 0.0678312 0.0550795 0 0 3 
6710 5 0.658958 0.086633 0.0513708 -2 0 -3 
5770 6 0.103479 0.0367543 0.0378363 0 -1 1 
5156 5 0.989036 0.0716755 0.0241716 0 1 2 
8026 6 0.569324 0.107082 0.0372398 1 -1 8 
7322 5 0.955309 0.0823436 0.0462771 -4 1 -4 
7562 6 0.433051 0.161015 0.00126431 3 2 6 
7579 6 0.435786 0.149926 0.0250856 -5 2 -3 
7008 6 0.816415 0.163499 0.0490626 2 3 7 
8104 5 0.906292 0.183343 0.036087 -8 0 4 
7219 6 0.167203 0.216904 0.0489525 -2 2 2 
5047 5 0.278148 0.254585 0.0214597 1 1 1 
5857 6 0.464509 0.26251 0.014155 -1 5 -5 
8752 6 0.339036 0.262778 0.0487078 3 3 -6 
6785 6 0.323114 0.25357 0.0374405 -2 -1 4 
5278 5 0.533428 0.288297 0.0673774 6 -2 3 
6530 5 0.701625 0.258955 0.0308643 1 -1 1 
7651 5 0.0897988 0.2589 0.0287901 0 -3 -3 
5457 5 0.344572 0.288078 0.0291999 5 3 2 
8954 5 0.616584 0.295653 0.0109194 4 1 -1 
7115 6 0.595015 0.360428 0.0522951 -2 0 4 
5001 6 0.905922 0.30973 0.0143619 -6 1 3 
7261 5 0.00426917 0.373968 6.42039e-05 1 2 6 
8686 5 0.364318 0.385657 0.0431082 2 0 0 
7966 5 0.224073 0.387648 0.0394499 -2 0 -5 
7773 6 0.211374 0.405332 0.0563932 3 0 4 
8874 6 0.0271866 0.469374 0.0672556 6 2 1 
6392 6 0.878447 0.482875 0.00867405 3 6 3 
7052 5 0.983522 0.500717 0.0683407 -6 -1 -2 
6415 6 0.638997 0.506421 0.0204822 3 3 1 
5641 6 0.371414 0.523813 0.00974181 1 -4 3 
8848 6 0.97582 0.554293 0.043675 -2 -2 -4 
5270 6 0.91681 0.559514 0.0587281 -2 -1 5 
5982 6 0.0900987 0.605711 0.00309381 1 0 0 
6406 5 0.782027 0.563201 0.0549389 -1 3 -4 
5372 5 0.132877 0.633217 0.062224 0 0 5 
5635 6 0.0765422 0.658281 0.00706159 -2 5 3 
8690 6 0.217937 0.693321 0.062245 2 -2 0 
5134 6 0.403794 0.72092 0.0413039 4 0 0 
8600 6 0.614529 0.720969 0.0601352 0 -7 3 
5980 6 0.102521 0.730133 0.0253711 -4 0 5 
7031 6 0.26798 0.718515 0.994778 1 -6 -2 
5455 6 0.806128 0.760734 0.992731 2 0 -4 
8793 5 0.279385 0.813088 0.014247 0 -8 -2 
8564 6 0.722745 0.815701 0.0316735 1 2 -1 
6565 5 0.421301 0.81082 0.0350347 4 0 -1 
6588 6 0.438857 0.833664 0.0491968 1 -2 2 
6645 6 0.683596 0.805003 0.0340044 0 1 2 
7856 5 0.66324 0.830257 0.994458 0 -3 0 
6126 6 0.975206 0.888225 0.04189 0 -2 0 
7410 6 0.367943 0.944116 0.0616337 0 -2 4 
7763 6 0.642298 0.91019 0.0103523 0 -1 -2 
6423 6 0.996698 0.938178 0.0393196 -2 0 1 
6702 6 0.77857 0.952363 0.0831839 0 -1 0 
5631 5 0.781958 0.953737 0.0208973 0 2 2 
5790 6 0.0515443 0.997364 0.0540646 1 -1 1 
8044 5 0.392694 0.00965263 0.994993 0 6 4 
5616 5 0.83463 0.996848 0.0501294 -2 0 -4 
5868 6 0.851392 0.963956 0.0282761 0 2 3 
5932 6 0.633814 0.986154 0.0256633 -1 0 2 
7010 6 0.0468399 0.0611128 0.055206 -1 3 -6 
8883 6 0.270936 0.00927622 0.0603657 1 0 1 
7743 5 0.493088 0.0615823 0.0606622 1 1 2 
8831 5 0.864092 0.0439807 0.0657927 0 3 -1 
8420 6 0.781221 0.0656965 0.0537612 -2 0 0 
6327 6 0.737664 0.0810366 0.0681221 -4 2 -2 
6693 6 0.0158143 0.0893999 0.0578156 0 5 2 
8466 5 0.999878 0.111098 0.061525 -6 -1 -1 
6436 6 0.177706 0.112586 0.0468511 -2 -1 -2 
5413 5 0.772315 0.160911 0.0198722 -2 -1 0 
6993 5 0.499717 0.108317 0.0367982 -3 2 1 
7684 5 0.196731 0.177574 0.0440715 3 -1 1 
7804 5 0.420333 0.158083 0.0613952 4 -3 2 
7594 6 0.494995 0.166473 0.0620936 -1 0 8 
7279 6 0.0448167 0.178792 0.0474072 2 3 -1 
7485 5 0.368322 0.279587 0.0761503 4 2 5 
6728 6 0.61629 0.274289 0.0656406 0 2 1 
7007 5 0.598627 0.311 0.0566543 6 -2 10 
8386 5 0.948631 0.316655 0.0171877 -1 -1 7 
6934 6 0.46239 0.331635 0.102088 -4 0 0 
5739 6 0.632584 0.38775 0.0519017 -3 1 2 
5424 5 0.768241 0.36704 0.0640773 -2 1 1 
8745 5 0.325116 0.395931 0.0404016 -6 0 5 
7228 5 0.638362 0.395527 0.00360763 2 -5 1 
6374 6 0.150775 0.468057 0.0455887 2 1 0 
8521 6 0.828079 0.403996 0.0439362 0 -1 5 
7289 6 0.831624 0.405862 0.116485 1 0 0 
7646 5 0.620804 0.43793 0.057513 -5 -1 -8 
6662 5 0.672761 0.454134 0.0738371 1 4 2 
5193 5 0.981522 0.438389 0.0684832 1 0 -5 
5669 5 0.059028 0.444843 0.0566296 -3 -2 -1 
7640 6 0.404048 0.47649 0.0722832 1 4 -2 
5196 6 0.689112 0.48493 0.0683685 -1 -3 0 
7361 5 0.0192915 0.506282 0.0522782 4 0 -3 
8164 6 0.696258 0.491923 0.109747 -3 3 -3 
5366 6 0.282838 0.539426 0.0730666 0 3 -4 
7529 5 0.63973 0.492482 0.0350657 1 -1 4 
8062 6 0.283667 0.540289 0.0599803 0 1 3 
8993 5 0.387194 0.522789 0.0732025 4 0 1 
6421 6 0.809177 0.50903 0.093028 -2 -1 1 
5442 6 0.900499 0.525895 0.0793919 -1 2 3 
7486 6 0.935623 0.526448 0.0588002 0 1 1 
8253 6 0.15976 0.589758 0.0619752 -4 -1 2 
7383 5 0.229666 0.520287 0.0178027 -7 -6 0 
5488 5 0.147817 0.579092 0.091486 1 1 5 
5345 6 0.52271 0.588736 0.0651336 0 7 -1 
5772 5 0.327609 0.654516 0.0196015 -2 2 -1 
5783 6 0.168128 0.625181 0.0471515 -2 3 -2 
8048 5 0.238225 0.635339 0.0364964 3 3 2 
8565 6 0.876212 0.661065 0.102842 -2 -3 -1 
7614 6 0.501771 0.656349 0.0577924 0 -6 3 
7061 5 0.137759 0.730451 0.0586625 0 3 5 
7346 5 0.494136 0.708723 0.0275731 -4 0 8 
7315 6 0.507183 0.698355 0.0513689 5 3 0 
7881 6 0.711208 0.69679 0.0855546 -6 -2 1 
5782 6 0.948798 0.713616 0.0370585 1 0 3 
6731 6 0.220494 0.769401 0.0638637 4 0 -2 
6781 6 0.284452 0.803684 0.0190619 3 -4 0 
7342 5 0.98772 0.763232 0.997322 -4 -1 0 
8680 5 0.98385 0.783289 0.0709791 0 1 2 
5515 5 0.496858 0.748793 0.0313703 -1 2 3 
6210 6 0.882645 0.793833 0.0555459 -9 -2 5 
6153 6 0.348365 0.822548 0.0578887 7 2 5 
5029 6 0.489365 0.818036 0.0885202 6 3 2 
5696 6 0.0163812 0.810199 0.0855862 2 -3 -4 
6342 6 0.398171 0.866499 0.0545747 0 -6 2 
6023 6 0.630924 0.909946 0.0597837 0 0 6 
7136 5 0.638036 0.868845 0.068522 2 -6 1 
6501 6 0.252862 0.908037 0.0392007 3 4 2 
6573 6 0.702831 0.916264 0.0926238 -2 6 -1 
5110 5 0.976281 0.937873 0.0300873 2 0 2 
8688 5 0.605121 0.980395 0.0634209 0 5 -3 
8256 6 0.663375 0.940848 0.0576544 -4 -4 -4 
6286 5 0.645177 0.971376 0.076362 -1 9 8 
6559 5 0.669324 0.00898899 0.0600803 -1 -1 -1 
7984 6 0.229434 0.0396673 0.0427272 -1 3 5 
6815 5 0.767479 0.0294664 0.0835062 -2 3 1 
8043 6 0.707061 0.0613846 0.0949491 -2 -1 -4 
7861 6 0.0133494 0.0489461 0.0475209 8 0 2 
6962 5 0.673741 0.0986704 0.0562028 -4 1 6 
8346 6 0.520927 0.0953249 0.0268791 -7 -1 1 
8181 6 0.869244 0.097244 0.117308 -5 -1 0 
8750 6 0.921872 0.131408 0.104061 2 4 -1 
5446 6 0.361398 0.15852 0.0530287 1 -1 -4 
8689 6 0.518377 0.147322 0.0821106 0 0 -1 
5706 5 0.235641 0.17031 0.0926194 0 -2 0 
8966 5 0.516542 0.167358 0.0709892 -7 0 12 
7332 6 0.473849 0.14332 0.075469 1 -4 4 
6057 6 0.683236 0.167218 0.0689288 0 -2 0 
6692 6 0.307779 0.192593 0.0705701 -6 2 -4 
5109 6 0.437622 0.187879 0.0961708 -3 -1 3 
6394 6 0.88596 0.194625 0.0339656 -3 -1 0 
5284 6 0.946346 0.184531 0.0756948 -6 2 3 
5825 6 0.264315 0.230154 0.0865197 -3 2 7 
7525 5 0.882283 0.252317 0.0386532 2 3 -4 
5693 6 0.164582 0.273317 0.086017 5 -1 -4 
7827 6 0.115905 0.320412 0.0681994 3 6 -1 
6798 5 0.187234 0.320489 0.0776643 -1 -4 1 
5718 6 0.76768 0.288754 0.0867649 1 -4 2 
6869 6 0.0838292 0.340909 0.08179 -1 -2 4 
7370 5 0.548334 0.348583 0.0928764 2 -1 1 
8523 5 0.578441 0.36548 0.081052 1 -1 -4 
8841 6 0.907783 0.374996 0.0848749 1 -2 -2 
6062 6 0.115656 0.412672 0.0736548 2 -5 2 
5094 5 0.580843 0.380723 0.0395041 -3 3 -2 
8758 6 0.689275 0.414645 0.0830721 -2 -4 2 
6402 6 0.698925 0.440291 0.0990742 2 2 3 
6083 6 0.160964 0.44861 0.0925182 -1 0 0 
7216 5 0.302564 0.456302 0.066734 -1 0 4 
7772 6 0.390708 0.437211 0.0972969 -1 4 -1 
5610 5 0.046039 0.44067 0.0798401 2 6 -4 
8830 6 0.0917778 0.498216 0.109138 2 3 5 
5935 6 0.312403 0.503857 0.098858 4 6 -3 
5392 6 0.68198 0.535097 0.0673334 -1 1 5 
7248 6 0.937872 0.471967 0.0686235 3 2 2 
7488 6 0.458184 0.575553 0.132765 0 4 5 
7524 6 0.724094 0.617645 0.0667605 -5 2 -1 
5970 5 0.141066 0.62537 0.0647863 8 -3 3 
8674 6 0.356991 0.600217 0.108402 -3 4 5 
7344 5 0.670566 0.607817 0.0694432 1 2 -3 
8297 6 0.758634 0.587023 0.115832 4 1 2 
7591 6 0.900245 0.588793 0.100454 3 0 0 
8780 6 0.381061 0.637895 0.0842038 -2 0 3 
6948 6 0.0344572 0.645792 0.0878975 2 -1 0 
6933 6 0.0872897 0.659286 0.0818343 1 -1 -5 
7746 5 0.305358 0.614585 0.0609513 -1 6 6 
6100 6 0.777429 0.638749 0.085165 -1 3 1 
8927 6 0.455805 0.681959 0.0689868 0 -3 -4 
8331 6 0.209003 0.740892 0.0668667 -3 0 0 
5939 6 0.645986 0.716233 0.0806093 -3 1 6 
8314 5 0.705325 0.738988 0.0669692 3 1 -2 
5523 6 0.122661 0.712424 0.0569443 -3 1 1 
7281 5 0.299474 0.803673 0.0322277 2 0 2 
8006 5 0.723398 0.780588 0.0354277 2 -6 -3 
6515 5 0.830399 0.832673 0.0963976 2 3 2 
5016 5 0.83404 0.836129 0.105939 -4 0 -2 
7164 6 0.716691 0.844316 0.0572633 -1 0 -5 
8115 5 0.0049542 0.89221 0.148914 3 1 -1 
8803 6 0.12165 0.923379 0.0957853 -3 -2 0 
8801 5 0.405053 0.849537 0.067851 -1 3 -2 
6746 6 0.984573 0.894886 0.0660173 3 -4 3 
7516 6 0.65895 0.924739 0.0616731 1 1 -5 
6808 5 0.148062 0.934698 0.0593225 -3 -3 0 
8882 6 0.686289 0.95228 0.0869431 0 0 2 
8974 5 0.127422 0.950799 0.0738618 0 0 1 
6228 5 0.642689 0.962948 0.0749807 -1 -4 2 
5266 5 0.942073 0.0307774 0.0514688 2 1 6 
7734 5 0.858292 0.0336989 0.0591025 3 9 2 
8317 6 0.369817 0.00266514 0.0566569 -2 -3 -1 
5506 5 0.822313 0.0270821 0.0967455 8 3 -3 
6744 5 0.0678014 0.1031 0.0953678 1 2 0 
6080 5 0.188703 0.0550064 0.0890013 2 -1 2 
5556 6 0.318944 0.0349304 0.0898603 1 -1 4 
6138 5 0.379722 0.0947148 0.112662 -2 1 -3 
6834 5 0.489766 0.0631783 0.0810288 -3 3 -2 
5254 5 0.183885 0.137353 0.0808073 -1 -1 0 
6876 5 0.575941 0.100519 0.113836 7 4 0 
8427 5 0.00720872 0.157615 0.10411 2 1 6 
7879 6 0.983698 0.190614 0.0782496 -5 -8 2 
6852 5 0.629432 0.21793 0.109772 3 -4 0 
6979 6 0.673638 0.166186 0.0925113 3 4 4 
6741 6 0.167813 0.216562 0.09652 4 -2 -1 
7762 6 0.680726 0.189288 0.0945631 3 1 -1 
7371 6 0.713619 0.211853 0.0783531 -1 3 -1 
7290 5 0.294493 0.252247 0.115181 -2 1 -1 
8761 6 0.517978 0.247168 0.0898324 1 1 0 
8886 6 0.654938 0.230232 0.0808469 -4 2 -1 
8498 5 0.757354 0.232489 0.131406 1 -1 3 
7599 6 0.698872 0.253143 0.116953 -3 4 -6 
5620 6 0.581473 0.265875 0.0838718 3 1 -3 
8910 6 0.644167 0.287065 0.121687 -1 0 3 
5179 6 0.763466 0.315021 0.121381 1 4 4 
7253 6 0.932928 0.281206 0.0716063 1 -1 -1 
8410 6 0.16676 0.307291 0.120015 1 3 1 
5838 6 0.442492 0.334667 0.0970482 2 1 3 
6449 6 0.43264 0.317495 0.0620307 -9 1 -3 
5907 6 0.632761 0.312931 0.0571237 1 0 -1 
8083 5 0.678369 0.310379 0.13183 1 2 1 
6664 5 0.747016 0.278871 0.0861119 -4 3 3 
7116 5 0.867233 0.314022 0.107497 1 -3 -3 
5410 5 0.987669 0.339182 0.106428 2 -2 -5 
7212 5 0.109647 0.314201 0.0906733 1 0 2 
6453 6 0.150521 0.360642 0.122162 0 7 4 
5114 5 0.905667 0.34155 0.100095 2 -2 0 
8905 5 0.952482 0.37298 0.102105 -3 -6 -1 
6893 6 0.142754 0.388858 0.10189 1 2 1 
8118 6 0.908985 0.380952 0.100836 -2 1 5 
6580 5 0.0818863 0.488568 0.0834386 2 0 -2 
8473 6 0.259452 0.438412 0.110962 0 1 1 
8997 6 0.245198 0.468312 0.109735 3 -2 0 
5951 6 0.736119 0.455135 0.0986982 3 -4 2 
7504 5 0.306417 0.473866 0.0884138 -2 -2 -2 
8950 5 0.638357 0.487025 0.106207 1 0 3 
7229 6 0.0101115 0.498372 0.113642 -2 6 -2 
8144 6 0.37258 0.512189 0.0911202 6 0 -1 
5538 6 0.267154 0.491605 0.1297 0 6 1 
7257 6 0.291999 0.559656 0.116639 2 3 -1 
8834 5 0.790541 0.522973 0.145075 -1 3 -2 
7053 6 0.569973 0.531037 0.108802 -5 0 -1 
5582 6 0.149644 0.586523 0.091655 -2 -4 0 
7455 5 0.817122 0.569346 0.104365 1 -3 7 
5971 5 0.820785 0.550274 0.118206 0 1 -1 
7464 6 0.310482 0.573804 0.109129 -5 3 0 
5701 6 0.818805 0.576963 0.0908194 3 2 1 
8160 6 0.146146 0.659939 0.0604505 2 6 4 
7681 5 0.443062 0.673189 0.117067 -1 4 0 
5763 5 0.282092 0.687614 0.111406 -3 -3 -3 
5313 6 0.278752 0.755019 0.115481 1 1 -4 
7790 5 0.392951 0.739717 0.130788 -5 3 3 
6675 6 0.900854 0.71477 0.0906813 0 0 -2 
8619 6 0.926056 0.74611 0.144946 2 0 3 
5399 6 0.0677486 0.834862 0.0902082 3 1 -1 
6310 6 0.100222 0.792129 0.123002 1 3 3 
8102 6 0.0471537 0.837933 0.0903276 -4 -1 -3 
7112 5 0.498678 0.835986 0.104713 -4 3 0 
5454 5 0.594502 0.827248 0.060367 0 0 1 
6387 6 0.289772 0.855739 0.0862964 -1 -1 0 
8090 5 0.488865 0.850182 0.0931368 2 -4 5 
7223 5 0.758097 0.886493 0.120744 -3 -2 1 
7568 6 0.0963636 0.887632 0.070848 4 1 0 
5389 6 0.349299 0.910478 0.101054 -4 -4 2 
5661 6 0.895637 0.918953 0.0839585 2 -2 -4 
7502 6 0.0941903 0.96249 0.0901198 1 1 4 
5933 5 0.0512329 0.984445 0.113705 1 -3 3 
8282 6 0.226361 0.965746 0.131443 -2 5 -1 
7932 6 0.679047 0.96276 0.0994506 -8 1 -3 
5282 6 0.0178573 0.983632 0.129766 -4 -1 2 
6783 5 0.428871 0.0773739 0.13304 1 1 -1 
8607 5 0.407778 0.0319328 0.0758882 0 2 -3 
5005 5 0.757702 0.0218437 0.126343 0 3 -7 
7732 5 0.166286 0.0538211 0.116331 -3 1 -2 
5218 6 0.324648 0.0321859 0.1212 -3 -5 1 
8578 5 0.28855 0.0663234 0.103455 2 0 0 
7475 6 0.967303 0.0582602 0.113079 0 -2 3 
6255 5 0.225216 0.0722522 0.135036 -3 2 0 
8157 6 0.517705 0.091105 0.0996578 2 2 0 
8872 6 0.818695 0.131456 0.146494 -2 3 1 
6498 6 0.122687 0.107936 0.143169 0 5 1 
5575 5 0.467059 0.109417 0.136869 1 2 -1 
7490 5 0.816921 0.109116 0.135974 1 3 7 
7357 5 0.229129 0.13483 0.109823 -1 -6 2 
8493 5 0.484985 0.17143 0.159752 6 -2 -7 
8050 6 0.49128 0.180885 0.108637 -4 3 -6 
8052 6 0.751135 0.149773 0.0921396 4 2 4 
5186 6 0.245809 0.176098 0.120043 -2 0 2 
5769 6 0.170342 0.248211 0.120477 -3 7 -3 
5675 6 0.150432 0.185209 0.129198 -3 7 0 
6039 6 0.0553561 0.260972 0.133868 -4 2 1 
5493 6 0.831626 0.235203 0.135686 -5 -5 2 
8159 6 0.961483 0.216773 0.126518 4 4 6 
5331 6 0.280311 0.269174 0.112235 5 -2 1 
5131 6 0.650521 0.259586 0.159039 0 3 -2 
7318 6 0.755968 0.261982 0.123846 -2 3 -3 
7018 5 0.868794 0.248143 0.0505541 0 -9 0 
7111 6 0.964711 0.280444 0.0932363 0 1 -5 
6572 6 0.288488 0.315833 0.154567 1 0 8 
7786 6 0.528593 0.302859 0.111783 -2 0 4 
7072 5 0.518128 0.275149 0.131266 0 1 0 
6519 6 0.661686 0.340058 0.134238 -3 1 0 
5312 6 0.497416 0.319009 0.134045 -3 5 -2 
8281 5 0.50779 0.344171 0.178722 0 0 -2 
7386 6 0.614215 0.357594 0.118721 -1 2 0 
5473 5 0.992165 0.379298 0.110808 -3 -6 -1 
8833 6 0.355577 0.397627 0.0951024 1 3 0 
7294 6 0.614563 0.42273 0.12287 -1 -2 2 
8746 6 0.455183 0.4555 0.0815753 2 0 0 
7141 6 0.74143 0.471202 0.116347 -2 -1 -4 
5164 6 0.222585 0.480346 0.157684 1 -3 3 
7440 5 0.437778 0.454033 0.102686 0 -3 4 
6375 5 0.00549889 0.453769 0.110446 -3 3 -2 
6287 6 0.21681 0.516871 0.117943 0 4 -3 
7251 5 0.2962 0.484841 0.125192 -5 0 -2 
6101 6 0.0732375 0.535585 0.117305 -2 -2 -2 
7077 6 0.709676 0.488147 0.117142 0 -2 1 
5815 6 0.743726 0.515079 0.157429 1 -4 3 
8017 6 0.820885 0.519723 0.105027 5 2 0 
7942 6 0.891634 0.569581 0.11333 -1 -4 0 
6220 6 0.975274 0.539674 0.125395 -5 5 0 
7333 5 0.209935 0.591509 0.0721002 -2 0 5 
7247 6 0.345312 0.56622 0.129059 5 -5 3 
6714 5 0.334296 0.537966 0.120004 1 -2 -2 
8988 6 0.413193 0.54276 0.126412 2 1 -7 
7193 6 0.680526 0.561959 0.0998341 -2 2 -1 
7157 5 0.0278211 0.598581 0.151632 -3 0 1 
8279 5 0.056132 0.598725 0.125211 -5 -3 -2 
5535 6 0.137613 0.603763 0.143403 1 -4 5 
5106 5 0.664118 0.598152 0.160598 -1 -1 -2 
8042 5 0.878818 0.667975 0.0841385 1 5 5 
9000 5 0.952505 0.677333 0.137625 3 3 -1 
6825 5 0.774801 0.705401 0.166984 1 -4 1 
7643 6 0.107165 0.730005 0.111789 0 -2 -2 
6354 6 0.200824 0.752313 0.139971 0 6 -1 
8021 6 0.235478 0.739953 0.129251 -1 -1 2 
7558 6 0.103418 0.760166 0.0948257 1 -1 0 
6253 5 0.294216 0.772594 0.137832 -6 5 1 
6010 6 0.328955 0.771442 0.138404 2 0 6 
7554 5 0.54891 0.796144 0.134575 1 -2 4 
8345 6 0.802603 0.803985 0.116461 1 -1 4 
7442 6 0.238742 0.842 0.119952 -1 2 -4 
5208 5 0.532665 0.808731 0.138734 3 3 2 
8774 6 0.175099 0.837786 0.155971 5 0 3 
7209 6 0.6655 0.864856 0.10412 -1 5 -5 
6082 5 0.869554 0.857403 0.1179 -3 2 0 
7227 5 0.171467 0.856995 0.129825 -1 -5 6 
8376 6 0.278069 0.868575 0.115619 1 -4 3 
7581 6 0.389959 0.907404 0.12286 2 -3 1 
6124 5 0.455702 0.917312 0.120279 2 -3 3 
6007 5 0.0273204 0.911497 0.123078 -1 -2 1 
7735 5 0.0668939 0.914295 0.113307 0 -2 2 
6168 6 0.863385 0.950527 0.0749898 4 2 4 
5514 6 0.383016 0.983403 0.15658 4 -2 1 
7065 5 0.840988 0.996079 0.106237 -1 0 -7 
7130 5 0.87204 0.951434 0.0950558 -3 3 -2 
5096 5 0.051356 0.990239 0.144605 -2 1 8 
6927 6 0.108411 0.0489188 0.196276 -1 -1 1 
6274 5 0.39819 0.0215805 0.169035 3 1 -1 
5072 5 0.800678 0.0223699 0.13699 1 -1 0 
7580 6 0.951672 0.968828 0.143414 0 -3 -2 
7160 6 0.189852 0.0651271 0.13516 3 2 -2 
5147 5 0.296249 0.00817515 0.141139 4 0 0 
7027 5 0.334698 0.0286813 0.16346 0 -1 2 
5468 5 0.393994 0.0300647 0.156641 -4 -1 -2 
8586 5 0.421717 0.0222967 0.197362 -1 3 -3 
5055 5 0.996373 0.103643 0.118723 -2 3 3 
7929 6 0.619575 0.0501237 0.165653 1 0 -5 
5440 5 0.876227 0.0780296 0.158975 -2 5 1 
8738 6 0.968485 0.0775756 0.120163 -2 3 5 
7238 6 0.309728 0.108625 0.159339 3 2 8 
6997 6 0.592038 0.112912 0.122389 -1 3 -3 
8075 6 0.958962 0.141134 0.129909 1 5 3 
5584 5 0.494568 0.090996 0.155757 -1 1 7 
6538 6 0.0346995 0.155202 0.149737 -3 1 -6 
5063 6 0.32124 0.119109 0.166154 1 -7 -4 
8614 6 0.946523 0.173747 0.122458 0 5 0 
8116 6 0.19654 0.176985 0.127265 -1 -4 1 
6807 6 0.569774 0.208822 0.178369 0 -5 -1 
8776 5 0.821034 0.154666 0.161228 -8 0 1 
6919 5 0.987928 0.198936 0.171392 -2 2 -3 
6214 6 0.0293445 0.215229 0.139643 5 2 -4 
8260 6 0.456355 0.231257 0.190404 1 1 -1 
6300 5 0.505178 0.242716 0.130152 1 -2 -4 
8959 5 0.298813 0.268022 0.140776 0 -2 -2 
7949 5 0.51465 0.254503 0.116835 -1 3 0 
5996 6 0.785277 0.255313 0.132801 3 -3 3 
5563 5 0.956817 0.256286 0.158805 -2 1 -2 
8149 6 0.0901487 0.286594 0.155363 0 -1 0 
8807 6 0.370462 0.268539 0.144478 3 0 2 
8995 6 0.573544 0.293691 0.160732 -2 0 -1 
5652 6 0.7218 0.246382 0.129501 -3 6 -1 
8255 6 0.532931 0.315878 0.122074 2 1 0 
5204 5 0.641165 0.371648 0.151146 -3 -1 3 
6799 5 0.425654 0.340452 0.137362 0 5 -1 
5524 6 0.113515 0.33966 0.182081 1 -2 0 
8853 6 0.143804 0.372581 0.172201 0 1 0 
5956 6 0.329267 0.348314 0.183183 3 3 3 
6987 6 0.364505 0.377531 0.112226 3 2 -1 
6143 6 0.969663 0.42384 0.131937 -1 -1 -1 
5324 6 0.0514947 0.407736 0.150488 2 -3 0 
8402 6 0.113892 0.442529 0.124599 2 0 1 
8397 6 0.590451 0.41614 0.090275 -1 1 1 
8955 5 0.65275 0.456221 0.155242 -1 1 4 
5125 6 0.29935 0.448677 0.122075 -1 0 0 
8445 5 0.0788509 0.473354 0.147662 1 -6 1 
8506 5 0.547834 0.491186 0.144424 -1 -5 2 
6357 6 0.650562 0.528616 0.146955 -2 3 2 
8569 5 0.889278 0.509073 0.120565 -2 1 -1 
6944 5 0.760523 0.51341 0.118181 1 1 0 
8099 6 0.994278 0.578701 0.139878 3 -3 2 
8419 6 0.0935497 0.614155 0.165441 0 -2 0 
6514 5 0.312026 0.576362 0.127652 0 -2 -3 
8804 6 0.826724 0.553726 0.103719 -7 -1 1 
7730 6 0.283663 0.557478 0.144283 -1 4 2 
5084 6 0.430447 0.597723 0.11649 0 -1 1 
8826 5 0.734578 0.5898 0.157793 -3 0 4 
5142 6 0.0267732 0.67311 0.207357 5 5 1 
5469 6 0.350211 0.616405 0.142044 4 1 -4 
6459 5 0.0189214 0.667413 0.134305 -3 -1 2 
5071 6 0.690573 0.697826 0.133239 3 -2 3 
5038 5 0.826818 0.65154 0.155637 -1 -1 -5 
5526 6 0.468445 0.72483 0.14801 2 -3 -1 
7214 5 0.444212 0.715719 0.158983 0 -5 -2 
6564 6 0.918548 0.753948 0.15224 1 1 -3 
8019 6 0.242766 0.790127 0.127864 -3 -7 2 
5611 5 0.554946 0.770531 0.162977 2 0 0 
8599 6 0.683017 0.776877 0.134723 0 -2 -1 
8557 5 0.392963 0.793329 0.150961 1 0 3 
5640 6 0.0654057 0.815693 0.138543 1 0 1 
6587 6 0.259254 0.787822 0.15965 0 2 1 
6381 5 0.796047 0.81384 0.153827 4 4 3 
5260 5 0.789386 0.833624 0.188647 1 3 -1 
6367 5 0.432905 0.84445 0.104984 -1 1 1 
7126 6 0.188744 0.890726 0.12964 2 -3 -3 
5119 5 0.89701 0.914004 0.121183 -3 1 -2 
6582 5 0.150763 0.927825 0.144384 -2 0 0 
7312 5 0.227287 0.905075 0.181486 1 1 0 
7284 6 0.677927 0.912241 0.135088 1 -3 2 
6858 6 0.475628 0.932395 0.114205 -4 -1 -5 
8497 6 0.564758 0.936272 0.165826 3 1 0 
8866 5 0.671783 0.967858 0.15932 2 2 0 
6816 6 0.152499 0.0280313 0.1465 -3 4 -2 
7037 5 0.651178 0.968354 0.138913 2 2 1 
6873 5 0.72099 0.944665 0.192129 3 -1 -3 
6472 5 0.115453 0.0532184 0.167662 0 -3 4 
7991 6 0.047417 0.0127559 0.161004 0 1 2 
6984 5 0.179499 0.051012 0.170844 2 4 4 
6801 6 0.172886 0.0803683 0.157828 3 2 -1 
8359 6 0.238778 0.0227565 0.167923 3 -2 -1 
6598 6 0.880727 0.0357575 0.168717 4 -3 0 
5917 6 0.627048 0.105962 0.167147 0 1 -4 
5303 5 0.128425 0.0763032 0.162454 -4 2 1 
6701 5 0.0253715 0.0845669 0.181088 4 0 1 
5249 6 0.318201 0.12969 0.242316 -3 2 -4 
7998 5 0.858532 0.154378 0.163364 5 3 -2 
8661 5 0.322543 0.119002 0.139483 5 -4 2 
6642 6 0.923691 0.149119 0.194149 0 0 -2 
8023 5 0.118387 0.187971 0.181751 -2 2 -6 
5046 6 0.264074 0.192327 0.176717 2 0 1 
6540 6 0.414768 0.214789 0.133784 0 0 0 
5751 5 0.639612 0.210271 0.162966 0 -1 -3 
7636 6 0.905192 0.241017 0.188322 1 -1 -1 
6880 6 0.199465 0.270874 0.169453 -1 6 -7 
8034 6 0.937559 0.25452 0.15685 -2 -2 1 
5589 5 0.974005 0.208384 0.208592 -6 2 3 
8708 6 0.393756 0.271952 0.149098 0 1 1 
8389 6 0.748512 0.244554 0.199992 2 -2 0 
7114 5 0.435547 0.337044 0.181888 6 1 3 
5835 5 0.997274 0.306652 0.144257 0 1 -4 
5141 6 0.755723 0.323622 0.155049 2 2 0 
8318 5 0.368545 0.350549 0.182611 -1 -2 2 
6076 6 0.523712 0.305521 0.173852 3 -1 3 
5724 6 0.573489 0.342404 0.164693 -3 1 0 
5342 6 0.0443922 0.397417 0.178286 -3 -4 -2 
8984 6 0.812103 0.329718 0.227746 1 -3 0 
5618 5 0.254274 0.398751 0.172332 -5 -2 -5 
6218 6 0.76946 0.41885 0.179379 1 -1 2 
7313 5 0.199079 0.387892 0.193598 3 3 6 
6614 6 0.586977 0.469552 0.172598 -2 -3 -2 
7609 5 0.850662 0.455375 0.16808 3 -3 -2 
5307 6 0.481601 0.476511 0.189753 -3 4 -3 
7726 5 0.081598 0.485244 0.170345 -5 -2 -1 
6043 6 0.0811357 0.514338 0.17383 -3 2 1 
7090 6 0.0447161 0.563184 0.173354 2 -2 2 
5667 6 0.810844 0.492362 0.184995 1 3 2 
8087 6 0.213229 0.584964 0.17602 2 0 3 
5264 5 0.059989 0.59738 0.167027 -1 -4 -7 
6486 5 0.0864313 0.617681 0.153577 -3 0 2 
8403 5 0.60755 0.637996 0.177139 -3 -4 2 
5401 6 0.028485 0.65035 0.145699 -4 3 0 
5269 6 0.561907 0.684639 0.147056 -1 0 3 
7417 6 0.69788 0.729673 0.118684 -5 -2 2 
5965 6 0.989986 0.710679 0.188097 -5 2 3 
6749 6 0.258558 0.703439 0.162781 2 -1 0 
5021 5 0.233439 0.747619 0.20645 6 -4 -4 
6713 6 0.253898 0.70595 0.170773 -2 -7 0 
5340 6 0.390356 0.74581 0.216366 2 -2 6 
8207 6 0.925169 0.744365 0.182468 -2 1 -5 
6629 5 0.629602 0.813795 0.158673 0 0 -2 
5133 6 0.177169 0.796102 0.187826 0 1 3 
7653 6 0.146278 0.856411 0.192419 1 -6 -2 
5596 5 0.798977 0.789658 0.211255 -1 2 0 
8930 6 0.99046 0.813478 0.109959 -1 -3 -1 
8817 5 0.434613 0.821305 0.173989 6 -4 -2 
5786 5 0.0649414 0.911097 0.164427 1 2 6 
6531 6 0.276187 0.886209 0.161738 1 0 -2 
6666 5 0.697889 0.874065 0.158411 2 2 3 
7170 6 0.771507 0.907735 0.218153 -2 2 1 
6309 6 0.660885 0.897605 0.166896 2 -3 0 
6774 6 0.960973 0.834714 0.182539 -3 -1 1 
7775 6 0.985158 0.859495 0.184078 0 -6 0 
7177 6 0.167499 0.934784 0.139257 0 0 -1 
5362 6 0.0131239 0.973741 0.171049 2 -4 1 
5941 6 0.512609 0.945657 0.190453 -2 -2 1 
7943 6 0.727409 0.979647 0.191146 -1 -2 1 
7339 5 0.292854 0.970604 0.195039 -2 -3 4 
5591 5 0.599237 0.0573406 0.182956 3 -1 3 
6810 5 0.701118 0.0357477 0.179254 2 3 2 
8038 5 0.781183 0.0338336 0.19017 -2 -3 1 
8542 6 0.247078 0.0335294 0.194121 -1 2 -1 
8106 6 0.970649 0.0418008 0.235686 -3 4 -1 
5614 6 0.425912 0.0476794 0.151076 4 3 0 
5847 5 0.132444 0.0905169 0.16873 0 2 0 
6201 5 0.640163 0.103829 0.185009 6 -2 -2 
6199 6 0.361864 0.134681 0.181167 0 1 -1 
8315 5 0.378352 0.137713 0.183089 -4 -7 4 
6071 5 0.38127 0.150379 0.177486 -6 2 1 
6879 6 0.911888 0.132883 0.195283 -5 -4 1 
5565 6 0.227112 0.180655 0.182076 -4 0 1 
7237 6 0.589311 0.149435 0.207613 -3 2 -1 
8781 5 0.597639 0.183261 0.210675 0 2 1 
7121 5 0.966259 0.20043 0.194738 2 -4 -1 
5148 5 0.241772 0.179487 0.209734 1 1 -2 
5886 6 0.862816 0.175656 0.195589 4 -5 1 
7309 6 0.364308 0.205965 0.150373 3 -1 9 
7934 5 0.350689 0.235572 0.189485 0 4 6 
5863 5 0.177398 0.219392 0.244329 -2 -1 -6 
5305 5 0.220763 0.229689 0.202365 -2 -1 -2 
7969 5 0.596793 0.243702 0.134793 0 -1 2 
7375 6 0.70554 0.255981 0.2074 -1 -4 1 
8753 6 0.683376 0.247445 0.211985 0 -1 5 
7398 5 0.202529 0.243595 0.183021 -6 1 -2 
8829 6 0.393196 0.278836 0.209418 -1 -8 2 
6649 6 0.3617 0.282148 0.184329 1 -3 -2 
6187 5 0.39827 0.31448 0.156129 -3 -2 -1 
5771 6 0.776738 0.294586 0.226278 1 0 1 
6069 6 0.36566 0.336524 0.172924 1 1 1 
6624 6 0.899856 0.342923 0.1757 1 0 -1 
7908 5 0.59396 0.358685 0.206922 0 1 -1 
5952 6 0.691394 0.315502 0.230537 3 1 4 
5290 5 0.106534 0.405603 0.198949 9 0 0 
6492 6 0.68631 0.40818 0.165933 4 2 4 
7557 6 0.483235 0.354919 0.207138 0 3 -2 
8435 5 0.262063 0.411534 0.213209 4 -6 -1 
8122 5 0.808246 0.433025 0.18843 1 -2 1 
7958 5 0.294659 0.466095 0.191317 0 -3 0 
7945 5 0.468409 0.489042 0.175182 3 8 0 
8125 6 0.189422 0.520871 0.233184 5 -5 1 
6751 5 0.295031 0.510917 0.166628 4 -3 3 
6885 6 0.401773 0.469503 0.206482 2 6 0 
5630 5 0.679974 0.512291 0.167628 -4 -1 3 
7960 5 0.946679 0.481454 0.195435 1 1 -5 
5385 6 0.957646 0.553828 0.202411 -6 7 -3 
8522 6 0.428349 0.579391 0.198512 -4 5 0 
8305 6 0.697837 0.618983 0.182025 0 2 3 
7070 5 0.242569 0.63037 0.191942 1 1 6 
7764 6 0.780286 0.594407 0.17797 1 -2 -5 
5056 6 0.519073 0.693582 0.203284 -3 -1 -3 
7914 5 0.112642 0.64026 0.203001 -2 5 3 
8464 5 0.375027 0.681995 0.168989 0 2 3 