ITEM: TIMESTEP
20000000
ITEM: NUMBER OF ATOMS
9000
ITEM: BOX BOUNDS pp pp pp
-75 75
-75 75
-75 75
ITEM: ATOMS id type xs ys zs ix iy iz 
6632 5 0.433451 0.0361044 0.0344444 1 5 2 
6474 6 0.0987941 0.0697776 0.0332499 2 -4 3 
5215 5 0.801578 0.0602431 0.00742928 -5 4 -1 
7425 6 0.509888 0.175436 0.0190677 -2 5 2 
6178 5 0.362366 0.184432 0.0128176 1 6 4 
8005 6 0.474777 0.176704 0.98419 0 3 4 
5051 6 0.48925 0.160793 0.00613695 -4 -1 -2 
7811 6 0.935599 0.183865 -0.0032991 -3 -1 -5 
5654 6 0.00683176 0.192167 0.0247957 0 -4 -3 
7414 5 0.688577 0.23362 0.997458 4 -3 1 
8695 5 0.503648 0.25315 0.0172469 1 1 4 
8066 5 0.561598 0.263189 0.0213185 1 6 -1 
5872 5 0.0561433 0.305042 0.0160262 -8 -2 0 
5944 5 0.12212 0.276656 0.00818884 3 0 -4 
6992 6 0.492446 0.274254 0.985847 -3 1 0 
6838 6 0.690815 0.334081 0.027778 -4 -2 5 
7028 5 0.225919 0.310384 1.00131 -2 -4 1 
5284 5 0.392905 0.354648 0.00676958 -1 1 0 
7016 5 0.67881 0.348597 0.975328 -1 2 2 
7822 6 0.0458974 0.39167 1.00177 0 -4 6 
6752 6 0.253105 0.372153 0.0170558 4 0 3 
5295 5 0.42247 0.346245 0.059588 5 -5 -5 
7797 5 0.775229 0.358043 0.0085296 -7 1 2 
7297 5 0.158064 0.374928 0.0113428 2 -3 -4 
5455 6 0.983085 0.397677 0.0147968 -3 0 -4 
7127 5 0.129973 0.466409 0.000584034 -1 2 0 
5077 5 0.275992 0.44587 -0.00208088 1 -2 1 
6119 5 0.280346 0.414116 0.984977 1 0 0 
5312 5 0.121046 0.471121 0.0273925 0 1 3 
8097 6 0.829865 0.49063 0.0287704 -5 -2 0 
6816 6 0.167629 0.508274 0.987639 2 -2 -2 
5308 5 0.661358 0.493135 -0.00212793 -2 -2 6 
5050 6 0.484096 0.49644 -0.00079625 -2 1 0 
5612 5 0.76245 0.500116 0.0222182 5 -8 0 
6229 6 0.872279 0.491421 0.972843 1 8 -3 
6308 5 0.901355 0.5561 0.0176943 3 1 -5 
7763 6 0.0099242 0.540507 0.0159816 -2 1 1 
5759 6 0.369212 0.535298 0.0169686 4 0 -1 
8997 6 0.212463 0.577367 0.0237475 2 2 0 
7597 5 0.200499 0.617984 0.0231829 2 -4 2 
6980 6 0.754179 0.607135 0.994538 3 -2 -2 
8512 5 0.0609934 0.643651 0.00780156 -2 1 0 
6056 6 0.351333 0.599894 0.983228 5 2 -1 
6265 6 0.315215 0.594214 0.0351536 5 5 3 
8103 5 0.661854 0.636669 0.0313912 2 0 3 
7159 6 0.054767 0.614153 0.0125078 4 -3 -2 
7657 6 0.322657 0.669624 0.0401984 1 2 -3 
8834 5 0.557187 0.617725 0.0329183 1 0 1 
5292 5 0.446357 0.660298 0.993456 3 2 4 
6682 6 0.642646 0.695433 0.997678 0 -3 3 
7206 6 0.853261 0.727959 0.0035955 -4 -4 0 
8698 5 0.160373 0.718763 0.981097 -1 -5 -2 
5762 6 0.25885 0.725013 0.015491 1 -3 3 
7134 5 0.469031 0.690069 0.0361998 2 -3 0 
6783 6 0.996907 0.701945 0.980993 -2 -3 0 
7430 6 0.467094 0.721846 0.047956 2 0 -1 
6559 6 0.62086 0.749088 0.00576527 0 -1 -3 
6147 5 0.80552 0.745454 0.998021 2 2 1 
8164 6 0.135454 0.793334 0.0640153 3 -5 -1 
6708 6 0.813248 0.768936 0.991607 1 5 1 
8609 6 0.0239703 0.784137 0.0190098 0 -1 -1 
6014 6 0.909536 0.846277 0.0107051 -1 4 -1 
6651 6 0.927535 0.835058 0.992489 2 -2 -2 
6727 6 0.32166 0.870937 0.0207453 1 -2 -1 
5484 6 0.935838 0.87817 0.966728 -1 -2 0 
5738 6 0.149059 0.899047 0.0364507 -2 2 -2 
7496 5 0.121337 0.883834 0.989551 -1 2 -5 
5895 6 0.183267 0.924472 0.0307113 0 1 -2 
8444 6 0.282616 0.943352 0.989757 -3 -1 1 
6191 5 0.222464 0.932058 0.0272891 4 1 2 
7741 6 0.720644 0.958563 1.00123 -5 3 -3 
5182 6 0.112347 0.996256 0.0295451 4 -3 -10 
5781 5 0.200607 0.955533 0.0513819 0 2 2 
5426 6 0.915852 0.0423346 0.0318218 -5 0 2 
8227 6 0.428413 0.105335 0.0339384 1 -1 -2 
6921 6 0.0537489 0.106506 0.0692519 -1 -6 4 
5222 6 0.300085 0.117194 0.0526794 -4 0 0 
7042 6 0.685102 0.0879172 0.98675 0 1 1 
6811 6 0.522335 0.183202 0.0251301 -1 0 1 
7467 6 0.811419 0.123379 0.0148668 0 2 -1 
8259 6 0.558314 0.184215 0.0405724 -4 -3 4 
8597 6 0.642539 0.13815 0.0399709 -4 1 3 
5540 5 0.0355095 0.245343 0.0249944 2 -2 -2 
8758 6 0.366138 0.210859 -0.000922515 -2 -1 -4 
6916 5 0.623558 0.221613 0.016391 3 1 -1 
5145 5 0.853846 0.185426 0.0224409 -1 0 3 
6592 6 0.00143993 0.277729 0.0306625 -1 -1 -2 
6791 5 0.5339 0.218337 0.0179329 -6 -3 -1 
8647 6 0.529601 0.246667 0.0725136 0 1 -3 
6594 5 0.796952 0.189126 0.0251553 -4 4 4 
6661 5 0.655615 0.258361 0.0275251 0 0 8 
7498 6 0.68512 0.214575 0.0342423 -1 2 0 
6004 5 0.0268115 0.277268 0.067638 -1 -1 6 
5203 6 0.25068 0.239317 0.0289651 3 2 -2 
7462 5 0.431606 0.254576 0.0434339 0 -4 1 
8200 5 0.691437 0.271508 0.0337787 6 0 2 
6745 6 0.0604857 0.347911 0.00197836 -1 0 0 
8523 5 0.437098 0.3418 0.0223809 0 5 -3 
7405 6 0.740088 0.317822 0.0203978 -1 2 2 
5968 6 0.964818 0.364896 1.00351 -7 -2 1 
8377 5 0.482401 0.343766 0.0159695 2 -2 3 
8658 5 0.975276 0.385026 0.0372435 4 -4 7 
6285 6 0.176451 0.363771 0.0383175 3 3 -1 
6656 5 0.440215 0.407146 0.0290916 -2 1 -2 
8704 6 0.668812 0.418884 0.0050229 -1 -4 2 
5991 5 0.00433804 0.418948 0.0444397 4 -4 3 
5768 5 0.500468 0.460223 0.00760907 -1 1 3 
6683 6 0.765791 0.416387 0.0652082 -1 -2 3 
6388 5 0.0671635 0.449064 0.0478311 -5 1 6 
7645 6 0.640195 0.481596 0.05866 0 1 -1 
5613 5 0.566545 0.47208 0.0489245 0 1 -1 
7210 6 0.23189 0.53643 0.00688737 0 -1 2 
5194 5 0.191058 0.528564 0.0388573 0 3 -1 
7972 5 0.165125 0.527895 0.0736796 0 0 2 
7322 6 0.176049 0.613557 0.00593274 -4 2 3 
7132 5 0.0898122 0.63741 0.0387664 4 4 -2 
5276 5 0.550715 0.66615 0.0478342 -5 -3 1 
5310 5 0.641853 0.701949 0.0128306 -2 -1 3 
7245 6 0.0681302 0.663457 0.991454 -6 0 2 
8461 5 0.60941 0.686413 0.082106 1 -2 0 
6533 5 0.921302 0.7174 0.0292115 -1 1 3 
5580 6 0.180799 0.733656 0.0364836 3 2 3 
6013 6 0.224121 0.723899 0.00275829 0 -3 5 
8033 6 0.248432 0.824732 0.0432581 0 1 4 
8607 6 0.100036 0.833409 0.031453 -3 3 1 
6075 6 0.204561 0.864224 0.0259237 0 -2 -1 
7930 5 0.39062 0.832667 0.0611119 0 -6 1 
8031 5 0.872876 0.842391 0.0364399 1 1 1 
6278 6 0.697311 0.828196 0.0439486 1 -3 -2 
8432 6 0.801218 0.842822 0.0456199 -2 4 -4 
7707 6 0.399069 0.8383 0.0348599 -1 2 -3 
8699 5 0.798495 0.836173 0.99511 2 -1 0 
6344 6 0.26271 0.850318 0.00205704 4 -2 5 
6563 5 0.688068 0.892914 0.0330737 1 4 7 
6273 5 0.286056 0.969154 0.0523822 -3 -1 5 
7876 5 0.338559 0.933694 0.0251832 6 3 4 
8056 5 0.173105 0.948442 0.0345238 6 -2 7 
7595 5 0.315316 0.0132648 0.0716602 -1 -2 6 
6821 5 0.134724 0.0318575 0.107139 0 -3 -2 
8459 5 0.324769 0.062652 0.0533207 0 1 1 
6557 6 0.945305 0.0189671 0.0545977 -3 2 2 
8353 6 0.595061 0.0524323 0.0625028 0 2 4 
5344 5 0.330821 0.0391002 0.0386144 2 2 2 
7079 6 0.0208556 0.0790281 0.0909156 3 0 4 
8848 6 0.416124 0.0883539 0.0428208 1 2 1 
6492 5 0.733672 0.12871 0.0350428 1 -3 1 
8808 6 0.505887 0.105744 0.0947073 2 -2 -3 
7793 6 0.648224 0.127958 0.0689422 -2 2 0 
5187 5 0.0490006 0.168283 0.0549658 2 -1 5 
7007 5 0.0560932 0.167107 0.0308721 -2 5 0 
5209 6 0.114363 0.177027 0.0656361 -2 0 -3 
5969 6 0.117465 0.205726 0.0576217 -2 -3 5 
5797 6 0.544018 0.186345 0.0892103 1 -2 9 
8905 5 0.883008 0.170085 0.0524186 -3 3 -4 
5190 5 0.994992 0.165521 0.0308537 3 1 1 
8079 5 0.569576 0.302935 0.0613364 1 4 3 
5841 6 0.529867 0.224847 0.0451992 -2 4 0 
8414 6 0.427372 0.286334 0.035506 1 1 1 
6713 6 0.628159 0.271631 0.0510791 4 1 0 
5643 5 0.686608 0.308262 0.0909381 0 7 3 
8687 5 0.053037 0.285616 0.032876 2 3 -1 
5939 5 0.407203 0.378478 0.0637949 4 -1 4 
8601 5 0.565962 0.385782 0.0371332 1 2 4 
7484 5 0.583043 0.335454 0.0695046 0 -3 6 
6604 6 0.0807599 0.352635 0.98847 3 5 2 
8754 5 0.753376 0.342651 0.0815574 -3 3 -2 
6461 6 0.825379 0.358925 0.0750372 0 1 2 
6138 5 0.587055 0.446816 0.128606 -4 -2 -3 
7916 5 0.340635 0.440957 0.0669977 -3 -1 -1 
8828 6 0.566317 0.51981 0.052867 2 7 0 
8559 5 0.642118 0.499193 0.106892 -1 0 1 
8292 6 0.346041 0.539196 0.0513263 -1 -7 1 
7256 5 0.701291 0.534936 0.0305678 -4 0 3 
6855 6 0.113806 0.608329 0.0540374 2 3 1 
7069 6 0.256364 0.626934 0.0190619 2 0 1 
8746 6 0.387181 0.585724 0.0479084 -3 -3 -3 
8431 5 0.65597 0.570915 0.0268383 0 2 3 
6000 5 0.778924 0.547984 0.0453468 3 -2 1 
5196 5 0.785438 0.576857 0.0735999 0 4 -1 
5265 6 0.56574 0.642324 0.0364533 3 -6 2 
7377 5 0.0753498 0.691498 0.0966147 -1 -6 2 
7261 5 0.20924 0.684772 0.024563 -4 2 1 
8681 6 0.400063 0.682365 0.0343818 6 -7 -5 
8678 5 0.534155 0.70228 0.0230401 -3 -4 1 
6547 5 0.0482988 0.72525 0.0781459 3 4 4 
6862 6 0.967369 0.697837 0.00683876 0 -4 3 
6900 5 0.0141585 0.695624 0.0603708 -3 2 3 
5002 6 0.0546455 0.740448 0.0771713 2 -1 4 
5157 5 0.625382 0.706605 0.0733446 2 3 0 
6445 6 0.963155 0.724382 0.0394517 0 -5 4 
5446 6 0.281363 0.755577 0.049213 -3 4 5 
7358 5 0.947818 0.814693 0.0423645 -6 -3 4 
8975 6 0.620137 0.782822 0.0581968 3 -2 0 
6764 5 0.0779959 0.810223 0.0712776 3 0 -1 
8880 6 0.468112 0.794318 0.0746174 -1 7 3 
7446 5 0.327552 0.814093 0.0341263 -5 0 -7 
7637 6 0.393646 0.800968 0.0184433 1 -1 0 
7976 6 0.463544 0.827685 0.0183357 -2 -5 0 
6166 5 0.714762 0.851827 0.0790862 0 -5 2 
6751 6 0.743637 0.895389 0.0725971 -1 1 0 
5365 6 0.764331 0.868341 0.078575 -1 2 1 
6473 6 0.227802 0.858712 0.055357 -3 -2 0 
8755 6 0.766054 0.834842 0.0714976 1 1 7 
8116 6 0.629808 0.892068 0.0596898 1 5 -5 
8050 5 0.683168 0.920061 0.0281759 -1 -3 1 
7985 5 0.739513 0.933919 0.061145 -1 2 -1 
6788 5 0.799209 0.894805 0.0304494 -1 1 -1 
5748 5 0.962305 0.92907 0.0724439 3 -3 -3 
7422 5 0.16239 0.968754 0.118426 1 4 -1 
6101 6 0.657989 0.939795 0.0452865 1 1 2 
6256 6 0.350457 0.933789 0.0740253 2 -1 4 
5934 5 0.846771 1.00156 0.0669834 2 3 -4 
8243 5 0.496555 0.971175 0.0340889 3 0 1 
7300 5 0.618616 0.970234 0.0972164 -3 5 -3 
8261 6 0.214873 0.0539315 0.0605142 5 0 -5 
7229 6 0.88506 0.0491569 0.102521 2 -1 -3 
6997 5 0.0106838 0.0345912 0.0812901 -1 1 -6 
6878 6 0.0543333 0.0786139 0.0846289 -2 2 5 
5962 5 0.42106 0.0428733 0.0669975 -1 2 -5 
7026 6 0.595028 0.0383807 0.123979 -2 -1 -1 
6161 6 0.773272 0.0398735 0.0556244 7 -1 -1 
5168 6 0.962006 0.0279359 0.0713602 -1 0 2 
6537 6 0.127077 0.0843508 0.0968664 2 0 0 
8565 6 0.540199 0.096821 0.103271 1 4 3 
8113 6 0.0371725 0.141836 0.0961416 1 0 -3 
5646 5 0.60645 0.0741512 0.0854921 0 0 6 
6038 6 0.698715 0.115614 0.0880081 2 -1 2 
6072 6 0.347345 0.120382 0.0717454 -3 -2 3 
5676 5 0.592077 0.142156 0.0796989 0 3 0 
7669 5 0.0294368 0.0817739 0.0515758 2 6 -3 
7240 6 0.038782 0.162431 0.0854176 1 1 2 
8768 6 0.406161 0.155755 0.0546772 -6 1 3 
6029 6 0.707732 0.195146 0.09888 -1 0 -2 
8766 6 0.0143193 0.169234 0.0978734 -1 -1 -1 
5666 6 0.667203 0.172161 0.0716497 -3 0 1 
6778 6 0.805968 0.215752 0.0747677 -2 1 3 
5427 5 0.0839041 0.215489 0.111276 -1 8 2 
8216 6 0.445748 0.181213 0.0818866 2 0 2 
8372 5 0.978635 0.206627 0.0968787 3 0 2 
5786 6 0.3561 0.223064 0.0942682 4 -3 5 
8713 5 0.88093 0.234106 0.110949 -1 1 -3 
8075 5 0.374343 0.225158 0.0388147 0 5 3 
8383 5 0.511275 0.251919 0.0520061 1 4 -5 
7866 5 0.0448308 0.246689 0.0744784 4 4 -1 
6715 5 0.172038 0.266011 0.0700725 -5 5 2 
6720 5 0.725389 0.293366 0.0967278 -2 -2 -1 
8252 5 0.875809 0.326516 0.0692983 0 4 5 
7279 5 0.0160617 0.322741 0.092542 2 0 0 
6374 6 0.178625 0.294111 0.0585161 4 -4 3 
6300 5 0.761563 0.311584 0.120746 -5 6 0 
5337 5 0.231298 0.374556 0.0803901 -4 -3 -5 
8837 5 0.30082 0.351493 0.0911758 -7 2 -2 
8841 5 0.442468 0.392261 0.0850671 5 0 0 
8835 6 0.748939 0.35847 0.08635 -2 2 3 
8091 6 0.573655 0.408013 0.0541253 5 -1 0 
5690 6 0.638698 0.388941 0.0602033 2 -2 4 
6746 6 0.671415 0.431954 0.0326678 -2 6 1 
7277 5 0.720981 0.468713 0.0927436 3 1 4 
8532 5 0.747656 0.436077 0.0871027 -2 -2 3 
6250 6 0.864923 0.462634 0.0587555 0 2 6 
5263 5 0.594679 0.459364 0.0818659 2 -2 -1 
5128 5 0.842993 0.486281 0.108156 -1 0 3 
6545 5 0.487541 0.486684 0.10148 -1 1 1 
8895 6 0.215026 0.535276 0.0897308 4 3 1 
8483 5 0.404053 0.519768 0.124158 0 3 3 
5813 5 0.137848 0.541123 0.0623856 0 -3 -5 
6505 6 0.356865 0.527911 0.0893612 -1 1 2 
8012 6 0.373177 0.539047 0.118843 0 -2 -6 
7665 6 0.922809 0.539894 0.0809975 -4 -1 0 
5270 6 0.111962 0.559391 0.0533978 -1 1 -1 
6927 6 0.594005 0.565402 0.109944 0 2 1 
8774 5 0.916892 0.552693 0.048567 2 8 4 
8460 6 0.251994 0.563827 0.0974664 3 -2 2 
6290 5 0.700392 0.568197 0.0615276 -1 -1 1 
7787 5 0.771763 0.56044 0.0921311 -6 -1 2 
5552 6 0.190669 0.580105 0.047037 3 4 -3 
6104 5 0.531196 0.57422 0.0880734 3 1 3 
9000 5 0.767522 0.616801 0.0599644 1 9 1 
7158 5 0.818551 0.583785 0.0777817 0 -2 2 
6099 5 0.951149 0.608497 0.0823646 1 1 3 
6803 6 0.0700965 0.675238 0.0742476 1 -7 -2 
5286 5 0.297182 0.665561 0.096298 -1 3 1 
5810 5 0.4469 0.637318 0.0488133 4 6 1 
7186 6 0.566146 0.6371 0.0685009 0 1 0 
8752 6 0.781919 0.661892 0.0513229 -5 -3 6 
6944 6 0.341264 0.728126 0.0409879 -7 2 3 
5167 5 0.299 0.732585 0.109292 -2 0 -5 
8733 5 0.351786 0.692656 0.0858751 1 1 -5 
7545 6 0.370159 0.703683 0.0705531 -3 -4 0 
6270 6 0.235245 0.750667 0.0411059 5 1 -3 
7540 5 0.54009 0.743467 0.0857164 -4 1 2 
5981 6 0.904894 0.744527 0.0971368 -1 -3 -2 
6258 6 0.137837 0.783799 0.0739539 -2 1 0 
5560 6 0.841212 0.771095 0.0595558 1 -2 1 
6856 6 0.109907 0.835607 0.0664944 1 2 -3 
6379 6 0.283333 0.840268 0.0863746 -2 5 6 
5174 5 0.345207 0.863218 0.0860131 2 5 2 
8759 6 0.465002 0.784414 0.107521 -1 -3 -6 
8894 5 0.947536 0.836986 0.0348092 2 1 -1 
8974 5 0.539822 0.804045 0.0762444 0 2 6 
6215 5 0.658059 0.827305 0.0807857 -3 2 -2 
8771 5 0.775516 0.819824 0.0605361 0 -1 -3 
6441 6 0.843541 0.869192 0.107152 -2 -1 -1 
6133 5 0.112297 0.882084 0.0966629 3 2 5 
7191 6 0.386928 0.823098 0.0761293 1 0 -3 
8909 5 0.907304 0.896706 0.0726341 -3 0 2 
7057 6 0.589268 0.897423 0.0548429 4 1 -1 
7743 6 0.625378 0.911285 0.0821076 -1 4 0 
7402 6 0.859612 0.92567 0.0776218 -2 -5 3 
5008 6 0.123614 0.930658 0.0620615 -4 4 2 
8592 5 0.103611 0.96575 0.0742209 1 -2 -3 
5645 6 0.287132 0.96576 0.0870535 1 -3 -1 
7403 6 0.845601 0.952046 0.08141 -3 1 -3 
6010 6 0.866362 0.994976 0.107865 1 -3 -1 
7701 5 0.29799 0.999991 0.0719897 -4 -4 7 
6439 6 0.496613 0.968032 0.0512053 -2 -2 4 
6535 6 0.738376 0.979646 0.069084 -2 9 0 
6570 5 0.346483 0.00748242 0.0674227 4 2 -2 
6753 5 0.451528 0.976335 0.102339 0 -3 2 
8094 6 0.205353 0.0603516 0.0868031 -3 0 5 
6707 6 0.479979 0.0476276 0.0770623 -1 -1 8 
8690 5 0.0449571 0.0802285 0.0972136 1 0 4 
6398 5 0.213773 0.106375 0.114766 0 1 -1 
7555 6 0.272421 0.0816986 0.113002 -3 3 -1 
8804 5 0.722721 0.103607 0.0975824 4 1 3 
8120 5 0.347119 0.13038 0.122678 -4 1 2 
7911 6 0.731471 0.135133 0.111043 2 4 -1 
5245 6 0.664662 0.169706 0.101049 -3 -5 0 
5940 5 0.695722 0.162632 0.091479 3 1 7 
6530 5 0.817617 0.171109 0.0774176 -4 3 -2 
6827 6 0.870272 0.164198 0.0991969 5 2 1 
5247 5 0.0183973 0.165104 0.0871355 -1 -4 -4 
7187 5 0.0270952 0.127196 0.0975692 0 1 4 
6137 5 0.140728 0.209888 0.116721 2 6 2 
7692 6 0.276283 0.286138 0.058524 2 4 -3 
5943 5 0.709647 0.25452 0.0920839 3 4 2 
6964 6 0.234333 0.322562 0.0781738 0 -6 -5 
6696 5 0.278419 0.359412 0.116817 -1 4 4 
6143 5 0.592231 0.313917 0.0934256 -1 1 -4 
7749 5 0.67579 0.296781 0.124219 4 -5 0 
8525 6 0.730057 0.343531 0.0816821 2 5 2 
8037 5 0.821911 0.297516 0.1109 2 2 -6 
7464 5 0.777573 0.32699 0.105939 -8 -7 -1 
7219 6 0.596252 0.343825 0.0989807 1 0 4 
5515 6 0.96062 0.332277 0.108249 -1 0 3 
8911 5 0.131094 0.332674 0.131208 -2 2 5 
7949 5 0.241949 0.372537 0.0748465 4 3 -1 
6009 6 0.298337 0.363374 0.149189 4 1 2 
7915 5 0.949319 0.357391 0.0757524 0 2 3 
5329 5 0.158513 0.39233 0.109601 -2 -1 2 
7689 6 0.780626 0.410021 0.112799 2 1 -3 
5513 5 0.565194 0.421403 0.0967413 4 0 -3 
8849 6 0.96804 0.429188 0.0924684 -1 4 1 
7447 6 0.753677 0.455343 0.0767388 2 4 5 
5563 5 0.886415 0.479954 0.0784698 -2 -2 1 
6112 5 0.718542 0.443874 0.0782656 3 0 3 
8136 5 0.773073 0.482464 0.107462 5 2 0 
5619 6 0.182886 0.515323 0.0804055 -1 1 6 
5465 5 0.278485 0.464218 0.0951481 -5 6 -1 
6979 5 0.329271 0.471762 0.128842 0 0 -4 
5258 5 0.658686 0.56002 0.115179 2 -1 -1 
8923 6 0.480326 0.567728 0.127062 0 -3 2 
7213 6 0.210682 0.536501 0.119195 -2 -3 -3 
7773 6 0.731431 0.578622 0.108479 -1 -1 1 
8100 6 0.203189 0.602746 0.114719 -1 -2 2 
5165 5 0.273154 0.632672 0.149742 -1 -8 -3 
6874 6 0.73555 0.592763 0.100638 2 -1 3 
7453 6 0.916584 0.613381 0.0787637 -4 2 1 
7730 6 0.472223 0.606044 0.0670413 3 0 4 
7260 6 0.28579 0.650301 0.0741032 -2 -2 -1 
8144 5 0.725874 0.625919 0.044414 -2 4 1 
7067 6 0.936455 0.668228 0.0926174 2 1 -4 
8625 5 0.153549 0.6658 0.102191 -2 1 -1 
7094 5 0.393838 0.675174 0.11474 2 -3 -3 
8489 6 0.842825 0.704717 0.0806629 -2 3 0 
8572 5 0.967075 0.720003 0.125709 -4 -2 1 
5305 6 0.0350511 0.716355 0.1036 -4 -5 -1 
7827 6 0.308899 0.777364 0.0903554 -4 -6 0 
5162 5 0.875105 0.75596 0.105966 1 -3 1 
5242 5 0.108031 0.754658 0.0834648 1 1 2 
7680 5 0.993694 0.829698 0.118147 0 -6 1 
8574 6 0.492004 0.826234 0.13606 -4 4 4 
5232 6 0.489876 0.829753 0.0769674 0 0 4 
8840 5 0.987704 0.780044 0.101008 3 0 2 
8784 6 0.959985 0.832019 0.133492 -3 -4 2 
7973 6 0.250437 0.86724 0.117778 3 0 -3 
6167 6 0.263903 0.879205 0.114273 5 -6 2 
6002 6 0.590502 0.866851 0.130629 -5 0 5 
5704 6 0.607802 0.884949 0.0728373 1 -3 -1 
5819 6 0.689872 0.849272 0.064988 1 -1 -2 
7831 6 0.767689 0.891748 0.107122 1 -3 0 
5984 6 0.946331 0.90994 0.118083 1 -4 -3 
5462 5 0.246995 0.972704 0.157844 -3 -6 0 
7710 6 0.251642 0.92958 0.113216 0 -4 1 
8228 6 0.628614 0.951794 0.142584 -8 1 -3 
7667 5 0.801639 0.917702 0.0765695 0 5 -1 
5879 5 0.0284573 0.978136 0.106969 -2 3 5 
5083 6 0.871516 0.994887 0.0873279 -2 3 6 
8741 6 0.340121 0.119731 0.128558 4 3 -3 
6779 6 0.364284 0.0795858 0.109602 1 0 2 
6866 6 0.546199 0.075473 0.119571 1 -3 -2 
6067 5 0.484832 0.0239744 0.144929 2 -1 -4 
7135 6 0.591449 0.0951472 0.132012 -3 0 -3 
6605 5 0.956805 0.0898358 0.114811 -2 -2 -1 
7758 5 0.360381 0.130835 0.140259 0 3 2 
6785 6 0.517946 0.150631 0.147467 1 -4 -2 
8187 5 0.811457 0.166047 0.138379 3 -2 1 
8156 5 0.528015 0.210294 0.151389 -2 1 4 
8310 5 0.670916 0.196138 0.136666 -2 5 0 
6995 6 0.889387 0.216406 0.121304 2 3 -1 
8385 5 0.358885 0.272996 0.142359 5 -4 4 
6358 6 0.388681 0.295466 0.149123 -3 -4 1 
7854 5 0.957285 0.274588 0.0742582 -2 1 1 
5691 5 0.159441 0.295403 0.100092 -1 0 -1 
6802 6 0.275004 0.342119 0.137049 1 2 2 
6302 6 0.763289 0.320198 0.125889 -3 0 0 
6844 6 0.432264 0.307306 0.169102 -6 2 -2 
5068 5 0.331297 0.365733 0.107593 2 -2 -4 
7089 5 0.708354 0.345068 0.0945486 -1 5 -1 
8727 6 0.0624937 0.400746 0.188759 4 -2 0 
8994 6 0.144454 0.390944 0.148817 -1 -1 0 
6564 6 0.429289 0.420977 0.153077 4 4 -3 
7310 5 0.608636 0.380472 0.115913 2 1 0 
5888 6 0.967305 0.39946 0.117691 1 1 3 
6024 5 0.501446 0.47107 0.159381 -1 2 0 
7460 6 0.0320147 0.450031 0.106923 7 0 3 
6154 5 0.358038 0.484685 0.124229 4 -2 -4 
5293 6 0.498016 0.469814 0.138491 2 2 1 
5618 5 0.684934 0.479623 0.105766 -6 0 1 
7076 6 0.55046 0.541253 0.119037 -2 4 -2 
6496 5 0.491333 0.518037 0.158964 1 4 3 
6020 5 0.359287 0.543686 0.141998 7 5 3 
7533 6 0.61429 0.568729 0.124386 0 -2 1 
8068 6 0.646626 0.636483 0.129981 -1 1 -1 
6848 6 0.201477 0.634108 0.154507 2 -1 -1 
5124 6 0.973187 0.603803 0.156636 0 -3 2 
8464 5 0.0486906 0.669203 0.107817 -2 2 -3 
8590 6 0.294925 0.68257 0.162635 2 0 -6 
6125 6 0.532588 0.679064 0.11813 0 2 0 
5989 5 0.792221 0.671509 0.120289 2 4 -3 
7501 5 0.219116 0.765498 0.105073 0 -1 -2 
6092 6 0.325558 0.679232 0.101617 0 -3 2 
8991 5 0.751379 0.766312 0.119195 2 -3 6 
7549 5 0.823981 0.745841 0.124807 -1 1 0 
5706 5 0.680778 0.757916 0.11662 -2 1 3 
7308 5 0.723981 0.767634 0.141131 -6 -3 6 
5027 6 0.848719 0.768758 0.112605 -1 -1 1 
7328 6 0.456772 0.819278 0.0958016 -1 -3 0 
7197 5 0.778472 0.747399 0.123121 -1 -4 -4 
8671 6 0.822227 0.862708 0.148552 -1 2 -2 
8726 6 0.871175 0.817447 0.103531 -2 2 -1 
7449 6 0.174406 0.858555 0.0833042 -1 -2 1 
6514 5 0.159665 0.859764 0.112083 0 -4 1 
7563 5 0.34541 0.824023 0.109137 6 0 -1 
6901 6 0.151777 0.871176 0.114456 -6 4 -3 
6941 5 0.166841 0.877195 0.159865 1 3 4 
5960 6 0.388102 0.888521 0.12264 0 0 3 
5057 5 0.797802 0.878644 0.0996467 -2 2 1 
8732 5 0.900393 0.91018 0.112899 -4 0 1 
5791 5 0.0262436 0.933806 0.144218 -3 2 -2 
7008 5 0.195121 0.920412 0.118389 -5 -2 -4 
8603 5 0.80523 0.961392 0.088598 3 5 2 
6118 5 0.742325 0.00399618 0.14263 0 -1 3 
8861 5 0.112346 0.0474629 0.129215 2 4 1 
7590 5 0.993024 0.014962 0.171441 0 -1 -1 
8289 6 0.217983 0.0272145 0.131023 -1 4 3 
5442 5 0.262356 0.0466309 0.163232 -3 3 1 
8024 5 0.325871 0.0585871 0.128447 5 4 0 
6513 5 0.108227 0.0529369 0.145067 1 -5 3 
6639 5 0.695747 0.104604 0.139877 1 -1 1 
7616 6 0.644558 0.0535822 0.123064 -4 -2 2 
6560 5 0.087317 0.0899069 0.172351 -1 -6 3 
5687 5 0.78144 0.156068 0.161488 -5 1 4 
7207 5 0.64912 0.113997 0.1587 -1 2 -2 
7934 6 0.672954 0.119645 0.150379 -1 3 2 
8682 5 0.833999 0.0978053 0.16441 -5 2 3 
6892 5 0.905542 0.158641 0.166968 2 2 -3 
5420 6 0.491283 0.17462 0.186186 2 3 4 
8392 6 0.512665 0.157022 0.151396 0 3 2 
8672 5 0.288137 0.18894 0.141093 0 1 0 
7599 6 0.169296 0.208577 0.115807 5 -1 -1 
6836 6 0.58138 0.27669 0.146893 0 -1 5 
5885 5 0.943906 0.231663 0.120816 5 2 4 
8656 5 0.0512191 0.31013 0.175655 -3 -1 2 
7329 6 0.113688 0.275118 0.135008 -1 -1 2 
8416 6 0.399596 0.322305 0.159078 4 -3 0 
8309 6 0.862682 0.335427 0.14317 -1 2 -1 
8756 6 0.630897 0.36668 0.116404 3 1 2 
8041 6 0.206491 0.393844 0.153742 0 1 7 
8106 5 0.444008 0.418782 0.204074 -5 5 2 
5110 6 0.0166486 0.425168 0.174214 0 4 -2 
8352 6 0.399023 0.421362 0.177916 -1 0 -1 
7788 5 0.0942076 0.435413 0.172672 -3 -1 2 
7125 6 0.780879 0.424608 0.165553 -2 2 2 
7248 5 0.57379 0.458878 0.184346 1 -1 -2 
5120 5 0.00406541 0.486727 0.142245 -1 0 3 
5952 5 0.198245 0.49375 0.106841 -2 4 -3 
6490 6 0.1807 0.499611 0.139363 -5 -2 -1 
5913 5 0.800101 0.542313 0.130821 -2 -4 2 
5904 6 0.475001 0.540227 0.151245 0 -4 -2 
7489 6 0.593101 0.531309 0.103559 2 -6 2 
6940 6 0.657051 0.578113 0.112742 1 2 -2 
7870 6 0.763423 0.532167 0.148704 -2 0 1 
6600 6 0.0830607 0.632926 0.159467 -1 2 2 
7801 6 0.0560319 0.592717 0.145728 2 1 1 
5117 6 0.0186303 0.625771 0.11313 -2 -1 2 
5555 5 0.488867 0.639239 0.148879 -2 2 -2 
7671 5 1.0005 0.598897 0.19408 0 -2 0 
6659 6 0.0769977 0.649402 0.153784 4 3 4 
8178 5 0.373755 0.649002 0.150001 2 -4 4 
5415 6 0.744625 0.69475 0.126773 -1 -1 1 
7365 6 0.69998 0.72513 0.166975 0 2 -2 
7777 6 0.0161494 0.728341 0.118974 1 -3 0 
6635 5 0.915916 0.740868 0.14114 0 -2 -2 
5323 5 0.74041 0.734105 0.13173 -2 -1 -3 
5647 6 0.849587 0.743447 0.186179 -2 -2 -4 
8180 6 0.878255 0.772466 0.169257 6 5 0 
8506 5 0.923098 0.799195 0.139993 1 -4 -3 
7280 5 0.498137 0.81816 0.109487 3 2 1 
6021 6 0.307744 0.836712 0.151268 0 -1 2 
6236 6 0.64597 0.847981 0.137252 -4 -1 1 
7140 5 0.839516 0.836629 0.169461 2 0 -1 
7202 5 0.0965789 0.881252 0.157248 4 -2 0 
7585 6 0.545658 0.866887 0.18724 -1 -2 -1 
7652 6 0.631661 0.908428 0.167543 2 0 1 
5259 6 0.999416 0.896402 0.125046 -2 -4 -4 
7683 6 0.349484 0.879986 0.136559 1 0 -1 
6228 6 0.865841 0.895321 0.118372 -3 -5 7 
7672 5 0.182745 0.906757 0.17056 4 -1 3 
8515 5 0.527723 0.937274 0.136482 -2 -3 -1 
6500 6 0.0653667 0.97097 0.124206 1 1 -2 
7655 6 0.589176 0.980222 0.145809 -1 0 0 
7006 6 0.274163 0.999504 0.133524 -3 -1 2 
8291 5 0.74238 0.0398301 0.118019 -1 -4 3 
6136 5 0.783352 0.965887 0.136319 -5 0 -3 
6025 5 0.279503 0.0124158 0.149873 0 -4 -1 
5369 6 0.294803 0.981557 0.186494 -3 4 1 
6463 6 0.477136 0.03756 0.148522 0 2 2 
7227 5 0.63529 0.0461542 0.184867 -5 5 6 
5545 5 0.126016 0.0804534 0.148436 -6 2 -2 
6947 5 0.272134 0.069723 0.165805 1 -5 6 
6400 6 0.603695 0.0926391 0.145112 -3 2 4 
5468 6 0.648185 0.0724919 0.132447 -3 3 0 
5449 6 0.0705911 0.0810789 0.159513 -1 -1 4 
7442 6 0.212785 0.103099 0.167449 -2 2 -4 
7479 5 0.210743 0.0991534 0.160238 -2 4 0 
5610 5 0.453971 0.109739 0.152725 2 1 1 
6614 6 0.748099 0.150826 0.13739 -2 -4 0 
5248 5 0.0220196 0.129903 0.125805 2 1 5 
5820 6 0.549687 0.166476 0.21191 3 4 -2 
6220 6 0.1865 0.169037 0.159055 1 2 3 
6109 5 0.114818 0.19256 0.245782 4 -5 7 
8099 6 0.231136 0.233809 0.175603 -1 -2 1 
5430 5 0.14574 0.249393 0.124619 -2 3 5 
8630 5 0.747576 0.241038 0.125094 -3 3 0 
5802 6 0.357462 0.252722 0.157267 1 5 1 
7622 6 0.560454 0.255151 0.169149 2 -1 1 
5176 5 0.0859558 0.2221 0.159158 -1 0 1 
7995 6 0.616008 0.281051 0.180764 -5 -3 1 
7954 5 0.869611 0.298829 0.145957 -2 4 3 
5217 6 0.217625 0.307421 0.108334 4 -2 3 
6576 6 0.124113 0.314617 0.159181 0 1 -2 
7194 6 0.532792 0.320396 0.15874 1 -2 3 
8450 6 0.814956 0.321446 0.171303 4 5 -2 
6011 6 0.553775 0.361579 0.182937 -1 -1 2 
5511 6 0.667368 0.391892 0.178832 0 -4 -3 
7099 6 0.0231788 0.407683 0.142376 0 -1 0 
7919 6 0.375018 0.405358 0.171899 0 2 5 
6634 5 0.421772 0.41943 0.190277 1 3 -2 
8933 5 0.976213 0.406194 0.168266 1 1 5 
7635 5 0.507083 0.470051 0.173124 -5 0 3 
8820 5 0.853838 0.48312 0.161787 -3 -1 -3 
8399 5 0.106295 0.508114 0.183688 -3 -2 -2 
6495 5 0.218923 0.481625 0.196318 -1 -2 -1 
8315 6 0.453675 0.48177 0.169813 2 -1 3 
6458 5 0.18857 0.526244 0.189932 -2 -3 -4 
6699 6 0.654019 0.493716 0.176224 0 -1 1 
5630 5 0.761952 0.553482 0.178171 -2 -1 7 
8792 6 0.251768 0.522544 0.170643 1 -2 3 
5911 6 0.343225 0.593329 0.188648 -4 0 -1 
7613 5 0.479985 0.584399 0.120986 0 -2 2 
7393 6 0.764196 0.540928 0.148939 -3 -2 -3 
6641 5 0.838617 0.562471 0.150233 0 1 -1 
5244 6 0.277956 0.583245 0.154294 -2 0 0 
5838 5 0.0465083 0.617832 0.16428 0 2 4 
7713 6 0.332197 0.657186 0.172541 -1 -3 3 
8611 6 0.534721 0.60228 0.19065 -2 -1 0 
8566 5 0.0799224 0.658306 0.226945 4 2 -3 
7101 5 0.133966 0.67499 0.165483 -5 7 -5 
7835 5 0.918753 0.665142 0.189116 -3 6 5 
7967 5 0.981968 0.726222 0.16099 2 -3 0 
7345 5 0.0317726 0.694501 0.134592 7 0 -1 
5255 6 0.11144 0.690655 0.164429 4 0 0 
7627 6 0.0517364 0.814966 0.192049 1 -3 1 
7517 6 0.371174 0.758184 0.139241 -6 -2 2 
8335 5 0.761288 0.745542 0.176422 -1 1 1 
8098 6 0.0078148 0.779696 0.18995 1 1 0 
8918 6 0.120124 0.822426 0.129283 1 4 0 
6230 6 0.938064 0.789527 0.179717 -2 -1 3 
6262 6 0.0226167 0.829565 0.199297 6 -4 4 
5140 5 0.939956 0.81328 0.17144 0 -2 3 
7843 5 0.256173 0.838845 0.193725 -1 1 3 
5395 6 0.300271 0.872767 0.178364 1 -2 -2 
6786 6 0.989926 0.897505 0.182914 -3 0 -2 
6339 6 0.977291 0.879796 0.186316 1 -6 0 
8008 6 0.268464 0.88842 0.181845 -4 -1 -1 
6842 6 0.0469187 0.902641 0.168589 1 -4 -6 
6301 5 0.699621 0.915755 0.176094 -3 0 2 
6538 5 0.814889 0.972783 0.162175 4 0 4 
7129 6 0.839256 0.95134 0.175445 -1 0 1 
8439 6 0.221814 0.945927 0.14319 3 1 3 
7798 5 0.530665 0.945636 0.163515 -2 3 0 
6697 6 0.29042 0.98998 0.171198 -4 -4 -3 
5976 5 0.545059 0.0133192 0.169253 5 1 -1 
6180 5 0.864098 0.96717 0.156221 3 2 -3 
5122 6 0.533969 0.00893126 0.204159 5 -5 0 
5324 6 0.155025 0.0181553 0.198295 -1 1 2 
5533 6 0.235508 0.0729687 0.22737 -1 -1 -7 
7509 5 0.139079 0.0697851 0.160347 3 -2 -3 
6016 5 0.590179 0.0524293 0.189171 -3 0 4 
5829 5 0.907557 0.0853187 0.197982 -1 1 2 
6181 5 0.147129 0.084388 0.171936 3 1 -1 
6303 5 0.165259 0.146675 0.133066 1 2 -2 
6442 6 0.616595 0.139369 0.166664 6 3 -1 
5451 5 0.67608 0.179288 0.196863 5 -2 -3 
5386 6 0.267347 0.175128 0.185227 3 0 -5 
5391 6 0.820515 0.17908 0.210654 0 3 2 
8661 5 0.915106 0.218138 0.181897 1 3 4 
7950 6 0.996185 0.216259 0.171712 0 0 -3 
8294 6 0.736328 0.271838 0.22151 1 -2 0 
7034 6 0.303974 0.240014 0.192647 -1 4 -2 
6902 5 0.864126 0.244616 0.158973 3 3 -1 
6083 5 0.0301706 0.287651 0.178901 -1 -1 3 
6516 6 0.444493 0.287313 0.205573 3 6 -4 
7802 5 0.996592 0.290612 0.1728 -2 -5 -2 
6234 6 0.531048 0.354327 0.222525 -1 4 0 
6593 6 0.570877 0.312842 0.206933 5 1 0 
8922 6 0.829974 0.369745 0.19922 0 -2 1 
5697 6 0.740975 0.380785 0.1912 -2 8 6 
7399 5 0.131382 0.382841 0.165775 2 1 0 
5418 6 0.378656 0.390388 0.180269 -6 2 -1 
7335 6 0.223607 0.428241 0.152792 6 -2 2 
7542 6 0.522995 0.439009 0.219563 0 0 3 
5755 5 0.777519 0.401441 0.196596 -1 -2 5 
7511 5 0.748454 0.403107 0.18008 0 0 0 
8185 6 0.802572 0.400778 0.174787 -1 3 -2 
6271 6 0.983462 0.414524 0.223602 -1 -1 0 
8236 5 0.19558 0.472702 0.221809 -1 2 -3 
5237 6 0.493384 0.430401 0.199815 -2 -1 -1 
8318 6 0.140888 0.463354 0.173397 -5 -1 3 
5298 6 0.181453 0.456041 0.196783 -1 -1 1 
5234 5 0.641163 0.479774 0.209421 0 -2 -1 
8349 5 0.810624 0.447658 0.22006 2 1 2 
7614 6 0.0186481 0.511284 0.20883 1 2 -6 
6595 6 0.357515 0.519692 0.195466 5 -2 -2 
5884 6 0.730995 0.49938 0.194624 -3 -6 3 
6381 5 0.10092 0.58608 0.170414 0 0 2 
6420 6 0.349862 0.601432 0.218476 -1 -3 -3 
7469 6 0.0998571 0.605531 0.195414 3 0 2 
7411 5 0.599925 0.57811 0.206676 -4 8 -2 
8194 5 0.956834 0.580054 0.17903 -5 4 -1 
6846 5 0.222444 0.671467 0.173255 1 -2 3 
7931 5 0.837165 0.663714 0.181525 1 3 3 
5085 6 0.546721 0.670423 0.180699 -2 -4 0 
8691 6 0.405558 0.717669 0.186113 -3 1 3 
5656 5 0.914037 0.687975 0.185221 4 2 6 
7037 6 0.0390218 0.715798 0.18509 -1 -3 2 
8246 5 0.0885053 0.709657 0.192218 5 4 0 
7440 5 0.190435 0.720341 0.17013 1 -4 2 
6815 5 0.0494091 0.773871 0.234621 -2 4 7 
8604 5 0.661045 0.831836 0.21128 2 0 0 
7715 5 0.88008 0.821995 0.198655 -4 -1 1 
5669 6 0.479804 0.859974 0.216044 -6 -3 -2 
8424 6 0.73064 0.905918 0.221236 -2 -2 2 
5343 5 0.422344 0.885624 0.182236 1 -1 5 
8329 6 0.610085 0.887727 0.189348 -2 -8 1 
5249 6 0.266978 0.96869 0.195685 -1 1 0 
6088 5 0.492116 0.975394 0.216346 0 -4 4 
5038 5 0.507679 0.959576 0.212755 2 4 -2 
8175 6 0.837575 0.959037 0.203495 0 -3 4 
7880 5 0.890664 0.982525 0.206447 -3 -1 2 
7759 5 0.241663 0.0405505 0.202504 2 0 3 
6494 5 0.105982 0.00770162 0.20955 -2 0 -4 
7398 5 0.711155 0.0263775 0.240979 1 4 2 
5735 5 0.772118 0.0303503 0.228394 -1 2 1 
8782 5 0.023757 0.0363461 0.206875 2 -3 2 
7696 5 0.255967 0.0546205 0.196016 7 -3 2 
6459 5 0.025625 0.0683806 0.220971 4 1 2 
6377 6 0.100701 0.0901321 0.170269 0 3 0 
8275 6 0.130287 0.0672374 0.214134 3 -2 -3 
6295 5 0.262476 0.0831746 0.22371 -3 1 3 
7095 5 0.787303 0.0925212 0.210012 3 -1 -1 
5550 6 0.863564 0.104571 0.209876 4 -4 -1 
5547 6 0.970499 0.095873 0.220403 -3 4 6 
7326 6 0.0658171 0.116369 0.231656 -2 3 1 
8133 6 0.391905 0.124208 0.233814 2 2 4 
5946 5 0.781651 0.163762 0.212675 -3 1 5 
8615 5 0.98774 0.132304 0.203484 1 -1 1 
5373 6 0.493658 0.171551 0.244796 5 3 -7 
7437 6 0.0974153 0.161359 0.202035 1 0 -5 
8981 6 0.438914 0.188483 0.24042 1 1 -4 