ITEM: TIMESTEP
20000000
ITEM: NUMBER OF ATOMS
9000
ITEM: BOX BOUNDS pp pp pp
-75 75
-75 75
-75 75
ITEM: ATOMS id type xs ys zs ix iy iz 
8579 6 0.352202 0.0292984 0.0146319 -6 5 3 
5138 5 0.514276 0.996081 0.0189598 -1 -1 -3 
6078 6 0.982921 0.0642814 0.0343255 4 1 0 
5652 6 0.13105 0.0570028 0.961227 -2 6 1 
7891 6 0.684548 0.988968 0.0173944 1 2 4 
8435 5 0.830001 0.0326124 0.992016 -4 3 -1 
7541 5 0.58799 0.0557802 0.00769645 -1 -2 2 
7957 6 0.612957 0.0516904 0.0501449 -6 -1 4 
5288 5 0.60858 0.0981546 0.0329858 -1 -1 -2 
8214 6 0.10726 0.112193 0.0123413 3 1 -3 
6557 5 0.119766 0.136994 0.986428 5 3 2 
6885 5 0.358285 0.0380171 0.998358 -3 -4 -1 
8768 6 0.55179 0.0982461 0.999002 -1 -2 -1 
6179 5 0.196559 0.0942564 0.00141352 -2 4 5 
8772 6 0.138502 0.121351 0.0578071 0 2 -1 
5636 6 0.442324 0.148416 0.0552659 3 2 7 
6540 6 0.653237 0.147295 0.0609375 6 0 0 
6132 6 0.687817 0.155231 0.99363 1 -1 -1 
5280 6 0.845385 0.153462 0.0356481 2 3 -2 
6041 6 0.628885 0.161116 0.984794 1 -2 -1 
5254 6 0.786601 0.174231 0.0186198 1 -1 1 
7898 5 0.863037 0.133742 0.00843619 5 0 5 
6938 5 0.336659 0.195147 0.98012 2 4 0 
8018 5 0.115169 0.286518 0.0262209 6 5 5 
8485 6 0.713036 0.212797 0.0375691 -1 -1 2 
7260 5 0.81974 0.213899 0.0157802 -1 1 2 
8555 5 0.539738 0.256779 0.996041 2 1 6 
7127 6 0.543153 0.20816 0.997679 2 0 -6 
5176 6 0.559048 0.302438 0.00901382 0 -2 1 
5855 5 0.745767 0.276088 0.968853 -1 -4 5 
6380 5 0.00136348 0.344661 0.990491 -2 0 -3 
5172 5 0.390351 0.354315 0.0120409 0 1 -1 
7451 5 0.602393 0.355754 0.98252 -1 0 -4 
8359 6 0.775424 0.392388 0.998337 0 -4 1 
6531 6 0.100857 0.347229 0.012596 -2 0 -5 
5458 5 0.210484 0.377759 0.00503044 5 3 -1 
7857 6 0.372276 0.390281 0.0201771 -1 -8 1 
6178 5 0.664982 0.433888 0.0164949 1 0 -2 
7161 5 0.235354 0.455705 0.0233552 -1 2 1 
6917 6 0.508135 0.445045 0.0111958 -3 3 4 
8954 6 0.494759 0.418085 0.0125773 7 -1 1 
8456 5 0.226626 0.440006 -0.000286261 0 3 2 
7845 6 0.938984 0.423479 0.0234442 -2 0 -3 
8625 6 0.550914 0.466584 0.0102768 2 1 2 
8717 6 0.20169 0.500663 0.983828 4 -2 5 
5297 5 0.736413 0.497266 0.00355843 1 0 -1 
7880 5 0.882665 0.518561 0.0431245 3 3 0 
8510 6 0.0381395 0.594341 0.993108 -1 1 0 
5892 6 0.705332 0.589696 0.00849984 1 -3 5 
7026 5 0.780806 0.596136 0.0132563 4 3 -1 
6512 6 0.372538 0.62086 0.0039842 1 -1 -1 
6970 6 0.0165178 0.650845 0.996547 -4 -5 1 
7634 5 0.177301 0.670837 0.0331323 -4 7 1 
7255 6 0.255752 0.67068 0.038082 3 -4 4 
7355 6 0.510632 0.665859 0.055536 1 -3 0 
8893 6 0.0749783 0.707964 0.00988962 -1 -2 2 
5558 6 0.364462 0.664662 0.0353041 -1 4 -5 
7084 6 0.0164825 0.735955 0.991139 0 2 1 
6629 6 0.810586 0.745619 0.0197226 -1 -2 -4 
7004 6 0.558956 0.765918 0.0337712 -2 1 -3 
8888 6 0.068409 0.742324 0.0152571 -7 -1 2 
8125 6 0.170431 0.781282 0.008215 3 -3 2 
8514 6 0.293606 0.779945 0.0301071 -1 -4 0 
5278 6 0.932025 0.766963 0.0213999 3 -2 -1 
8766 5 0.115363 0.844639 0.0367449 0 -5 0 
7032 6 0.353781 0.805541 0.0371209 -3 -1 -3 
5450 6 0.704566 0.798508 0.0187266 2 0 -5 
7918 5 0.76463 0.777391 0.971959 -5 -1 0 
8779 5 0.0564891 0.816533 0.980684 0 -7 -3 
7713 6 0.179951 0.850357 0.996287 3 3 -2 
8421 6 0.993951 0.861535 0.0101221 1 -2 7 
5103 5 0.40757 0.867943 0.0640244 5 -4 3 
5317 6 0.125663 0.875825 0.0343786 -2 -2 1 
8589 6 0.412351 0.897922 0.0205986 1 0 -3 
5219 6 0.493875 0.924732 0.998275 1 0 -2 
7912 6 0.720449 0.906654 0.989011 1 0 2 
7890 6 0.119278 0.90782 0.0417092 3 -1 1 
5747 6 0.333148 0.932965 0.0596331 -4 0 0 
5362 5 0.384729 0.971731 0.965617 -1 -3 -1 
5192 5 0.0651399 0.938297 0.0310145 1 0 -2 
7839 6 0.324428 0.962353 0.995808 2 1 1 
6509 6 0.395377 0.94348 0.0243042 1 -4 -1 
6729 5 0.352314 0.972603 0.024648 3 0 4 
6950 6 0.285429 0.980601 0.976021 -5 -2 -2 
8630 6 0.632376 0.00218133 0.0270905 2 1 1 
8781 6 0.988676 0.996421 0.995266 -1 3 0 
7631 5 0.385832 0.990513 0.994049 -4 1 -4 
6665 6 0.346129 0.0236526 0.0619611 1 2 1 
7012 5 0.495192 0.99022 0.00828552 0 -5 0 
6391 6 0.72958 0.980835 0.0415598 0 -5 2 
8687 5 0.687441 0.0326824 0.0443537 -2 1 1 
5640 5 0.905275 0.0359237 0.0391573 1 -2 -1 
8012 5 0.054971 0.0712162 0.0223027 -3 4 0 
7364 6 0.637879 0.0617744 0.00626328 7 4 -4 
6491 5 0.688031 0.0586903 0.00909512 3 3 2 
7821 6 0.720178 0.0693217 0.00617954 -2 3 1 
8150 6 0.860733 0.0577935 0.0474012 -2 -1 -3 
6445 5 0.0304131 0.0788786 0.0382548 -2 -2 -1 
7831 5 0.786169 0.0803862 0.0197635 -2 4 0 
8877 6 0.0365683 0.107413 0.0172095 5 -1 -3 
5741 5 0.135243 0.117665 0.00110768 0 -6 -1 
5024 6 0.228135 0.0880265 0.0413376 1 2 4 
8162 6 0.332615 0.131347 0.0404408 -1 3 -5 
8209 6 0.774433 0.142222 0.0347129 0 -3 -5 
8172 6 0.611644 0.181253 0.00865423 -1 7 2 
8887 6 0.885563 0.191284 0.026147 -2 1 1 
8746 5 0.0897863 0.222462 0.0384206 0 -2 1 
6180 5 0.00488089 0.239379 0.0284287 -3 0 -1 
5006 6 0.278066 0.227025 0.0238456 3 2 0 
7789 5 0.814465 0.261193 0.0223018 4 0 1 
7248 5 0.438135 0.28461 0.0320137 -2 -1 1 
7792 5 0.54219 0.259823 0.047039 -3 -1 2 
8043 5 0.971717 0.250029 0.0195194 1 0 -6 
7286 6 0.642851 0.284921 0.0151362 -1 6 -2 
7328 6 0.680957 0.246853 0.998428 -3 -3 0 
7761 6 0.218296 0.30422 0.0799431 -1 -1 -3 
7113 6 0.278314 0.335394 0.00766084 0 -2 6 
8735 5 0.409829 0.365716 0.0608679 3 -1 1 
5066 6 0.479598 0.339236 0.0448044 0 -4 2 
7386 6 0.597622 0.353374 0.0263678 2 -1 -1 
6117 6 0.963366 0.303353 0.0754128 -3 -1 -2 
5057 6 0.438489 0.368273 0.0260301 -1 -5 3 
7179 6 0.506206 0.363276 0.0163166 3 -4 4 
8447 5 0.258313 0.398695 0.0289372 -2 5 0 
7211 6 0.630515 0.403816 0.0426721 -3 -1 5 
6261 6 0.646561 0.446863 0.0480667 4 4 2 
6953 5 0.634508 0.418756 0.0319159 0 -1 4 
6523 5 0.379792 0.456583 0.0303775 -2 5 4 
8904 6 0.583529 0.407127 0.0553664 -5 4 3 
8363 6 0.807143 0.461256 0.0249271 1 -1 1 
8811 6 0.809257 0.45987 0.978517 -1 5 -3 
6574 5 0.798694 0.452039 0.0653495 1 3 2 
8974 5 0.339356 0.477316 0.0374314 -4 2 0 
6460 5 0.771912 0.486532 0.0628367 -2 1 2 
5054 5 0.80455 0.474262 0.0589403 -3 3 2 
8541 6 0.626807 0.525171 0.0373558 0 0 4 
8417 6 0.662022 0.461241 0.040145 -1 -2 2 
5015 6 0.00385232 0.490798 0.0537502 -6 -2 2 
7700 5 0.149712 0.530978 0.0151644 0 0 0 
5865 5 0.359088 0.576013 0.00360019 -5 3 3 
6764 6 0.770105 0.537607 0.031591 0 1 -2 
6606 6 0.622826 0.585851 0.0423859 2 -1 4 
5908 5 0.132322 0.66085 0.0629845 2 -4 7 
8535 6 0.228418 0.639773 0.0403634 -1 -1 -1 
5453 6 0.243521 0.619701 0.0438722 1 -4 4 
6668 6 0.237724 0.674473 0.0301668 0 2 0 
7777 6 0.849496 0.646085 0.022134 0 0 5 
7271 5 0.12854 0.686182 0.0181545 1 3 2 
6686 6 0.825129 0.717179 0.0191659 2 -2 3 
8914 5 0.249352 0.712334 0.0616392 -2 -5 5 
7380 5 0.305421 0.731893 0.0432105 0 -1 -1 
5861 6 0.141909 0.754164 0.0157188 -3 -6 0 
7109 5 0.718923 0.769639 0.0290231 -4 0 4 
8221 5 0.837393 0.83457 0.0246597 -1 4 6 
5988 6 0.497901 0.826299 0.0603854 -1 0 -2 
6971 5 0.646959 0.864198 0.0273794 -5 5 -1 
8096 6 0.134366 0.86439 0.00738532 1 1 1 
5960 6 0.508658 0.876731 0.0279811 1 4 4 
6554 6 0.581723 0.896522 0.9936 1 -4 -2 
8576 6 0.31229 0.89771 0.0418663 -2 2 0 
6263 6 0.315165 0.932457 0.0243142 4 -3 -1 
6372 5 0.467767 0.90743 0.0364745 -2 -2 -3 
8171 6 0.637304 0.883222 0.0618326 -8 1 3 
5556 6 0.725755 0.860659 0.0329367 -8 4 0 
7688 5 0.225951 0.963221 0.00781209 2 -3 -1 
7988 5 0.927535 0.895947 0.0680134 -2 1 -1 
8970 5 0.600369 0.957973 0.00374249 5 1 1 
5118 6 0.628526 0.93726 0.0580534 0 -2 2 
8354 6 0.320281 0.00506392 0.0471208 -2 -4 2 
7039 5 0.666823 0.997972 0.0154979 4 2 2 
5465 5 0.867114 0.937645 0.0417471 2 -1 -1 
6143 5 0.692081 0.965528 0.0694448 3 4 2 
5432 5 0.915124 0.944574 0.0143135 1 -1 -5 
7687 6 0.0619457 0.0140321 0.0611088 -3 -1 1 
6287 6 0.2279 0.00846894 0.045728 0 5 -1 
6230 6 0.124563 0.00735896 0.0250011 2 1 8 
5956 6 0.72894 0.0528983 0.0475285 2 0 -1 
5596 5 0.931123 0.0905285 0.013644 -4 4 -1 
6428 6 0.967897 0.0553182 0.0248729 1 0 -2 
5157 5 0.0775345 0.13699 0.0703833 4 3 0 
8234 5 0.407384 0.0908291 0.0876725 0 0 2 
8527 6 0.756858 0.145757 0.0662472 0 0 2 
8266 6 0.470374 0.135225 0.0430119 -1 1 0 
6637 6 0.819396 0.120898 0.0333129 -2 4 0 
7612 5 0.25764 0.140487 0.0441396 0 -6 7 
6507 5 0.142132 0.180234 0.0921777 0 3 1 
7405 6 0.420885 0.192467 0.0709349 3 2 -2 
7082 5 0.270239 0.182673 0.0430308 2 2 4 
8987 5 0.298534 0.227407 0.0733607 0 -5 1 
5331 6 0.421899 0.218032 0.0326522 3 3 0 
8239 5 0.809041 0.226738 0.00350614 0 -2 -1 
7397 6 0.325618 0.232205 0.0712702 3 -4 0 
5283 6 0.436428 0.268673 0.0713673 2 7 1 
6074 5 0.222262 0.226532 0.999234 0 1 5 
7520 6 0.368063 0.305548 0.0775682 -3 1 -4 
6682 6 0.465566 0.246331 0.0842981 3 1 -1 
8509 6 0.826769 0.290522 0.0675434 -1 1 -2 
8912 6 0.966216 0.307561 0.0593174 -2 -3 -5 
8233 5 0.24107 0.365622 0.0701548 5 2 -2 
5858 6 0.0783703 0.345898 0.0768307 3 -1 -1 
8765 6 0.116449 0.351572 0.0395388 -3 1 1 
7598 5 0.901915 0.359473 0.0449081 1 0 0 
6429 5 0.882858 0.374575 0.0698895 2 -3 -1 
8664 6 0.189246 0.417578 0.0305571 2 -2 0 
8071 5 0.464052 0.415459 0.0783643 -1 1 1 
8203 5 0.517217 0.404407 0.0609088 2 4 -3 
5661 6 0.00347799 0.413154 0.0479585 4 0 1 
8247 5 0.928917 0.442164 0.0497499 1 1 -1 
8268 5 0.622297 0.492107 0.0557878 0 -3 -2 
6217 6 0.455537 0.487946 0.0619401 -2 3 -1 
8886 6 0.933301 0.504696 0.067049 -1 4 2 
8728 6 0.968009 0.470756 0.0377114 4 5 5 
7803 6 0.97729 0.484141 0.0466771 -1 3 4 
8067 5 0.113416 0.56837 0.0700745 -1 0 1 
7488 5 0.934116 0.553177 0.0462686 0 0 2 
5645 5 0.514233 0.570193 0.0549582 -2 0 -1 
5284 5 0.530831 0.557253 0.0476857 6 -2 -2 
8105 5 0.367255 0.616279 0.0519667 0 -3 -1 
5094 5 0.47857 0.643569 0.0197113 -6 -5 -1 
6756 6 0.0823504 0.624892 0.07115 2 -1 0 
8626 5 0.321567 0.712913 0.0634511 -1 -2 1 
6174 6 0.340454 0.670808 0.0624465 7 -4 0 
7877 5 0.872852 0.750138 0.0249536 0 -6 2 
5965 6 0.250986 0.762929 0.0627006 -3 -2 -7 
8468 6 0.741783 0.722386 0.0905005 -4 0 -6 
7822 6 0.387507 0.746327 0.0266339 4 -1 0 
8355 6 0.812373 0.701034 0.0827908 0 3 2 
6249 6 0.0990786 0.806786 0.0835031 0 2 2 
8204 6 0.349483 0.812013 0.0587069 -2 3 -3 
7486 6 0.797105 0.806751 0.0781248 2 -1 -6 
7344 5 0.222386 0.831338 0.112286 0 3 5 
8546 6 0.552612 0.860014 0.0428958 1 -2 6 
5846 6 0.647537 0.837716 0.0487213 -3 0 -3 
6476 6 0.932358 0.838989 0.0737758 -1 0 7 
8964 6 0.110442 0.878428 0.0908581 0 0 -1 
5349 5 0.690474 0.834351 0.0633199 -2 -7 3 
8491 6 0.76788 0.86001 0.0788932 4 -1 -1 
6608 6 0.0432512 0.882414 0.0956473 -3 2 -2 
8134 5 0.834424 0.875757 0.0607105 -1 8 0 
6150 5 0.824123 0.878364 0.0559375 -1 -2 -2 
8939 6 0.776471 0.901023 0.0475509 3 1 2 
6692 6 0.859507 0.899641 0.0674931 -1 0 7 
5177 6 0.513467 0.929974 0.0534299 -2 -5 0 
6188 6 0.818901 0.0120748 0.0621247 1 -6 0 
7455 6 0.847663 0.984422 0.0556925 3 -2 -4 
6869 5 0.0108105 0.986053 0.0730472 0 -3 0 
6227 6 0.86424 0.0554124 0.0680819 -1 -2 1 
5333 6 0.355409 0.134941 0.0927433 -5 1 -1 
7895 6 0.673382 0.0820238 0.072488 5 1 -1 
7715 5 0.173866 0.114659 0.0989613 4 2 -2 
7647 6 0.558036 0.149637 0.0492446 -2 1 5 
6526 5 0.702575 0.180811 0.0933137 -5 2 3 
7015 5 0.819414 0.202727 0.109535 -2 -4 -2 
7395 5 0.83565 0.150169 0.086946 3 0 2 
6252 6 0.608901 0.160258 0.0918733 2 2 0 
8163 5 0.877443 0.185936 0.0862396 -1 0 2 
8434 6 0.0289276 0.1761 0.0288259 7 6 1 
6415 6 0.976206 0.241445 0.0871381 2 0 3 
6986 6 0.0813332 0.24753 0.0628452 2 -2 -2 
8129 6 0.453435 0.235738 0.0808364 2 -1 1 
5694 6 0.202795 0.240571 0.0764834 -2 -2 2 
6901 6 0.516404 0.252515 0.117846 -4 -2 -4 
7427 6 0.882693 0.282069 0.0623598 -1 1 -3 
8156 5 0.958986 0.242729 0.100086 6 2 2 
7842 5 0.22641 0.277656 0.0906003 2 2 2 
7851 5 0.706474 0.296722 0.0538799 2 1 -1 
7512 5 0.680669 0.293452 0.0752091 -2 1 -2 
5468 5 0.825845 0.360522 0.0473737 6 4 -4 
5198 6 0.874735 0.3669 0.075937 1 3 4 
6093 6 0.351235 0.367587 0.086025 -4 1 -4 
6171 5 0.835981 0.357593 0.0213699 -3 -1 2 
5606 5 0.887612 0.424631 0.0795389 -1 0 1 
5193 5 0.0353166 0.420086 0.107785 3 -3 0 
8992 6 0.0475127 0.451721 0.0937621 1 0 1 
5438 5 0.358859 0.41901 0.0772412 -1 1 -2 
8386 6 0.478871 0.460238 0.0558375 -3 5 -1 
7381 6 0.584738 0.421141 0.0525988 -1 3 1 
8199 5 0.584469 0.427299 0.124963 0 0 0 
8861 6 0.295805 0.497283 0.0389175 -2 0 1 
7251 6 0.559861 0.442871 0.0904192 0 2 8 
5940 5 0.902686 0.440837 0.0876603 -1 2 1 
7563 5 0.922825 0.49969 0.11406 4 4 -6 
5599 5 0.030695 0.479707 0.0930407 6 7 1 
5743 6 0.0876323 0.530502 0.0684099 -3 2 -1 
7403 6 0.777406 0.493533 0.0679633 5 -2 2 
7930 6 0.199653 0.529231 0.0710243 2 1 3 
6092 6 0.548614 0.56744 0.0935281 -4 1 0 
6451 6 0.44899 0.580322 0.105976 -1 1 -3 
6044 6 0.538318 0.603302 0.090971 -2 4 2 
8056 6 0.135488 0.612474 0.0714912 2 0 -4 
5847 5 0.453006 0.621024 0.0588838 -3 0 0 
8925 5 0.76142 0.633892 0.0602803 -2 -4 0 
7699 6 0.926951 0.626527 0.0980456 -3 -3 0 
5809 5 0.238824 0.643354 0.0772259 2 -3 -3 
5706 6 0.489174 0.632625 0.113175 2 -3 3 
8660 5 0.78635 0.677264 0.140129 -2 -2 2 
6896 5 0.874361 0.63782 0.0923498 0 -4 2 
7619 6 0.842724 0.639862 0.0732466 -5 -1 2 
7433 6 0.898664 0.696525 0.0935641 2 0 2 
6559 6 0.171711 0.705915 0.116991 -2 -1 0 
5072 6 0.240745 0.731779 0.0840363 -3 2 -1 
7062 5 0.398347 0.744725 0.0398854 -3 2 -1 
8678 5 0.549703 0.759154 0.067092 3 -2 -1 
6871 5 0.593589 0.720526 0.115709 -6 1 -6 
8378 6 0.719253 0.72925 0.0723389 0 -2 1 
6065 5 0.980822 0.713039 0.0663769 -2 1 4 
8318 6 0.476796 0.766797 0.0530847 2 -1 5 
6717 5 0.829939 0.743907 0.102947 -1 -6 5 
7594 5 0.0228972 0.798828 0.0865388 -2 5 1 
5347 5 0.127405 0.798374 0.0794398 4 -4 5 
6865 6 0.640011 0.823423 0.101256 0 -3 -2 
7633 6 0.69226 0.813613 0.0716015 0 0 -2 
8923 5 0.940003 0.784225 0.108673 1 -3 0 
8066 6 0.926191 0.808311 0.0709715 -4 -2 -1 
8931 6 0.180365 0.838846 0.120095 1 -6 4 
5817 6 0.815007 0.800221 0.097995 0 -5 6 
8807 5 0.971906 0.876709 0.055534 0 -4 -2 
6243 5 0.169137 0.837869 0.0493111 2 0 1 
6831 6 0.709719 0.870207 0.0876419 0 -4 -1 
8624 5 0.398066 0.879125 0.0876386 -3 8 0 
6210 6 0.91759 0.893293 0.0846553 -1 -2 -4 
6308 6 0.197145 0.913269 0.116353 0 -5 0 
7518 5 0.199661 0.890345 0.0999378 -1 2 -7 
6823 5 0.378363 0.96935 0.105584 -3 2 5 
6296 6 0.518828 0.952246 0.0720592 -7 -5 3 
5774 6 0.691449 0.945329 0.098253 1 -2 0 
6151 6 0.0410003 0.981402 0.0526814 -4 0 -1 
7477 5 0.44843 0.999209 0.0503429 3 -3 2 
7334 6 0.737564 0.986215 0.0750732 -4 -9 2 
5589 5 0.485399 0.00258593 0.0611469 -3 1 3 
8357 5 0.627525 0.966439 0.0877025 3 -1 -1 
5726 6 0.956426 0.940033 0.0886475 -3 5 2 
8333 5 0.454029 0.0365102 0.070275 -2 2 3 
6889 6 0.762584 0.04927 0.0977075 2 0 0 
7341 5 0.586756 0.0636813 0.123648 1 2 0 
6776 5 0.132853 0.0941241 0.0969956 -2 -1 -1 
5763 5 0.864502 0.0607405 0.0983045 3 1 -1 
6034 6 0.0362558 0.116103 0.144095 2 4 0 
5075 6 0.0922899 0.131909 0.0699774 0 -2 -3 
8637 6 0.436874 0.0463209 0.0630179 -2 0 1 
5494 6 0.102149 0.118337 0.0993977 3 0 10 
6418 5 0.518728 0.154102 0.12083 -5 -2 -2 
7317 6 0.571565 0.131847 0.113427 -1 1 -1 
7075 5 0.884363 0.146675 0.119919 3 -2 -3 
5719 6 0.419069 0.135271 0.0689092 0 4 -1 
6382 6 0.677858 0.175344 0.0824597 -3 -1 -4 
5060 6 0.789297 0.154166 0.099822 -5 4 0 
5412 5 0.651219 0.205973 0.107075 -3 -2 1 
6738 6 0.621482 0.171272 0.104238 3 -2 0 
8356 6 0.898702 0.173493 0.127656 1 3 1 
6942 5 0.855574 0.176011 0.128093 -2 2 4 
6352 6 0.566834 0.194813 0.133819 1 -1 3 
8684 6 0.95626 0.178026 0.119149 -2 0 1 
6882 6 0.412858 0.224407 0.130124 -2 2 1 
7257 5 0.109757 0.296193 0.127345 4 -2 2 
5189 5 0.465967 0.240189 0.0935274 -2 -1 0 
7971 6 0.686385 0.290708 0.103326 -2 1 5 
8250 6 0.159537 0.25627 0.103386 -1 -2 -5 
6367 5 0.751731 0.273069 0.0948502 -6 4 -1 
7788 6 0.112196 0.29945 0.113065 1 2 1 
7322 6 0.129042 0.312671 0.09452 -1 0 -1 
6014 5 0.705242 0.311379 0.0874129 0 5 0 
5363 5 0.405783 0.323387 0.113177 -4 2 3 
5085 6 0.250439 0.349436 0.0983327 -3 -1 0 
7327 6 0.895147 0.337003 0.0663882 -4 2 0 
7970 6 0.994026 0.338927 0.0498936 -1 2 -5 
7066 6 0.0945527 0.376948 0.102704 -1 1 -1 
8072 5 0.435133 0.401333 0.0807425 4 4 0 
5312 5 0.564561 0.379271 0.139166 -3 -2 0 
6012 5 0.597724 0.368256 0.0853411 -2 -1 -3 
7991 6 0.110754 0.390848 0.0933736 -2 4 2 
8750 5 0.313316 0.382576 0.0832695 4 -2 1 
6883 6 0.633838 0.36752 0.1124 1 4 -1 
8792 6 0.412642 0.433714 0.115391 2 0 -6 
5649 5 0.574331 0.422573 0.11694 -3 2 0 
7730 6 0.771996 0.418471 0.137616 0 1 0 
7288 6 0.409831 0.478069 0.113244 -5 2 -2 
7925 6 0.815407 0.425219 0.111533 -5 2 -1 
6487 6 0.309958 0.459004 0.0663646 4 0 -2 
6567 5 0.318568 0.479616 0.0515282 -2 5 0 
6737 6 0.595635 0.467121 0.124836 -2 0 1 
5985 6 0.94888 0.536803 0.0552929 -1 3 -3 
7377 6 0.0214705 0.530553 0.0979311 -2 -1 0 
6723 5 0.410038 0.521634 0.122256 -2 -1 -2 
5212 6 0.752534 0.468905 0.0845671 -1 -3 -4 
6155 6 0.977294 0.530124 0.0743113 -5 2 -1 
5175 6 0.0187096 0.486877 0.0691124 -1 1 6 
6235 6 0.196208 0.515279 0.128 2 1 -4 
8997 5 0.367794 0.5446 0.124701 -2 0 -1 
8316 6 0.48652 0.528169 0.127571 2 -3 1 
7091 6 0.606399 0.555445 0.115235 4 1 3 
7711 5 0.00331403 0.555703 0.111958 0 3 3 
7785 5 0.0556626 0.589303 0.107369 -1 5 2 
8968 5 0.255469 0.573844 0.0870101 -5 1 5 
6197 5 0.822311 0.584876 0.0783458 5 -1 1 
6071 6 0.0560255 0.606572 0.0922 -1 -2 -1 
7278 5 0.266982 0.597672 0.110123 -1 -1 -2 
8894 5 0.575489 0.633062 0.0891187 2 3 3 
7485 6 0.0995422 0.677378 0.115925 -1 5 -2 
5670 6 0.587727 0.645684 0.111883 0 2 -1 
8502 5 0.862135 0.669528 0.102408 -2 -1 1 
5720 6 0.699885 0.718635 0.0876964 -4 0 4 
6206 5 0.49909 0.782121 0.1031 -2 3 3 
7635 6 0.742195 0.727142 0.104084 -2 -3 1 
6375 6 0.860804 0.746741 0.0904045 0 4 -5 
7659 6 0.0154821 0.702121 0.105998 -2 -1 -2 
5440 6 0.763537 0.776477 0.11399 2 -2 1 
6397 6 0.219877 0.799629 0.120035 -1 3 -1 
7884 5 0.323431 0.798484 0.0894195 0 -3 -4 
8392 6 0.657401 0.765434 0.112649 3 -2 6 
6061 6 0.880834 0.769601 0.106093 -2 -1 -3 
8276 5 0.318128 0.772762 0.113381 -2 -3 1 
6706 5 0.678343 0.883014 0.101217 4 5 0 
6344 5 0.628484 0.931126 0.133378 1 -3 -1 
7675 6 0.353773 0.878777 0.0913148 1 -3 -1 
6853 5 0.845466 0.932519 0.139366 0 2 3 
5446 5 0.182815 0.963358 0.0915956 4 -1 -1 
5833 6 0.277015 0.977422 0.0920227 3 -4 -1 
6743 5 0.14114 0.964232 0.103306 3 2 -4 
6675 5 0.620938 0.98395 0.121066 -2 -1 -2 
6597 6 0.82635 0.995592 0.132921 0 -1 -2 
7657 6 0.0872658 0.0716057 0.119311 -4 -3 -1 
6598 6 0.706009 0.0118021 0.10709 2 -1 1 
8432 5 0.101345 0.0348023 0.102938 -1 1 -1 
7213 6 0.389596 0.0390359 0.149584 1 -1 -3 
5205 6 0.54884 0.094447 0.110957 0 -5 -1 
6412 5 0.713625 0.0967619 0.148809 4 -1 -4 
6400 5 0.344255 0.158013 0.105164 1 -2 -1 
8003 6 0.531107 0.154112 0.108019 3 -1 3 
6335 6 0.313281 0.175208 0.123965 4 -6 0 
8538 6 0.44221 0.139972 0.108196 -2 2 -1 
8990 5 0.129673 0.143404 0.125691 -3 1 4 
8895 5 0.604961 0.20208 0.118455 -4 1 1 
8822 5 0.627429 0.238004 0.146948 -5 1 -2 
6810 5 0.0759846 0.280134 0.15132 -2 0 3 
5218 6 0.218781 0.262606 0.0984986 0 5 -2 
7996 6 0.0712257 0.291314 0.101273 2 2 -2 
8031 6 0.695375 0.28413 0.153333 2 3 -2 
6359 5 0.0946583 0.354138 0.136699 3 1 4 
6234 6 0.592508 0.312705 0.140105 -5 -2 -1 
7391 6 0.360695 0.39731 0.155499 2 -4 3 
5883 6 0.00570733 0.425727 0.119356 4 -2 2 
5121 5 0.159375 0.352888 0.0941685 -4 0 3 
8680 6 0.595192 0.359956 0.0890045 -1 -1 -3 
8734 6 0.0819521 0.380066 0.131549 2 -4 1 
8700 6 0.554085 0.413782 0.152865 -1 2 -2 
8399 6 0.711495 0.419828 0.165473 -2 0 1 
8046 6 0.988893 0.391131 0.153695 -1 0 3 
7336 6 0.236989 0.477378 0.139008 -1 -2 1 
8464 5 0.475687 0.442591 0.126397 -4 1 1 
6928 5 0.911243 0.43826 0.1029 4 -4 4 
7733 5 0.710424 0.490899 0.120002 -1 -1 0 
8740 6 0.658067 0.521023 0.11353 -1 1 1 
8133 6 0.245352 0.502968 0.131708 -2 -1 3 
6371 6 0.215985 0.563225 0.087689 1 0 -1 
6561 5 0.125973 0.519466 0.07888 4 2 -2 
7009 6 0.376269 0.569811 0.0883653 5 -5 -1 
8170 6 0.448647 0.565965 0.111746 5 2 -2 
6929 5 0.560145 0.572537 0.113263 -2 0 0 
5507 6 0.821769 0.546495 0.118209 4 -1 1 
6585 5 0.990244 0.588679 0.116653 0 0 7 
6960 6 0.33691 0.597124 0.136391 -7 -1 -3 
6744 6 0.184678 0.603424 0.105936 0 -2 -2 
7145 6 0.176502 0.623819 0.0975586 1 -1 -2 
6661 6 0.680137 0.628855 0.103596 2 -1 -1 
6679 6 0.587164 0.669207 0.128981 0 -3 -1 
6827 5 0.690015 0.681988 0.0911498 1 -1 3 
8708 5 0.887625 0.689153 0.148904 0 3 4 
6486 5 0.204248 0.732639 0.122121 0 -1 3 
7864 5 0.581713 0.703483 0.121898 -4 3 1 
5834 5 0.617627 0.725728 0.140815 -2 -3 0 
8842 5 0.336613 0.732666 0.116777 -5 3 0 
6789 5 0.0770118 0.750582 0.102129 6 0 -1 
5931 6 0.193564 0.778967 0.141407 0 1 -2 
8455 6 0.510304 0.720133 0.112124 4 -2 3 
5893 6 0.587281 0.797073 0.0745529 -3 -2 1 
5382 6 0.789511 0.760141 0.153532 -1 4 1 
7897 6 0.939115 0.822931 0.163712 -3 3 3 
7689 5 0.170142 0.832241 0.157604 -1 1 0 
6918 6 0.622373 0.80473 0.144913 -1 3 1 
5586 6 0.578935 0.881002 0.130911 2 -1 -1 
8592 5 0.654084 0.860979 0.100382 -2 1 1 
8655 6 0.2314 0.864871 0.102416 1 0 3 
7419 5 0.461386 0.846855 0.14167 -3 3 1 
8590 5 0.650573 0.844674 0.135837 -8 -2 5 
7836 6 0.54824 0.865685 0.11793 -1 -2 0 
6053 6 0.886977 0.91844 0.079609 -4 -2 6 
6611 6 0.97149 0.88869 0.129624 1 -3 0 
6285 6 0.419862 0.906164 0.139534 2 0 5 
8918 6 0.768744 0.912839 0.0915507 0 2 7 
8650 6 0.570102 0.962917 0.115054 -2 -1 1 
6808 6 0.361205 0.958025 0.136535 -1 -7 5 
7118 5 0.464403 0.98508 0.10476 5 2 2 
5206 5 0.630752 0.95923 0.130702 3 -1 1 
5228 5 0.663638 0.997673 0.116012 6 0 0 
6879 6 0.92449 0.981683 0.142102 6 -4 3 
8556 5 0.991526 0.968601 0.119373 0 2 -1 
7361 5 0.440126 0.0455641 0.139141 1 -9 0 
7848 5 0.763402 0.0173175 0.131873 -1 -5 5 
8245 6 0.562875 0.042459 0.142003 1 3 -3 
5587 6 0.900164 0.00506325 0.159111 -1 -6 3 
5803 6 0.0977203 0.0472443 0.126985 -1 -1 0 
7491 6 0.353226 0.0879408 0.13624 -4 3 -1 
8106 6 0.558447 0.0471361 0.11855 4 1 -1 
5457 6 0.804279 0.108444 0.138829 -3 0 -2 
6256 6 0.626499 0.134348 0.192266 0 -4 5 
7425 5 0.643466 0.115248 0.171207 -1 1 1 
8273 6 0.835707 0.1359 0.140507 -2 1 -4 
6980 5 0.65079 0.117665 0.150415 -1 2 -3 
7899 5 0.968457 0.13116 0.11635 1 -5 -1 
5730 5 0.638428 0.184953 0.154373 1 4 -2 
6503 5 0.842792 0.160861 0.126329 -2 5 -5 
7780 5 0.0158499 0.18535 0.166722 -3 2 -1 
8136 6 0.26605 0.206791 0.173171 -2 -2 -1 
7536 6 0.579007 0.173461 0.131814 4 -1 7 
6001 5 0.903344 0.183828 0.148776 5 2 -2 
5480 6 0.296652 0.20714 0.144974 0 2 -1 
8345 5 0.694747 0.218055 0.153537 -2 -1 2 
7692 6 0.75877 0.241039 0.149872 -5 2 5 
6182 6 0.626981 0.312929 0.141691 -7 -1 1 
7190 6 0.060483 0.30525 0.164831 2 1 2 
6184 6 0.231225 0.326959 0.177594 -3 -7 0 
5784 5 0.202596 0.360903 0.149402 0 -1 1 
7261 5 0.160525 0.331242 0.136674 0 4 0 
6866 5 0.608846 0.32093 0.146818 -2 -6 2 
6409 6 0.37649 0.344518 0.148541 2 -6 1 
7901 5 0.425899 0.348389 0.137032 -2 -3 7 
6650 6 0.423001 0.357273 0.178151 1 3 3 
7120 6 0.438989 0.347299 0.143638 0 -1 4 
8991 5 0.447713 0.354525 0.176033 0 2 4 
5864 5 0.818659 0.376212 0.182525 -6 0 6 
5065 6 0.18613 0.444898 0.170722 1 -2 1 
5281 5 0.81991 0.417394 0.156691 -4 -1 4 
8763 5 0.175231 0.45867 0.122653 1 -5 1 
5061 5 0.656164 0.431195 0.162212 9 1 -2 
6490 5 0.105817 0.459643 0.153025 -4 -3 0 
7959 6 0.858242 0.477212 0.160661 3 2 -6 
6930 6 0.129886 0.488266 0.171995 5 2 -4 
7756 6 0.695979 0.519429 0.160407 -1 2 1 
6323 6 0.83409 0.475442 0.144331 -2 1 1 
7649 6 0.661917 0.509579 0.161293 1 -3 6 
6821 6 0.81189 0.521519 0.128157 -4 2 5 
7360 5 0.200875 0.507538 0.142006 2 -3 -2 
6895 6 0.0137046 0.538135 0.132393 3 4 -1 
7854 5 0.331389 0.56888 0.131175 -2 -6 1 
5434 6 0.587069 0.544274 0.149587 0 -3 0 
8406 6 0.98778 0.566447 0.139423 1 -1 0 
5211 5 0.0824442 0.587227 0.140431 1 -2 -3 
5131 6 0.137642 0.596642 0.125413 0 -2 2 
5243 6 0.587106 0.599673 0.124647 -6 -2 0 
6900 6 0.817295 0.691991 0.167735 -2 3 3 
5911 6 0.60494 0.671751 0.164672 -2 0 2 
7394 6 0.932993 0.710686 0.107589 3 0 2 
7101 5 0.0157021 0.688228 0.155827 1 0 -2 
8528 5 0.497306 0.694434 0.119349 -1 -2 1 
5959 6 0.65796 0.713909 0.145994 -2 1 0 
8545 5 0.925825 0.687296 0.14625 -1 -1 -5 
7639 6 0.0491604 0.715289 0.157945 6 1 2 
6628 5 0.187827 0.755743 0.140089 -2 4 4 
8553 6 0.458163 0.771488 0.134406 2 2 -3 
8342 6 0.0582551 0.783558 0.135812 -2 2 0 
8101 6 0.958213 0.777521 0.128699 0 -5 8 
5005 5 0.380597 0.790136 0.121397 2 -1 1 
7214 5 0.214903 0.86661 0.108563 -4 0 -2 
5105 6 0.567873 0.863261 0.157379 -2 -2 4 
6835 6 0.748832 0.860178 0.137811 -2 3 2 
6985 5 0.849747 0.854696 0.143094 4 -3 3 
8078 5 0.992758 0.856795 0.209217 -1 1 0 
5302 6 0.951186 0.830001 0.13366 0 -4 2 
8881 5 0.355707 0.868202 0.184057 -3 -5 -3 
6731 6 0.301552 0.913501 0.185144 -4 3 -3 
6031 6 0.0571689 0.934355 0.196631 3 -3 1 
6450 6 0.439939 0.907442 0.164354 1 -3 -1 
5801 6 0.0856457 0.943644 0.168302 2 0 3 
7325 6 0.7885 0.951889 0.144393 4 -5 3 
8967 6 0.438679 0.0187018 0.140874 -2 4 2 
5323 6 0.563125 0.980548 0.146611 -2 -1 0 
6477 6 0.157711 0.955849 0.132518 6 -2 0 
6841 5 0.268436 0.0219207 0.127269 2 1 4 
8981 6 0.0303301 0.985001 0.197304 2 -2 0 
7170 6 0.595279 0.0585045 0.145535 4 10 -3 
6605 5 0.811418 0.00711034 0.152667 0 -1 3 
6099 6 0.224283 0.0215715 0.183476 -1 -2 4 
7829 6 0.109915 0.111713 0.195458 3 0 -2 
5904 6 0.867434 0.0732238 0.192861 4 4 0 
8347 6 0.938745 0.109425 0.188614 -4 -5 -1 
6615 5 0.0879994 0.123928 0.172369 2 1 3 
6870 6 0.0522734 0.146955 0.188319 2 0 -1 
8804 5 0.510013 0.128757 0.172087 -1 2 2 
6579 6 0.665637 0.174859 0.158567 0 9 -7 
7348 5 0.666832 0.145866 0.150268 3 1 -2 
7079 6 0.310518 0.191018 0.173916 -2 -2 0 
8288 6 0.288393 0.183382 0.137498 0 1 3 
7686 6 0.441454 0.170632 0.146342 -2 -3 1 
7778 6 0.833289 0.150232 0.185286 1 -3 -4 
8869 5 0.284399 0.163893 0.150531 2 2 -6 
5673 6 0.971881 0.206118 0.152484 -8 -1 2 
7313 5 0.53038 0.187828 0.17511 6 -5 2 
7557 6 0.100734 0.20753 0.1545 1 -1 1 
5053 5 0.26056 0.219089 0.162803 2 0 3 
8161 6 0.574859 0.267732 0.136513 1 -6 1 
5632 5 0.378389 0.269846 0.192891 -7 -2 3 
6295 6 0.720947 0.304243 0.16615 -3 -1 2 
6260 6 0.359785 0.245463 0.180019 0 1 0 
6520 6 0.436662 0.307366 0.145241 3 2 -5 
8617 5 0.866835 0.302841 0.152154 -1 -3 -1 
7105 5 0.894387 0.30372 0.187122 3 -1 0 
5114 6 0.000836891 0.349074 0.163555 5 0 -2 
8788 5 0.588269 0.325935 0.169828 1 -3 -1 
5245 6 0.63521 0.326405 0.143788 3 4 5 
8523 6 0.274371 0.384927 0.145431 -1 -1 2 
8972 5 0.381598 0.39175 0.185682 3 8 3 
5629 6 0.111463 0.349834 0.179863 2 -4 -5 
5282 6 0.57119 0.374088 0.146767 -2 1 -2 
7363 6 0.919991 0.371567 0.202033 1 -5 3 
7353 5 0.0136866 0.4159 0.168417 6 2 1 
6337 6 0.799088 0.426663 0.167646 5 0 -2 
8838 5 0.0553957 0.45758 0.183398 -2 3 -3 
5521 6 0.764116 0.462615 0.163849 0 6 -1 
8903 5 0.761748 0.443615 0.169859 0 1 -2 
6050 6 0.790881 0.475338 0.20442 1 -1 3 
7667 6 0.947285 0.498876 0.12845 -3 0 -2 
6910 6 0.899135 0.479466 0.171621 -2 -1 -4 
5996 6 0.983942 0.525905 0.161422 2 6 8 
6741 5 0.334605 0.542364 0.161638 -5 -1 0 
8065 6 0.093513 0.591537 0.163634 -2 -3 3 
8462 6 0.290178 0.595801 0.156391 0 -2 1 
6259 5 0.622355 0.621049 0.113131 5 -3 2 
7592 5 0.847895 0.620565 0.156171 -1 0 -2 
6993 5 0.066965 0.594473 0.145267 2 1 4 
8689 5 0.145033 0.667027 0.167912 7 1 2 
5256 6 0.267638 0.660328 0.159936 5 0 5 
5664 5 0.841779 0.700247 0.164108 0 4 -2 
7616 6 0.647252 0.704787 0.189449 -1 -1 0 
8446 6 0.449657 0.756821 0.193498 -3 1 -5 
6697 6 0.91742 0.689593 0.149872 -4 3 -1 
6688 6 0.020242 0.750881 0.171689 3 -2 5 
8907 6 0.812816 0.732677 0.16904 -2 1 -3 
6691 5 0.825373 0.744645 0.158848 -4 4 4 
7356 6 0.21529 0.744244 0.160025 1 -1 3 
9000 6 0.278438 0.761224 0.159072 3 -2 -2 
6833 6 0.313804 0.764835 0.192739 1 1 -3 
5286 5 0.413375 0.813974 0.163261 0 -2 0 
5424 6 0.717009 0.792212 0.171518 0 -1 0 
6027 5 0.0651301 0.80621 0.167466 0 -1 1 
7564 6 0.402222 0.823923 0.178393 -4 5 1 
8783 5 0.998866 0.848704 0.187749 -1 0 -3 
7939 6 0.397581 0.859438 0.151518 4 -1 4 
6222 5 0.0922005 0.860582 0.20126 0 -3 0 
7882 6 0.748642 0.885155 0.168867 3 1 4 
5969 6 0.87918 0.879963 0.176161 1 -1 1 
7929 6 0.907911 0.849067 0.194341 2 -2 -1 
8612 5 0.528632 0.91141 0.171662 4 4 -2 
6087 5 0.921201 0.906446 0.151323 0 1 4 
8686 6 0.624904 0.979749 0.160899 0 -7 -2 
8112 6 0.814361 0.930605 0.145407 -6 0 -3 
6702 5 0.902666 0.952055 0.198593 5 -2 1 
5078 5 0.992524 0.977976 0.13628 0 3 0 
7005 6 0.145371 0.968319 0.138975 3 1 -10 
6662 5 0.525673 0.00542014 0.184337 2 1 1 
5647 6 0.955826 0.969672 0.198523 -1 0 -4 
5658 5 0.664778 0.0110372 0.185621 -2 1 -5 
6138 5 0.111641 0.043843 0.190058 2 -1 -5 
8526 6 0.288859 0.0507636 0.190184 -2 -1 0 
8565 5 0.974265 0.997445 0.159014 0 4 -1 
6177 6 0.629926 0.0265866 0.173862 2 0 2 
5852 6 0.799275 0.0726407 0.221719 0 1 0 
7770 5 0.98602 0.105956 0.205518 -7 -1 8 
6346 6 0.556635 0.110198 0.150091 -1 5 -3 
7375 6 0.88532 0.15573 0.211866 -1 4 1 
5026 5 0.348197 0.188816 0.171178 4 3 -8 
5404 6 0.16674 0.179324 0.185518 2 2 0 
8652 6 0.658776 0.207601 0.224228 3 -3 2 
5687 5 0.46861 0.205723 0.208581 0 -5 -2 
6377 6 0.579753 0.255009 0.182288 2 -5 -2 
5119 6 0.177949 0.257879 0.189447 0 -3 0 
7146 6 0.435619 0.276529 0.217703 -6 1 -1 
5722 5 0.498673 0.272305 0.191702 0 0 4 
8103 6 0.951976 0.277259 0.17767 1 3 -2 
8451 6 0.180359 0.259631 0.212511 4 4 2 
8649 6 0.816849 0.301554 0.181526 -2 1 -2 
8507 6 0.835705 0.288907 0.218862 0 -4 0 
7630 5 0.20561 0.311255 0.197839 0 -1 3 
5811 5 0.481985 0.308301 0.225509 2 2 1 
7660 6 0.804886 0.293594 0.17883 0 3 2 
7992 6 0.127417 0.342512 0.185007 1 1 5 
7726 6 0.654252 0.317995 0.235244 3 -3 0 
5344 5 0.907723 0.311574 0.233738 7 0 0 
6025 5 0.128698 0.330693 0.200572 0 -1 1 
6842 6 0.367121 0.392604 0.184239 -2 -3 1 
6378 6 0.433628 0.36141 0.222145 -1 -3 -2 
7392 6 0.46508 0.355498 0.210338 0 0 4 
6601 6 0.0878061 0.353444 0.202604 1 1 1 
7606 5 0.0996746 0.40554 0.1866 2 -2 1 
7349 6 0.60811 0.395192 0.148002 2 3 -3 
7843 6 0.658758 0.401205 0.161448 7 2 0 
7466 6 0.329678 0.406985 0.208194 3 4 3 
5183 6 0.913833 0.394316 0.14656 -1 4 0 
8344 5 0.193466 0.454072 0.200357 5 -1 0 