ITEM: TIMESTEP
20000000
ITEM: NUMBER OF ATOMS
9000
ITEM: BOX BOUNDS pp pp pp
-75 75
-75 75
-75 75
ITEM: ATOMS id type xs ys zs ix iy iz 
5157 5 0.147372 0.0174959 0.991809 5 1 0 
8021 5 0.273312 0.995597 0.0194344 3 6 -3 
6552 6 0.290765 0.0534378 1.00159 2 2 -1 
7727 5 0.150053 0.0513125 0.00452666 -1 1 2 
6270 6 0.303172 0.079768 0.0676766 -1 3 3 
6458 6 0.287215 0.0818566 0.0367378 -3 -3 1 
6816 5 0.369203 0.0487279 0.0279517 3 -3 1 
8504 6 0.431699 0.0316861 0.0362592 8 5 1 
7254 5 0.510486 0.0601027 0.9916 3 -3 0 
8804 5 0.650797 0.0978874 0.0436036 4 -3 -5 
5528 5 0.590816 0.196874 0.0530864 0 -1 0 
5410 5 0.30751 0.18741 0.0213391 1 0 -1 
6026 6 0.323819 0.113628 0.984444 -3 0 0 
7434 6 0.454251 0.151462 0.982669 1 5 1 
7647 5 0.676123 0.16842 0.0309034 1 4 -2 
6063 6 0.703254 0.204981 0.986614 -1 -1 -1 
7209 5 0.0328447 0.250563 0.00135915 5 0 -2 
6869 5 0.162527 0.192864 0.00860923 -4 0 2 
6390 5 0.278805 0.205613 0.0596453 -3 1 2 
7577 5 0.512053 0.20558 0.027225 -2 1 -1 
5318 5 0.571136 0.248167 0.975738 6 -2 -1 
8309 6 0.909327 0.194873 0.996788 2 2 -1 
6359 5 0.489812 0.25552 0.0532192 6 2 -3 
7141 5 0.455177 0.246631 0.0242914 -1 -2 3 
6011 6 0.814311 0.216553 0.0167934 -1 5 -3 
5247 6 0.865641 0.251187 0.0296396 4 5 6 
7767 5 0.457446 0.298589 0.0101462 -6 2 2 
7139 6 0.798833 0.289789 0.963411 -5 -2 -4 
7864 6 0.912002 0.315706 0.0103047 -1 0 -2 
6934 6 0.495956 0.36108 0.0459143 4 -1 -1 
7980 5 0.219721 0.324753 0.022697 1 1 -1 
7265 5 0.213505 0.352629 0.00149424 0 2 5 
7320 6 0.259478 0.33808 0.973218 2 2 1 
7950 5 0.893345 0.362746 0.0114228 3 0 4 
8971 5 0.312801 0.373318 0.0378069 -7 1 -2 
6131 5 0.644356 0.369384 0.0171201 -1 2 6 
7208 6 0.218055 0.42316 0.99901 1 3 7 
5455 6 0.610665 0.44579 0.028063 -1 -2 -1 
5883 6 0.714842 0.402813 0.0455493 -3 2 4 
8875 5 0.99996 0.406027 0.0203797 2 2 5 
8156 5 0.0999426 0.409659 0.0472618 2 -2 1 
7712 5 0.231267 0.455025 0.0222707 -7 2 -3 
6937 5 0.0737696 0.510078 0.0175952 1 3 -1 
8220 6 0.70018 0.481286 0.00364103 1 3 4 
7478 5 0.901669 0.459709 0.0298627 -2 1 1 
6094 6 0.32647 0.52011 0.0251623 -1 3 3 
5023 5 0.456083 0.469111 0.00965608 -5 -4 4 
7610 6 0.824827 0.471651 0.025567 -1 -1 1 
5992 6 0.472296 0.510353 0.0111751 1 0 -2 
8818 6 0.793081 0.561685 0.0234145 -2 -1 -2 
8836 6 0.799873 0.562328 0.0211178 1 -1 -7 
7633 6 0.399992 0.573887 0.0404006 -1 2 -1 
7329 5 0.758138 0.539724 0.999028 -2 6 3 
8552 6 0.178924 0.550132 0.0399114 -1 1 4 
7942 6 0.226736 0.562335 0.0201943 5 0 5 
6818 6 0.451901 0.599857 0.966855 5 1 3 
5674 5 0.54757 0.599128 0.00708956 4 -2 1 
8970 6 0.628955 0.576468 0.999408 4 -3 0 
5211 6 0.520407 0.640884 0.0129108 1 2 -1 
6722 6 0.00783491 0.634511 0.0331178 2 -1 3 
5851 6 0.508215 0.67003 0.996791 3 0 1 
7946 6 0.753208 0.655189 0.0151662 -2 -1 -4 
7846 6 0.0828287 0.660074 0.000833081 -2 2 4 
7768 6 0.271736 0.700728 0.0147376 1 1 2 
6839 5 0.327219 0.63896 0.00630603 2 -6 4 
7098 5 0.419583 0.706219 0.0196232 -5 -1 3 
8195 6 0.773593 0.693835 0.0635585 2 -1 5 
5729 5 0.883104 0.670934 0.0172346 3 0 5 
7360 6 0.946086 0.660196 0.00221427 -1 -1 0 
6944 5 0.209463 0.704768 0.00782628 2 -3 0 
8819 6 0.172145 0.709409 0.00273421 2 5 1 
7559 5 0.966185 0.760401 0.0221345 1 5 2 
8344 6 0.417763 0.78594 0.00847381 0 1 2 
8777 6 0.574265 0.757612 0.00730276 -1 1 -1 
6175 6 0.314706 0.787619 0.960374 0 -3 2 
8147 5 0.840037 0.784834 0.00546145 5 -5 -1 
7936 6 0.243391 0.809329 0.0154332 -4 1 -2 
7586 6 0.84959 0.886384 0.974265 1 -1 0 
6986 6 0.100107 0.877121 0.0192576 4 0 0 
7004 5 0.436693 0.839751 0.0381697 -1 -2 0 
5346 5 0.992905 0.893104 0.0191239 -2 -5 0 
7938 5 0.743277 0.917762 0.991163 1 -3 -3 
6571 5 0.827076 0.937066 0.0541523 -1 -4 3 
5285 6 0.0340354 0.947222 0.975286 1 -2 -4 
8539 6 0.110944 0.942011 0.00980119 0 2 -2 
7165 5 0.28092 0.999553 0.0367998 -1 -5 0 
6399 6 0.444842 0.938051 0.0351369 2 6 4 
7215 5 0.562217 0.955137 0.0113665 6 0 -2 
5839 5 0.54705 0.943145 0.994188 1 1 2 
7626 5 0.793783 0.949024 0.0350049 3 6 -4 
7411 5 0.48722 0.969096 0.0174639 4 2 0 
8770 6 0.828703 0.937732 0.989742 -4 3 0 
5121 6 0.979162 0.0208852 0.968397 3 5 3 
8034 5 0.218476 0.957163 0.0187488 5 -8 1 
7702 6 0.906923 0.00517825 0.0364256 3 1 0 
8107 6 0.182706 0.030873 0.0481115 -3 0 1 
8231 6 0.257576 0.0503321 0.0443314 -2 -1 -2 
7651 6 0.424404 0.0124194 0.0190113 -3 -5 0 
5166 6 0.875883 0.00996002 0.0168045 3 2 2 
8632 6 0.144111 0.0664122 0.0429313 -2 -1 -3 
6935 6 0.803978 0.0759686 0.0648522 3 3 -2 
7564 6 0.0494861 0.0715175 0.0101768 4 3 -4 
6329 5 0.371358 0.0719224 0.0235364 2 -1 -7 
7783 6 0.49978 0.062672 0.0476683 3 0 -1 
5034 6 0.657552 0.0935045 0.0299233 0 -2 -1 
6747 5 0.536404 0.0796578 0.0489124 3 -1 -2 
5329 5 0.904706 0.116101 0.0189792 -1 -4 -1 
6978 6 0.683588 0.133674 0.033688 1 3 -4 
7192 5 0.602582 0.212671 0.0539201 0 -2 2 
8183 6 0.250483 0.201342 0.0168861 -2 1 6 
8144 6 0.272035 0.266202 0.0647161 1 0 1 
7328 5 0.499891 0.206477 0.00285767 -2 1 1 
5199 6 0.926715 0.216195 0.0633486 0 -2 2 
7118 5 0.361768 0.286836 0.0350774 2 -4 1 
6770 6 0.501216 0.346166 0.0647268 -5 2 5 
6644 6 0.914522 0.307875 0.0417016 2 3 0 
6396 5 0.894608 0.30495 0.0401687 6 0 5 
6180 6 0.583537 0.378956 0.0426216 -1 -1 0 
7304 6 0.959396 0.339389 0.0730044 0 2 1 
5508 6 0.164776 0.407689 0.0169947 1 -1 2 
5903 6 0.132536 0.377463 0.0054087 -4 -1 -2 
8193 6 0.259763 0.406637 0.0705952 2 6 4 
7021 6 0.562035 0.421457 0.0207966 -2 -2 -1 
8087 5 0.730752 0.411932 0.0136266 -3 -4 -1 
8066 6 0.949911 0.462552 0.0235801 1 -4 0 
8989 5 0.839079 0.446063 0.0193401 -4 -4 -2 
7692 6 0.91484 0.457318 0.0252376 2 -1 2 
6929 5 0.291355 0.490755 0.0528773 -1 0 1 
6119 5 0.671901 0.466651 0.0493469 2 2 3 
6991 6 0.145295 0.528403 0.0309368 4 -2 -2 
8358 5 0.397833 0.508376 0.0619873 -1 1 -1 
6574 5 0.444855 0.584899 0.0426732 -3 0 3 
6781 6 0.284605 0.666062 0.0448539 2 -1 3 
7652 6 0.401529 0.670773 0.0526773 0 -3 -1 
5387 6 0.641897 0.687966 0.0161001 4 0 -1 
7453 5 0.740904 0.668545 0.0172535 -2 -3 -2 
8362 6 0.9559 0.622169 0.00928541 3 -1 2 
8192 5 0.612574 0.700665 0.0232465 1 0 1 
7654 6 0.632008 0.636084 0.0231123 3 -2 3 
8123 5 0.850968 0.663055 1.00037 -3 2 0 
6479 5 0.694444 0.678823 0.047046 -1 -6 -1 
5570 5 0.89878 0.709932 0.996346 5 1 -4 
7983 5 0.907963 0.72213 0.0669344 -4 2 1 
7993 5 0.142795 0.681146 0.0512407 0 0 0 
7380 5 0.284983 0.683677 0.0210874 -3 -3 5 
5106 6 0.28056 0.768978 0.0255972 -2 1 3 
8005 5 0.281982 0.792985 0.00713122 3 0 3 
7324 6 0.637115 0.779558 0.0201421 -3 0 2 
5449 6 0.674415 0.797409 0.0361327 3 -4 0 
8151 5 0.708018 0.814836 0.0251749 0 -3 2 
6455 5 0.618474 0.835805 0.0262048 1 2 -2 
6380 5 0.726962 0.828446 0.0354789 3 -5 -2 
5966 5 0.422002 0.896776 0.0433244 -1 -2 0 
8028 5 0.813406 0.888611 0.0193977 1 -8 0 
8160 6 0.977693 0.888916 0.995794 -3 0 1 
5631 5 0.0146977 0.925314 0.0371687 4 -4 2 
6806 5 0.780166 0.938648 0.0486023 -2 2 4 
6244 6 0.743623 0.942901 0.996548 -6 3 -1 
5264 6 0.630031 0.979351 0.0541061 -4 0 6 
5226 6 0.969175 1.00119 0.0312629 -6 1 -2 
7725 6 0.165578 0.985284 0.0663589 -2 0 -1 
6772 5 0.342499 0.992224 0.0170605 -4 -3 3 
7566 5 0.941629 0.022977 0.0570597 -1 2 -3 
5898 6 0.937164 0.0187091 0.0781717 3 -4 -2 
7985 5 0.776926 0.0409752 0.0716292 -2 -1 0 
8004 6 0.519128 0.0918533 0.0643284 1 2 -1 
8662 6 0.43961 0.124747 0.0620421 3 -1 2 
8408 6 0.306895 0.129809 0.0710389 2 -3 0 
7065 5 0.326523 0.131052 0.0376876 0 0 2 
7401 6 0.450883 0.163665 0.0614953 -3 1 3 
6789 5 0.509045 0.169415 0.00940538 -1 2 1 
5016 6 0.552851 0.17247 0.0845951 -5 -5 2 
5266 5 0.736507 0.183847 0.0499275 0 -3 0 
6213 6 0.090363 0.202334 0.0477355 1 -4 4 
6340 5 0.787743 0.195466 0.0571096 -1 0 -1 
5786 5 0.905432 0.176091 0.0420818 4 1 -4 
6815 5 0.061423 0.203408 0.0826177 4 1 1 
7050 6 0.0229684 0.231082 0.0615056 0 -4 1 
7213 6 0.154043 0.261264 0.0387598 -2 -1 3 
6710 6 0.44645 0.272832 0.0285902 -2 0 3 
6254 6 0.509028 0.294492 0.0813641 -2 1 3 
6803 5 0.66706 0.284771 0.0574744 0 -3 -1 
7492 6 0.229361 0.271283 0.0614359 -1 -3 -2 
5482 5 0.44929 0.303069 0.0395096 1 -1 -1 
5317 6 0.569288 0.279748 0.0484386 -3 2 2 
6848 6 0.9232 0.296858 0.0513046 0 1 6 
8893 6 0.724952 0.323316 0.0903172 -3 2 5 
7756 5 0.953194 0.299793 0.0625832 0 5 0 
5900 5 0.238209 0.336989 0.0374955 -3 -7 2 
5238 5 0.792301 0.302867 0.0249983 3 -2 -3 
5801 5 0.969615 0.316936 0.0215267 1 -1 -3 
7035 6 0.82378 0.391874 0.0320473 -4 -2 -1 
6196 5 0.296907 0.340415 0.0683291 3 1 0 
6508 6 0.699311 0.406751 0.087282 -2 3 -1 
7818 5 0.797322 0.379057 0.0221146 -2 0 -3 
5441 6 0.310146 0.364458 0.0307601 -1 0 -3 
5223 6 0.307779 0.401282 0.0554976 2 -3 1 
7741 5 0.72172 0.393049 0.0833619 7 2 5 
5333 6 0.757404 0.421057 0.0571604 2 1 1 
7185 6 0.788897 0.358586 0.0815635 -2 -1 3 
5514 5 0.86848 0.42458 0.0526966 1 1 4 
8008 6 0.032624 0.436672 0.0383925 1 5 -1 
7274 6 0.0497107 0.466306 0.0512109 -5 6 5 
5690 6 0.322141 0.461683 0.0781783 -3 1 0 
6896 5 0.432405 0.429062 0.0477057 -1 2 1 
5039 5 0.5727 0.434659 0.040664 1 1 2 
8683 6 0.918634 0.491273 0.0610606 0 1 1 
7579 6 0.176611 0.485033 0.0623045 0 0 4 
7641 5 0.646703 0.491076 0.0818672 1 1 1 
8249 6 0.89048 0.552193 0.0792562 -2 -3 3 
7926 5 0.486756 0.619771 0.0711883 3 3 5 
5411 6 0.651782 0.608482 0.0351155 1 0 4 
7418 6 0.367539 0.669167 0.0589757 2 2 -1 
5550 5 0.0725167 0.699147 0.0365299 -5 0 -1 
7804 6 0.182429 0.669216 0.0627371 2 3 0 
6928 6 0.520987 0.656068 0.0761002 -2 1 0 
8838 5 0.602583 0.687373 0.0166576 0 -2 -4 
8790 5 0.53502 0.670908 0.0554008 -3 -2 0 
5536 6 0.839966 0.676172 0.0800338 0 0 5 
6826 5 0.719137 0.760127 0.0550073 -3 4 6 
6417 5 0.130393 0.748418 0.07753 5 -5 1 
6569 6 0.694671 0.744817 0.0687982 1 -1 -2 
6565 6 0.870272 0.731337 0.0678108 0 -2 -4 
5136 5 0.860016 0.787375 0.0736096 -1 -1 2 
5618 5 0.887824 0.761189 0.0533864 0 -3 0 
6086 6 0.0160432 0.819263 0.0598884 2 -1 -3 
6729 5 0.363473 0.815988 0.0324884 0 -4 0 
8927 5 0.12548 0.823264 0.00558573 0 -3 2 
5315 6 0.533024 0.860692 0.0703115 -2 2 4 
8922 5 0.111416 0.851607 0.0855845 -1 0 4 
7241 6 0.304856 0.869296 0.0795091 2 -4 -1 
5522 5 0.215726 0.903706 0.0707798 -2 -1 -6 
7151 6 0.397256 0.898125 0.097425 1 0 3 
5197 6 0.0101309 0.961695 0.0592531 1 1 -1 
6364 5 0.103444 0.926618 0.0554396 -7 -3 0 
6045 6 0.168404 0.92434 0.0524902 5 -3 4 
8805 5 0.191378 0.909942 0.0645301 3 -5 -3 
6238 5 0.476261 0.90892 0.0743581 -1 -3 4 
6560 6 0.670322 0.918395 0.0719846 -3 3 2 
8861 6 0.978905 0.940886 0.0405807 -4 -1 1 
6959 5 0.0452805 0.958649 0.0687876 0 -5 3 
7656 6 0.277174 0.0213848 0.0385674 -3 2 -4 
7442 5 0.631956 0.981506 0.0442229 4 -4 2 
6264 6 0.896449 0.0297857 0.0824011 0 6 -1 
6532 5 0.606335 0.0039219 0.1225 5 4 2 
6588 6 0.273007 0.0193983 0.11704 -2 0 -2 
5899 6 0.0291435 0.0562185 0.0537381 0 0 4 
7954 6 0.181285 0.00549811 0.0366434 -4 -7 1 
6235 5 0.358201 0.031403 0.0837244 3 5 6 
8802 5 0.476379 0.0691377 0.0704311 -1 4 -5 
8116 6 0.509124 0.0141383 0.0843384 0 -1 -6 
7161 6 0.68029 0.0815081 0.114886 0 3 -2 
5395 5 0.103642 0.0705268 0.109021 0 2 0 
5978 6 0.966904 0.0990194 0.0668067 -4 -4 -2 
8943 6 0.0328496 0.0895735 0.0720524 4 -2 4 
8648 5 0.190695 0.0948773 0.102088 4 2 1 
7866 6 0.0980125 0.119829 0.0852918 -1 0 -6 
8314 5 0.469396 0.160621 0.102248 4 -1 -5 
7746 6 0.510555 0.123398 0.0473802 -3 3 4 
8936 6 0.0244993 0.171167 0.0814622 -1 -5 3 
6960 5 0.528698 0.131457 0.0901344 -4 4 1 
5531 6 0.845492 0.152772 0.0666206 -5 -1 4 
8586 6 0.54771 0.156588 0.0536851 0 -2 5 
5328 5 0.639371 0.143798 0.0979072 -2 -1 -1 
6598 6 0.840296 0.212614 0.105145 -4 0 -1 
7541 5 0.171285 0.214349 0.0696264 1 -3 -2 
8814 6 0.677907 0.212564 0.095298 -1 -2 3 
5627 5 0.148974 0.262501 0.0906791 5 1 1 
6704 6 0.903213 0.294003 0.041594 4 6 -1 
8682 6 0.635264 0.326834 0.0963415 1 4 2 
7011 6 0.292513 0.284347 0.108366 -4 -2 2 
5933 5 0.336542 0.310884 0.0629894 2 -4 2 
7106 5 0.494996 0.400395 0.12136 1 1 0 
6642 6 0.874461 0.362653 0.0637545 -4 -2 -4 
6029 6 0.361112 0.430654 0.0647722 -2 -1 0 
7581 6 0.403597 0.38932 0.0930548 5 2 -1 
5015 6 0.548817 0.420622 0.0457391 1 6 -1 
8109 6 0.89722 0.341197 0.0500924 2 -5 -6 
8044 5 0.974924 0.386531 0.109388 0 4 -2 
5854 5 0.0150793 0.392014 0.0853581 2 2 0 
6189 5 0.216397 0.441791 0.0950976 2 0 0 
8421 6 0.878346 0.506802 0.0619852 -8 0 -1 
7687 6 0.596913 0.485877 0.074793 2 4 1 
5646 6 0.664046 0.488757 0.0868436 3 2 -1 
7066 5 0.532841 0.521127 0.106695 8 -1 4 
6766 5 0.795323 0.525375 0.0821074 0 -1 -4 
7706 6 0.446199 0.513147 0.114799 0 5 0 
7110 6 0.654602 0.561026 0.0924927 1 2 1 
6064 6 0.719559 0.55976 0.0636654 1 1 4 
6894 5 0.895751 0.573228 0.107107 1 0 -1 
7522 6 0.132552 0.593155 0.070263 3 2 2 
6385 6 0.565646 0.621232 0.0901411 3 -4 2 
6545 6 0.676568 0.59658 0.0620067 0 -2 -2 
8114 6 0.876299 0.581014 0.0744247 2 0 0 
5920 5 0.301819 0.653742 0.105771 2 3 5 
6328 5 0.603996 0.659855 0.0504238 1 -3 1 
6034 5 0.169069 0.690664 0.0833967 3 4 5 
6066 6 0.421384 0.656049 0.0784626 0 -1 -3 
5945 6 0.31709 0.663855 0.0737055 -8 1 4 
7229 6 0.669542 0.686128 0.0542981 -1 1 1 
8100 5 0.727229 0.679062 0.0804203 -1 -2 -1 
6434 5 0.820036 0.690211 0.0793349 2 1 0 
8326 6 0.238772 0.736766 0.0781256 -3 -3 3 
7452 5 0.99133 0.727348 0.0689445 2 -2 -2 
7386 6 0.624754 0.762639 0.0326247 -6 3 3 
5487 6 0.918928 0.775383 0.0824264 1 -3 -8 
7211 6 0.0618632 0.796593 0.0887383 -3 -6 -2 
8187 5 0.415368 0.795751 0.0569701 3 -4 -1 
7744 5 0.808726 0.747981 0.129885 1 3 1 
5871 6 0.307153 0.812699 0.126581 2 1 0 
7514 6 0.377907 0.811376 0.0950294 1 -3 -1 
6597 6 0.359403 0.790937 0.0738161 0 3 -1 
8032 6 0.546213 0.813074 0.0850657 -4 4 1 
5154 6 0.286156 0.866767 0.0649141 3 1 2 
8751 6 0.81932 0.896481 0.0888018 -3 1 0 
5683 6 0.366102 0.894591 0.0785166 1 0 1 
6478 6 0.600455 0.892296 0.0569029 -1 6 0 
5616 5 0.894521 0.86891 0.0901364 2 -2 2 
7041 6 0.0184197 0.938954 0.0343374 1 -2 -2 
7203 6 0.0679702 0.962727 0.06686 4 -4 2 
8955 6 0.147991 0.932786 0.0758023 -5 -1 1 
7530 6 0.456829 0.91207 0.0619156 0 4 -2 
5988 5 0.683235 0.908985 0.100144 -4 -4 1 
7421 5 0.726982 0.904936 0.0621778 6 -4 2 
7787 5 0.379959 0.957175 0.0833082 2 -4 1 
7482 5 0.692607 0.966551 0.0904063 3 2 -3 
8597 6 0.457434 0.992694 0.0962576 -5 0 1 
8138 5 0.603079 0.996521 0.0854207 -1 3 2 
7443 5 0.589798 0.0149954 0.131926 5 1 3 
6226 5 0.776448 0.025846 0.0680229 -2 1 2 
5796 6 0.30536 0.0335512 0.100965 -3 4 2 
5697 6 0.509733 0.0731841 0.180444 -1 4 4 
8599 5 0.538723 0.0437945 0.145288 3 -1 1 
6517 5 0.34759 0.0602392 0.145646 2 -1 -1 
8514 5 0.0840272 0.0604115 0.102499 -1 2 -3 
8787 5 0.0334233 0.0684506 0.0728933 0 0 3 
5730 6 0.549975 0.100729 0.121193 -1 -1 1 
5472 6 0.54869 0.163245 0.168748 0 0 -2 
8957 6 0.0400837 0.146284 0.084172 0 4 0 
6603 6 0.635816 0.153527 0.0999744 1 -2 -2 
6407 6 0.484008 0.14873 0.076946 6 0 0 
7628 6 0.574238 0.153493 0.114386 -5 -3 -3 
6639 5 0.981335 0.142519 0.107835 1 -3 2 
6322 6 0.20873 0.188324 0.103616 0 -3 -1 
7905 6 0.344143 0.170673 0.0989516 2 -1 1 
8668 5 0.900322 0.143882 0.0894307 1 0 -2 
7617 6 0.0912634 0.221566 0.102211 -3 2 -4 
6069 6 0.675547 0.244801 0.115531 2 3 -2 
5352 6 0.72867 0.179016 0.103867 0 -3 -1 
5600 6 0.829292 0.248062 0.103226 -2 0 0 
6749 6 0.670288 0.241863 0.0876047 3 0 4 
8988 6 0.926245 0.247245 0.0985366 -3 -1 1 
6017 5 0.369029 0.28609 0.123619 2 3 -2 
6735 6 0.534653 0.25751 0.136293 -5 2 -2 
5262 5 0.425132 0.292235 0.129119 -2 -4 -5 
7372 6 0.840241 0.283387 0.0764438 -3 1 5 
6412 6 0.661528 0.394622 0.0738357 3 4 1 
7644 5 0.10902 0.402287 0.12794 1 -6 1 
6456 5 0.272678 0.417165 0.130703 1 -1 -1 
5967 5 0.766853 0.447726 0.101453 1 -1 5 
8188 6 0.0213647 0.422128 0.140143 -3 2 7 
5184 5 0.275619 0.440024 0.129869 1 3 4 
5355 6 0.976707 0.467077 0.087897 1 4 -2 
6521 6 0.25163 0.503082 0.102358 -1 0 2 
7781 5 0.569824 0.501397 0.12675 -1 0 1 
6915 5 0.734381 0.476294 0.0998301 -3 -6 3 
6135 5 0.192886 0.508938 0.11835 5 0 -1 
8684 6 0.422162 0.532688 0.132148 -2 -2 4 
8474 6 0.735189 0.551177 0.101214 0 2 -7 
5952 6 0.945769 0.477412 0.0906305 3 1 -1 
6855 5 0.400078 0.534972 0.129363 -1 3 4 
6707 6 0.854406 0.573506 0.158956 -5 -2 -3 
5086 6 0.14124 0.587971 0.0881746 0 -1 -2 
5732 6 0.715162 0.605034 0.104758 0 3 5 
8896 5 0.0304105 0.622775 0.118039 -1 2 -1 
8697 6 0.709109 0.605471 0.074376 2 3 2 
7153 6 0.815722 0.590767 0.113759 0 2 -3 
6058 5 0.218005 0.640849 0.0824166 1 -1 -3 
5545 6 0.493165 0.61597 0.0955311 2 5 -2 
8451 5 0.60774 0.623614 0.0652096 4 3 2 
6482 5 0.642544 0.653539 0.115159 1 3 0 
5838 5 0.325649 0.677722 0.106205 -2 -1 -1 
6258 5 0.373725 0.674482 0.109426 1 1 -1 
7505 5 0.485881 0.666224 0.0992288 -3 3 -1 
6997 5 0.771811 0.680227 0.0417473 0 -4 1 
5772 6 0.0289212 0.735379 0.0950603 0 3 0 
5739 5 0.267353 0.769179 0.0615378 -1 -1 2 
6633 5 0.910857 0.735294 0.155079 -4 2 2 
6100 6 0.805119 0.740405 0.0997025 6 2 -5 
7920 6 0.814691 0.740141 0.0985151 -3 -1 -3 
5150 5 0.92252 0.769831 0.126194 2 1 -4 
8828 6 0.0647839 0.792394 0.0977879 2 1 3 
5241 5 0.218717 0.796457 0.122055 2 6 6 
8302 5 0.349246 0.778208 0.125612 0 2 -1 
5376 6 0.671398 0.796506 0.117338 2 -2 2 
8719 5 0.929852 0.785202 0.107232 3 -1 -1 
8676 6 0.0730097 0.809087 0.111483 2 -5 2 
6398 6 0.296317 0.835604 0.114484 0 -1 2 
5611 6 0.663329 0.806922 0.153815 0 4 4 
8166 6 0.7303 0.80029 0.134323 0 2 2 
5806 5 0.268442 0.838378 0.0824286 0 -1 3 
5925 6 0.589889 0.863526 0.111961 1 0 -3 
8115 6 0.0830346 0.887853 0.0199988 3 -6 -3 
8251 6 0.162489 0.925399 0.131277 7 1 3 
5291 6 0.33772 0.897433 0.101143 1 1 3 
8920 5 0.996447 0.915883 0.078461 1 -1 -3 
6346 6 0.897221 0.93853 0.090236 -2 -4 1 
8969 6 0.00773876 0.934334 0.0677367 5 -2 0 
6481 6 0.315828 0.926036 0.116056 -1 -1 -1 
7990 6 0.378897 0.915805 0.123587 2 2 3 
5722 5 0.558799 0.908826 0.0896945 -2 -2 -2 
7378 5 0.683852 0.971886 0.133168 -1 -1 2 
5379 5 0.23218 0.000541685 0.109537 2 4 1 
8402 5 0.293714 0.977415 0.0896059 0 -4 6 
5290 6 0.700694 0.938263 0.0783734 -1 1 1 
8051 5 0.00787484 0.97293 0.103417 3 -1 -1 
7614 5 0.0415501 0.989141 0.102474 -1 -3 0 
5693 6 0.375239 0.970722 0.102246 -1 -3 0 
7678 5 0.0869488 0.993565 0.126467 0 4 5 
5949 6 0.402765 0.981262 0.0904545 -4 1 -3 
8347 5 0.735717 0.0298385 0.137846 -3 2 -3 
6721 5 0.0409249 0.0345225 0.148727 2 2 -1 
6049 6 0.0519115 0.0393483 0.0834956 0 -2 2 
6272 6 0.921149 0.0134023 0.1128 -5 -3 3 
5571 6 0.419523 0.0922371 0.138919 0 3 3 
5588 6 0.523219 0.0217296 0.136727 2 0 1 
5104 6 0.10174 0.0932848 0.15461 3 3 1 
7815 6 0.570962 0.0442749 0.126934 -3 2 2 
6007 6 0.83385 0.0885612 0.0985293 -2 6 -1 
6188 5 0.396278 0.117037 0.127044 -3 3 -1 
5111 6 0.900215 0.0880012 0.138264 -2 2 -1 
5910 5 0.0772991 0.104418 0.137978 -3 -4 3 
6926 6 0.701077 0.117175 0.136169 1 0 1 
6886 6 0.716844 0.136617 0.122072 1 -4 2 
6883 6 0.873395 0.159348 0.0944822 -1 3 5 
8321 6 0.0407509 0.156322 0.137681 -5 -1 1 
8298 6 0.770208 0.151214 0.164025 -6 0 2 
5095 6 0.940281 0.130895 0.112908 2 -2 2 
8397 6 0.370256 0.197299 0.115462 -3 -1 -2 
5932 6 0.560863 0.161299 0.122588 4 4 -2 
6140 5 0.985505 0.186936 0.178894 -6 -3 1 
7544 5 0.397387 0.236892 0.141258 -2 -4 -5 
5500 6 0.558175 0.248609 0.118284 2 -1 1 
8233 6 0.742255 0.229682 0.161785 -6 1 1 
5319 6 0.320704 0.286488 0.104998 6 2 1 
6405 6 0.563022 0.260986 0.11009 5 3 -3 
5970 5 0.948079 0.235576 0.0941715 -3 -2 1 
7197 5 0.309212 0.303821 0.144849 3 2 1 
8761 6 0.940937 0.259896 0.138617 1 0 5 
6951 6 0.177347 0.256843 0.0703243 7 -2 -4 
8784 5 0.412881 0.261095 0.135758 -4 -2 8 
7738 5 0.661655 0.335979 0.105931 2 2 -3 
6529 6 0.837582 0.298701 0.143216 -3 1 3 
7969 5 0.496764 0.335127 0.0885286 -4 0 0 
6969 5 0.597454 0.335352 0.127412 1 0 -1 
5904 5 0.147293 0.354405 0.11938 4 -2 0 
7545 6 0.457944 0.370844 0.123382 -2 -2 -8 
8096 5 0.540367 0.37768 0.13132 2 4 2 
7949 6 0.804783 0.357946 0.148266 0 -4 0 
5760 6 0.902799 0.395431 0.0646317 3 -1 -3 
6435 6 0.0534451 0.451614 0.130229 3 1 -7 
5856 5 0.838845 0.386368 0.147462 -3 2 1 
5255 6 0.0436551 0.440757 0.120942 5 -2 -3 
6090 5 0.45702 0.423829 0.128375 0 1 1 
5196 6 0.732576 0.468052 0.101239 -2 -1 -2 
5829 5 0.893272 0.432388 0.100721 1 1 -1 
5971 5 0.0237866 0.409302 0.17528 1 2 -2 
8241 6 0.539781 0.442751 0.141304 -1 1 -5 
6204 5 0.857766 0.451701 0.124277 0 4 2 
7464 5 0.204968 0.471278 0.130734 2 -1 -2 
5793 6 0.578196 0.445903 0.119296 0 1 -1 
7863 5 0.114408 0.492314 0.109583 0 -2 -1 
7331 6 0.274359 0.504879 0.107623 1 -2 -2 
7444 5 0.960597 0.480447 0.156785 -2 2 -1 
8092 6 0.923027 0.539806 0.129999 4 -6 -5 
7558 5 0.294462 0.550083 0.118695 2 -7 2 
6230 6 0.329531 0.557275 0.105795 0 3 1 
5959 5 0.592475 0.49315 0.105984 -6 1 -3 
6427 5 0.767953 0.581261 0.140054 1 2 3 
6375 6 0.98792 0.60008 0.0942553 4 -3 0 
5022 6 0.0358541 0.587307 0.136754 0 6 -5 
5029 5 0.380877 0.59335 0.118012 -1 0 -4 
8946 5 0.874848 0.612144 0.102501 -2 -3 -2 
7181 5 0.548848 0.630998 0.135212 4 -2 -2 
6477 6 0.193324 0.64056 0.119533 1 -1 3 
8259 5 0.574054 0.643024 0.121268 2 -4 -1 
7409 5 0.00209389 0.604842 0.121675 3 -2 -1 
6872 6 0.222622 0.707335 0.0905017 0 -2 -1 
8965 6 0.439478 0.693663 0.145135 1 -3 2 
7944 6 0.479162 0.684787 0.108612 3 -2 5 
5480 5 0.138032 0.690425 0.132338 -1 1 -3 
8059 5 0.280923 0.712169 0.135443 1 2 1 
6348 5 0.586302 0.745783 0.118866 4 2 -1 
7058 5 0.938864 0.712981 0.127621 2 -6 0 
6296 5 0.627704 0.748512 0.0998351 2 -3 5 
8390 5 0.871237 0.786193 0.143069 1 -2 0 
8373 6 0.708988 0.749447 0.13964 1 -2 2 
8470 5 0.975919 0.820902 0.130499 2 -1 -4 
8924 6 0.806217 0.81562 0.127565 -3 1 4 
7381 6 0.425235 0.813214 0.11961 -1 2 2 
8189 6 0.625201 0.832258 0.109848 -1 2 5 
8319 6 0.0632659 0.889717 0.0950505 1 1 5 
7895 5 0.698994 0.861026 0.117913 0 -3 3 
7750 6 0.359707 0.870579 0.136851 4 5 0 
6877 6 0.687488 0.883804 0.133093 3 -1 4 
6460 6 0.790276 0.893407 0.0931937 2 3 1 
6993 5 0.851178 0.901724 0.143047 0 3 5 
6619 6 0.431277 0.898338 0.137205 -2 -5 -2 
7981 5 0.710059 0.936323 0.135103 2 -8 2 
7414 6 0.775696 0.881953 0.102664 -3 -4 4 
8644 6 0.332461 0.985002 0.1518 4 1 -1 
7503 6 0.68344 0.967463 0.100817 2 2 8 
7220 5 0.226881 0.980752 0.132808 -7 -1 4 
5117 5 0.0109194 0.953278 0.0942211 0 5 2 
8559 6 0.106403 0.001544 0.143111 2 7 -1 
7398 6 0.227205 0.995986 0.116344 4 -2 2 
6186 6 0.352852 0.00822146 0.157987 -1 0 -3 
6183 5 0.551508 0.0408669 0.141081 2 -2 -1 
7974 5 0.481516 0.0653456 0.133162 -1 0 0 
6199 5 0.783881 0.104058 0.132549 -4 3 2 
6462 6 0.827873 0.0473141 0.157589 3 -4 1 
8340 5 0.73184 0.102924 0.113181 -2 -2 2 
8998 6 0.413778 0.0962669 0.173309 2 1 -2 
5231 6 0.839817 0.0544791 0.160237 2 -1 1 
6113 6 0.441884 0.169875 0.143535 3 -2 -4 
8117 6 0.503929 0.142791 0.142218 1 5 -1 
6523 6 0.905965 0.167985 0.1425 0 1 1 
7907 6 0.0386585 0.158958 0.109469 4 0 1 
5639 6 0.173298 0.206845 0.117417 2 1 -1 
6547 6 0.321017 0.238126 0.157053 3 -3 2 
7705 5 0.949176 0.227494 0.127355 -5 -2 -4 
8834 6 0.475291 0.238743 0.137842 0 1 9 
7446 5 0.910542 0.25369 0.145099 0 0 4 
6334 6 0.956383 0.281354 0.131982 3 3 0 
7266 6 0.116375 0.244727 0.158713 -1 -2 2 
5143 5 0.648846 0.307573 0.138206 -1 0 3 
5575 6 0.197399 0.290131 0.162203 -4 0 3 
7334 5 0.266962 0.329349 0.138527 4 -7 -4 
8214 6 0.014039 0.352747 0.165373 2 -1 1 
6108 5 0.857119 0.379717 0.147817 -2 2 2 
5694 5 0.198909 0.377955 0.144218 2 0 -3 
5815 6 0.407818 0.386399 0.148885 3 1 1 
8236 6 0.488052 0.367376 0.158831 1 -4 -2 
6800 5 0.801993 0.358581 0.109226 2 -2 -1 
8065 6 0.188051 0.411115 0.176598 1 1 -5 
6610 5 0.427568 0.394689 0.153516 -2 -1 4 
6071 6 0.375474 0.426258 0.116006 3 -1 -1 
5799 5 0.623266 0.435334 0.142438 -5 -1 2 
8248 6 0.0368071 0.415295 0.139517 3 5 -2 
7851 6 0.16111 0.47322 0.13961 -3 0 1 
7889 5 0.882941 0.455093 0.114378 -2 -3 -1 
7016 6 0.995396 0.49387 0.153134 -1 0 6 
5537 5 0.0991901 0.47046 0.160026 1 0 2 
5351 5 0.207279 0.46086 0.0983307 3 8 -1 
6591 5 0.67051 0.467908 0.164194 -3 1 -1 
5547 6 0.647141 0.480467 0.137677 -1 4 3 
5818 6 0.878252 0.532543 0.159231 -1 -1 9 
8490 5 0.264709 0.574568 0.147472 -2 2 -1 
8337 5 0.251418 0.582261 0.140517 3 -4 1 
5880 6 0.829721 0.636561 0.128057 4 -4 0 
8816 6 0.0382298 0.627878 0.135459 1 1 6 
5788 5 0.659156 0.613722 0.127164 1 -2 0 
7160 5 0.784431 0.632189 0.0954826 0 -3 -1 
5281 5 0.988936 0.61389 0.149626 0 -5 1 
7615 5 0.286687 0.616599 0.129466 2 -2 0 
7117 6 0.606715 0.640679 0.127326 0 1 -4 
6936 5 0.612973 0.66677 0.192147 1 -4 4 
6737 6 0.862654 0.614187 0.162489 -3 -2 -4 
7527 5 0.0325502 0.672793 0.131881 -1 -5 4 
7210 5 0.0241982 0.685138 0.139806 0 -6 9 
5804 6 0.669619 0.677207 0.141299 3 1 4 
7271 5 0.554323 0.69194 0.127367 -4 2 -2 
5509 6 0.731227 0.665759 0.148005 -3 1 -1 
6796 6 0.839919 0.724717 0.167237 1 -2 1 
6511 6 0.535456 0.740114 0.138901 -3 1 3 
6459 5 0.387004 0.757317 0.169762 -1 0 2 
8310 6 0.850825 0.73615 0.151299 -5 3 -1 
5047 5 0.336264 0.807108 0.137617 2 4 -6 
8699 5 0.0183693 0.801843 0.142052 2 3 1 
7075 6 0.57276 0.796576 0.13805 2 0 -4 
6171 5 0.599261 0.83142 0.158101 -3 1 -1 
8339 6 0.651557 0.789958 0.144452 2 -1 -1 
6520 5 0.692431 0.839208 0.183185 2 -5 -4 
5758 6 0.37103 0.871201 0.132094 2 -3 8 
8917 6 0.369329 0.874401 0.170506 -2 -4 -4 
8889 6 0.445703 0.859863 0.123195 -3 0 0 
8839 6 0.961429 0.868182 0.146058 1 -1 0 
5422 6 0.277097 0.891078 0.188445 2 3 -1 
6483 6 0.0893196 0.871629 0.152887 0 3 -3 
6054 6 0.277742 0.923053 0.153099 -1 4 3 
6790 6 0.442902 0.939637 0.15585 -3 1 -2 
5572 5 0.633016 0.907538 0.142355 1 1 -2 
6152 5 0.685631 0.918066 0.182916 0 -4 1 
8678 5 0.0911839 0.942113 0.137935 0 1 -4 
7639 6 0.929203 0.939827 0.123028 -1 1 1 
6432 5 0.996764 0.93305 0.126235 2 -4 4 
7225 5 0.0102385 0.885744 0.140964 0 0 -1 
5293 6 0.50001 0.978507 0.117179 -1 -5 3 
5809 5 0.529628 0.969754 0.148348 -2 0 -3 
6221 6 0.223571 0.00220682 0.154396 0 3 -3 
7717 5 0.281365 0.012625 0.153618 -2 -4 -2 
8415 5 0.830957 0.974496 0.1851 -1 0 0 
5006 6 0.177777 0.0419786 0.172708 1 1 7 
6503 6 0.252382 0.025263 0.191035 2 -1 3 
6314 6 0.44786 0.0313251 0.17162 2 0 3 
6821 5 0.349108 0.0544466 0.139914 -1 -1 5 
7539 5 0.467564 0.0217876 0.178897 -2 3 -2 
7609 5 0.335184 0.073872 0.194735 3 1 0 
6515 5 0.798866 0.0820659 0.171075 4 2 1 
5323 6 0.824709 0.0870499 0.177161 2 -2 0 
8405 5 0.269373 0.0914616 0.130613 -6 0 1 
8208 5 0.674586 0.102429 0.17394 1 6 4 
6736 5 0.000446723 0.10242 0.166302 -5 2 0 
6689 6 0.0171649 0.113308 0.150585 -5 0 -1 
6757 6 0.0883318 0.111049 0.176257 0 0 -3 
7867 6 0.225343 0.157681 0.17536 4 -1 0 
8014 5 0.151977 0.11932 0.151817 -2 -3 7 
5093 6 0.757404 0.175588 0.172313 -3 -2 -2 
6933 6 0.912608 0.15043 0.167208 -5 0 1 
6705 5 0.973976 0.110303 0.153912 -1 1 -2 
6550 6 0.3354 0.170867 0.143143 3 3 3 
7268 6 0.728268 0.18259 0.154016 2 1 -2 
6930 6 0.212471 0.221987 0.141515 3 -2 1 
7416 5 0.271891 0.193408 0.174158 -2 -1 1 
6297 6 0.691497 0.179771 0.165934 -2 4 1 
8858 6 0.233546 0.244542 0.135531 0 1 4 
8055 6 0.346997 0.22496 0.15177 4 3 7 
8608 6 0.456919 0.178919 0.184728 2 3 -6 
7693 6 0.593318 0.213528 0.198946 1 0 4 
8315 6 0.0821315 0.236911 0.182817 0 0 -2 
6502 6 0.489236 0.223947 0.191429 2 2 2 
5950 6 0.350453 0.240556 0.167638 3 0 0 
6898 5 0.712864 0.27016 0.154118 -2 0 -2 
5240 5 0.874893 0.260056 0.218214 1 -6 -1 
8245 5 0.879395 0.278346 0.172076 -1 2 1 
8226 6 0.150896 0.266278 0.16737 2 1 -1 
6706 5 0.332946 0.272945 0.193296 4 2 3 
5535 5 0.771647 0.318067 0.156676 -1 -4 1 
5276 5 0.203177 0.286861 0.122398 -1 1 -2 
6386 6 0.488063 0.306713 0.152278 2 0 0 
6864 6 0.45368 0.310249 0.19128 2 -3 2 
7951 5 0.507593 0.325743 0.16297 -1 -3 -3 
8453 6 0.774927 0.312398 0.217652 -2 2 2 
8463 5 0.929434 0.31084 0.16041 2 1 8 
6469 6 0.230091 0.413661 0.15685 1 3 -2 
5667 5 0.935085 0.406369 0.182032 -1 4 -2 
5770 5 0.932398 0.376795 0.170902 -4 -2 1 
8585 5 0.192997 0.418648 0.192439 0 3 -1 
6687 6 0.926858 0.444228 0.169001 -1 -4 3 
7122 6 0.24716 0.459381 0.17764 3 0 -3 
5989 6 0.676063 0.460441 0.190716 -1 0 1 
6798 6 0.802578 0.482378 0.201727 4 1 1 
6077 5 0.444874 0.527662 0.16274 -5 -6 -2 
5848 5 0.684078 0.454767 0.170798 -1 -2 -1 
6287 6 0.756472 0.493731 0.16336 2 -1 1 
5763 5 0.768985 0.492237 0.149157 2 0 2 
6247 6 0.287517 0.510415 0.140736 2 3 0 
7273 5 0.747474 0.524222 0.132706 3 0 1 
5310 5 0.835087 0.511562 0.206928 -1 0 -1 
8589 5 0.23519 0.545704 0.22011 0 0 2 
7384 6 0.291455 0.602213 0.186485 2 1 -1 
5074 5 0.507622 0.553206 0.146689 1 4 2 
6696 5 0.541359 0.562439 0.209969 2 1 3 
8426 5 0.117872 0.624042 0.193228 2 -3 -3 
6863 6 0.107282 0.576514 0.153914 -3 0 1 
7533 6 0.362154 0.583357 0.162988 3 -1 0 
6267 5 0.582698 0.614999 0.166575 -1 -2 -2 
7374 6 0.655298 0.609623 0.180842 0 0 -1 
5708 6 0.0481476 0.592298 0.163018 -2 -3 -2 
6694 6 0.122053 0.619286 0.211199 0 -3 -2 
6578 5 0.744469 0.592536 0.192536 1 4 -1 
7471 5 0.99168 0.629924 0.181626 4 2 7 
7140 6 0.133883 0.642565 0.125228 0 1 10 
7202 6 0.381119 0.666518 0.155858 0 -2 6 
5503 5 0.603156 0.667829 0.184936 -4 1 -1 
5642 5 0.617859 0.650076 0.1454 6 -1 0 
8020 6 0.66431 0.681743 0.153209 -2 2 -4 
8754 5 0.214471 0.708902 0.169906 -1 0 -5 
5349 6 0.957379 0.718582 0.12007 -2 1 1 
6163 5 0.410678 0.762233 0.147186 1 0 1 
5585 5 0.534562 0.766592 0.180016 -1 6 1 
5740 5 0.188519 0.756488 0.165921 1 -1 0 
7130 5 0.283727 0.80476 0.193425 -5 2 -2 
7780 6 0.355426 0.778803 0.154422 1 0 2 
8234 6 0.43412 0.785625 0.126586 4 1 -2 
5540 6 0.0740998 0.778023 0.140227 4 0 -4 
8290 6 0.324532 0.807006 0.133488 6 3 3 
6623 6 0.441293 0.789634 0.193865 -5 -1 -3 
6167 6 0.7509 0.798001 0.166267 3 2 -1 
7230 5 0.877613 0.851544 0.146079 0 4 1 
8409 5 0.447731 0.845472 0.17989 3 0 -3 
7829 6 0.444067 0.842756 0.169297 -3 -6 -1 
8966 5 0.840023 0.903145 0.146025 3 -3 3 
5063 6 0.951017 0.882903 0.197517 2 -3 1 
8593 5 0.363894 0.922506 0.169671 -5 -3 2 
5688 5 0.64656 0.967891 0.17367 1 4 -1 
8646 5 0.0954517 0.00371309 0.158303 -4 -2 -4 
8778 6 0.167029 0.0154369 0.192728 1 1 0 
6763 5 0.342038 0.962441 0.178481 1 2 1 
5636 5 0.489073 0.972739 0.187424 -4 -2 1 