ITEM: TIMESTEP
20000000
ITEM: NUMBER OF ATOMS
9000
ITEM: BOX BOUNDS pp pp pp
-75 75
-75 75
-75 75
ITEM: ATOMS id type xs ys zs ix iy iz 
8802 6 0.252167 0.0101697 0.992349 3 2 -3 
5787 6 0.975534 0.980508 0.0140348 -5 1 0 
6988 6 0.984841 0.0766486 0.0200397 2 -5 -3 
5220 5 0.10979 0.102365 0.980473 0 6 1 
7441 5 0.221486 0.085176 0.0268364 -3 0 2 
5734 6 0.589124 0.101207 0.0147697 -4 0 1 
6929 5 0.628059 0.0775649 0.987938 -6 -1 -3 
7290 5 0.678389 0.0934938 0.0358358 -6 -3 -3 
5789 5 0.952139 0.165684 0.984848 -1 2 -2 
7274 6 0.0394158 0.130337 0.0183606 1 1 0 
6162 6 0.057212 0.159391 0.998335 3 2 -2 
5435 6 0.860656 0.170592 1.00056 0 0 -2 
5911 5 0.657656 0.188454 0.00798325 -1 1 -4 
6916 6 0.253968 0.205749 0.0179937 4 -1 -1 
6697 5 0.576857 0.248766 -0.00458687 -3 1 8 
5812 6 0.896014 0.247793 0.0343553 -1 0 -3 
5361 5 0.863594 0.254572 0.0361598 2 1 -2 
8839 5 0.0297835 0.255441 0.0287772 -3 2 1 
7104 6 0.651037 0.346322 1.00274 -1 -2 3 
7091 6 0.602606 0.303573 0.0588947 -4 -1 3 
7184 5 0.783725 0.288016 0.028118 4 1 -3 
8422 6 0.839186 0.273314 0.0115621 -2 -3 3 
7339 6 0.936704 0.328666 0.0211763 1 -2 5 
5116 6 0.327193 0.364336 0.99665 2 4 1 
5491 6 0.386577 0.316123 0.0267419 2 1 -4 
8478 5 0.49442 0.372026 0.982224 -5 1 -3 
6018 6 0.550349 0.346878 0.00658921 1 5 -2 
8452 6 0.221918 0.390397 0.997377 0 -3 6 
7786 6 0.343431 0.39836 0.973025 0 -1 -1 
7023 6 0.733113 0.349546 0.0129211 2 -4 4 
8693 5 0.859954 0.399453 0.012092 -1 6 5 
8772 6 0.362767 0.379412 0.0165103 1 -4 4 
7748 5 0.511529 0.407664 0.995692 -3 -1 3 
5728 5 0.633092 0.387645 0.0343875 -2 0 1 
7595 6 0.264653 0.453347 0.0132167 -5 4 0 
5433 5 0.322254 0.427324 0.988532 0 4 -4 
7966 6 0.606825 0.403889 0.0365681 3 3 4 
7379 6 0.9095 0.412 0.066665 -1 -2 3 
6470 6 0.611133 0.401918 -0.000384014 1 1 -1 
6756 5 0.413481 0.429885 0.0324758 4 2 0 
5164 6 0.799846 0.464435 0.0273757 -1 -1 0 
5311 5 0.340771 0.475408 0.0511269 -1 -1 6 
7967 6 0.954926 0.483092 0.984306 2 -1 4 
5544 6 0.154973 0.495842 0.00657571 1 -4 1 
7608 6 0.424297 0.536987 0.0500504 4 2 -1 
7333 5 0.340417 0.554565 0.0537977 0 2 1 
6304 5 0.699846 0.60138 0.0227898 2 1 -2 
7667 5 0.829696 0.562228 0.999326 0 -2 -1 
8528 6 -0.00112155 0.639595 0.0101695 0 -3 -2 
5347 5 0.0597723 0.606202 0.0156111 -1 4 -1 
8407 6 0.853248 0.635981 0.0299957 2 2 2 
5744 5 0.950218 0.618554 0.0278718 1 -1 5 
6290 6 0.3997 0.65335 0.0131349 2 -8 -1 
6025 6 0.223992 0.705698 0.00668516 5 4 3 
7439 5 0.30807 0.692822 0.997351 -1 -2 -7 
6844 6 0.910369 0.684544 0.0376771 2 -3 5 
5811 5 0.901027 0.707526 0.00949199 -5 1 3 
7121 5 0.00242533 0.731241 0.0322423 4 -4 4 
5886 6 0.0363063 0.734746 0.00793614 0 1 -1 
8550 6 0.169082 0.74692 0.97884 -3 -2 4 
6575 5 0.356785 0.779732 0.00392082 2 -6 4 
5275 6 0.0630016 0.798426 0.00856362 1 -1 -3 
6482 6 0.261112 0.847442 0.0215354 -2 -3 -5 
7517 5 0.996455 0.838777 0.0240787 1 -1 5 
5047 5 0.254159 0.822604 0.987878 -1 5 -1 
5097 5 0.441764 0.853716 0.993357 -2 -5 -3 
5201 5 0.0682815 0.805684 0.0239672 -1 2 1 
8371 6 0.522392 0.892721 0.033947 5 0 3 
5619 6 0.887735 0.908984 0.00690479 1 -4 2 
8078 5 0.599815 0.981458 0.00303681 0 -2 6 
8115 6 0.827207 0.964737 0.015342 5 0 1 
6499 5 0.253001 0.967829 0.0305319 2 2 -2 
6722 6 0.553569 0.977755 0.0204827 -4 3 -1 
8261 6 0.682373 0.00349291 0.0177035 5 0 1 
6648 6 0.247347 0.976696 0.0314392 1 -3 -1 
8294 5 0.28913 1.00337 0.00986534 3 -2 -2 
5114 6 0.107868 0.0481094 0.0369207 -2 5 4 
5462 6 0.218523 0.0337307 0.0258063 -2 7 1 
5042 6 0.684077 0.0079897 0.0273626 -2 -3 -4 
8977 6 0.96855 0.0224066 0.0561104 -1 0 2 
6160 5 0.0541323 0.0827558 0.0323001 0 -1 4 
5495 6 0.279531 0.0609906 0.0179868 1 4 -4 
7854 6 0.624186 0.0745884 0.0442386 0 -1 4 
7521 5 0.808219 0.0695637 0.0613776 -2 -4 -3 
8024 6 0.994788 0.0913886 0.0214834 3 3 -2 
5815 6 0.39624 0.0738339 0.0520731 6 0 0 
5580 6 0.679362 0.0772934 0.995538 -3 2 0 
6886 6 0.870805 0.121854 0.0463984 0 5 -1 
7437 5 0.945311 0.114024 0.0662969 -1 2 2 
6802 5 0.460276 0.13717 0.0605615 0 -1 0 
6358 6 0.92586 0.12136 0.995182 0 -2 -3 
5700 6 0.533678 0.200015 0.0465484 -2 5 -3 
8307 5 0.315025 0.193725 0.0165415 -7 -1 3 
5080 5 0.378348 0.18964 0.0462883 1 4 4 
8331 5 0.394383 0.149252 0.0364918 -7 1 2 
5823 5 0.0338321 0.185726 0.0599863 4 1 1 
7762 6 0.291731 0.181271 0.0388558 -4 4 3 
6396 6 0.496688 0.161149 0.0297317 1 1 -1 
8889 5 0.0663075 0.23335 0.040239 1 2 -1 
8797 6 0.768493 0.246474 0.0365622 -3 0 -3 
5402 5 0.793572 0.301611 0.0265594 4 0 -1 
7329 6 0.814857 0.282063 0.0242174 1 1 0 
7974 5 0.701563 0.275127 0.0397926 -5 4 -2 
5208 6 0.44342 0.346441 0.0129128 -5 0 2 
8098 6 0.0411214 0.309261 0.0292635 -1 1 5 
8586 5 0.170111 0.309459 0.0468026 2 3 -1 
5051 6 0.250626 0.379492 0.0138359 -1 -2 7 
5315 6 0.348529 0.425292 0.0140406 -3 -3 0 
8929 6 0.631748 0.403413 0.0553977 0 -1 0 
6094 6 0.226814 0.396256 0.0849229 4 4 -2 
5103 6 0.373755 0.380556 0.0476832 -3 -2 -2 
8594 5 0.518595 0.441632 0.0321738 4 -2 -3 
6196 5 0.620452 0.390589 0.0547341 2 -1 1 
8242 5 0.156001 0.443289 0.0773508 -1 3 6 
8114 6 0.870419 0.482807 0.0242243 3 2 -5 
5020 6 0.944632 0.486072 0.0290569 -1 -3 4 
7503 6 -0.00404402 0.459329 0.0183988 -1 4 0 
6932 5 0.120309 0.524353 0.0585034 5 0 2 
5374 5 0.196906 0.511771 0.0405413 6 2 -2 
7456 5 0.464871 0.49863 0.0350278 -1 1 -1 
6517 6 0.113059 0.495603 0.0487855 0 0 4 
6014 5 0.161915 0.509631 0.0415067 0 0 -3 
6858 6 0.413451 0.540243 0.0269136 1 -5 0 
8060 5 0.0886998 0.510421 0.0627622 -2 0 3 
6913 5 0.86493 0.508965 0.0258105 3 1 1 
8912 6 0.795769 0.560207 0.053712 4 1 4 
6181 5 0.151417 0.530065 0.0296115 5 -1 -1 
7125 6 0.446232 0.602537 1.00187 0 2 4 
7073 6 0.777764 0.617711 0.00502167 4 -2 6 
8865 6 0.235692 0.645359 0.051598 1 3 1 
6611 5 0.757844 0.621118 0.0655747 3 0 -1 
7978 6 0.891991 0.630795 0.0536351 2 5 -2 
8554 6 0.830534 0.646733 0.0229472 -2 4 3 
8208 5 0.398414 0.673757 0.0311685 0 -3 -7 
5488 6 0.647353 0.699954 0.0439769 -1 -3 -1 
6651 6 0.932631 0.698425 0.0305456 -7 3 1 
6992 5 1.00253 0.725766 0.0655883 -2 -2 1 
6298 5 0.544304 0.677296 0.0715408 4 0 4 
7719 6 0.916285 0.674943 0.0524823 -9 3 3 
6593 6 0.473813 0.712031 0.0178276 -4 3 -3 
5263 6 0.0633799 0.768712 0.0337411 1 3 -2 
6195 5 0.228142 0.788394 0.0390145 -2 -1 -5 
8015 6 0.56221 0.727917 0.029047 0 1 2 
7929 6 0.716626 0.726066 0.0296553 0 -2 1 
5305 5 0.325676 0.80515 0.0763058 -2 -2 -2 
6595 6 0.345396 0.761851 0.039614 2 -2 -2 
5371 6 0.866942 0.831347 0.0188188 1 -5 1 
6218 5 0.942518 0.802838 0.994346 2 -1 2 
5825 5 0.046635 0.814249 0.0276742 1 6 -1 
5798 5 0.0886665 0.852024 0.05131 3 3 -1 
6989 5 0.802815 0.78549 -0.00411448 -4 -3 -1 
5205 6 0.22352 0.859323 0.0532799 -2 -1 -2 
7856 5 0.974997 0.898237 0.0658524 -1 -4 1 
7574 5 0.422125 0.917897 0.0243741 -4 -2 1 
5976 6 0.156883 0.906789 0.0491315 -1 1 3 
7006 6 0.576255 0.939154 0.0285835 2 -4 2 
8714 5 0.682817 0.925666 0.0388524 0 -5 -1 
5258 5 0.388442 0.987802 0.0554817 3 -1 0 
8430 6 0.685135 0.982506 0.0190501 -2 -4 -1 
8117 5 0.658545 0.00151154 0.0536256 0 4 1 
5063 6 0.87508 0.961406 0.0333803 0 -2 1 
7756 6 0.954022 0.989649 0.0188318 -3 -8 -1 
7994 5 0.652554 0.0650123 0.012305 -1 1 -1 
8438 6 0.760283 0.0158598 0.0147569 1 3 1 
7506 6 0.89875 0.0262522 0.0664342 -3 -2 -5 
8282 6 0.00930394 0.0236279 0.048812 -3 7 -1 
7982 6 0.258562 0.0146088 0.091463 -5 2 4 
7233 6 0.84657 -0.00713908 0.050429 -2 1 -1 
6342 5 0.200623 0.0344579 0.0544818 -9 2 -3 
7935 6 0.696617 0.140456 0.0155409 -2 6 -1 
8472 6 0.0924717 0.131301 0.045298 1 1 2 
5296 5 0.959405 0.126831 0.061757 -1 2 1 
7921 6 0.813971 0.147766 0.0731904 -2 -3 3 
6282 6 0.897384 0.114464 0.0799976 -3 -2 -1 
8765 5 0.282089 0.153958 0.0584474 1 1 -1 
7448 5 0.742258 0.216028 0.0733158 3 -1 1 
6703 6 0.276696 0.18566 0.03355 2 2 2 
5236 5 0.743619 0.146213 0.0567244 -1 -2 -5 
5903 5 0.171689 0.225928 0.0538091 1 2 -2 
8231 5 0.86282 0.224198 0.0373247 5 2 2 
7316 6 0.481741 0.252673 0.0594631 -3 1 0 
7346 6 0.490679 0.196858 0.0612011 1 -3 2 
7855 6 0.735256 0.221787 0.0750035 2 1 1 
8328 5 0.259618 0.277271 0.0676556 2 3 -1 
6477 6 0.581531 0.242584 0.0814625 -2 1 6 
7849 6 0.262329 0.267344 0.0371671 4 2 -1 
6340 6 0.694656 0.276666 0.0647312 -1 2 1 
6498 6 0.15089 0.332783 0.0415362 0 3 3 
8692 6 0.934365 0.330486 0.0466325 -7 -2 1 
8122 6 0.427396 0.355632 0.0493515 -2 1 0 
8605 5 0.466676 0.35666 0.0260497 1 0 0 
6563 6 0.721732 0.300593 0.0528329 -2 -4 -2 
7280 5 0.494893 0.338761 0.038073 1 2 0 
6080 5 0.741506 0.405143 0.0284161 5 4 -3 
7504 5 0.293458 0.417959 0.0776618 -2 2 -1 
5930 6 0.581372 0.41798 0.990566 0 1 3 
7328 6 0.869861 0.438105 0.0844972 0 -6 -5 
5581 6 0.381843 0.41811 0.0911452 -5 -4 3 
6726 6 0.570937 0.48248 0.065145 -2 1 0 
8186 6 0.779911 0.412612 0.0637164 -1 -2 2 
7440 6 0.916302 0.440412 0.0539421 5 -3 3 
6700 6 0.516408 0.461921 0.00669506 -2 5 -1 
7431 6 0.122296 0.501212 0.0540179 0 0 4 
7037 5 0.320239 0.506832 0.0209855 2 -7 -3 
5091 6 0.663428 0.542017 0.0802059 2 1 1 
6130 5 0.00300244 0.507716 0.0371019 -1 1 2 
6893 5 0.0842153 0.519934 0.0686899 -3 -4 -2 
5244 6 0.338581 0.581003 0.0422626 2 -2 1 
5637 6 0.00821779 0.529538 0.0570459 6 -2 3 
7322 5 0.346055 0.606197 0.0537033 -2 3 -3 
8777 6 0.366683 0.599138 0.0593842 -2 0 2 
6490 5 0.590608 0.569185 0.0502794 -1 -2 0 
5944 6 0.831812 0.582367 0.0636457 -2 0 2 
7229 5 0.938472 0.591153 0.0460011 -2 0 2 
5470 5 0.113955 0.578824 0.0267092 0 3 -1 
6390 6 0.585582 0.575156 0.0725559 -4 3 2 
7383 5 0.0476947 0.624668 0.057415 1 -3 2 
6001 5 0.00572155 0.607853 0.0487877 4 2 1 
5084 5 0.0762621 0.640249 0.0901486 0 -2 1 
6077 5 0.45351 0.611125 0.0643008 2 0 -2 
7530 6 0.694121 0.606896 0.076305 1 2 2 
5884 6 0.224396 0.726011 0.0728966 2 3 0 
7774 5 0.6445 0.708418 0.106271 3 -4 -2 
5733 5 0.122423 0.714217 0.0580582 -1 2 -3 
5611 6 0.510879 0.730378 0.0762345 0 3 5 
8732 6 0.519572 0.770524 0.0743939 1 0 2 
6335 5 0.65977 0.81468 0.0532522 -2 -6 0 
6904 6 0.2381 0.797636 0.04511 1 1 -4 
7426 5 0.30497 0.857229 0.0552606 -2 1 -1 
8465 6 0.398431 0.841685 0.0613865 1 2 1 
8652 6 0.948811 0.884599 0.0550129 0 -2 5 
8322 6 0.0411482 0.853433 0.0364978 -6 0 0 
5699 6 0.767385 0.854529 0.0629639 3 0 -5 
5288 5 0.735219 0.874602 0.0539573 1 3 3 
8724 6 0.058862 0.849182 0.0607812 0 3 -2 
6268 6 0.252475 0.867764 0.0423162 0 0 1 
6127 6 0.599725 0.907249 0.0638269 0 -6 0 
5947 5 0.930498 0.95631 0.0283238 1 -1 4 
5421 5 0.361865 0.968453 0.0863256 2 -2 2 
6091 6 0.432703 0.948753 0.0403519 -4 1 -2 
8013 6 0.960425 0.960692 0.0653165 -3 0 -1 
7509 6 0.0273557 0.0138767 0.0259675 1 0 -4 
6980 6 0.30258 0.0414235 0.0944019 3 3 2 
6657 5 0.423231 0.0457197 0.123628 -1 -3 0 
5130 5 0.56328 0.993433 0.117975 0 -5 -1 
5740 5 0.353083 0.0770399 0.102976 0 5 2 
7155 6 0.947299 0.0916398 0.0786249 -1 4 -1 
7224 5 0.0614344 0.0982288 0.0719459 2 -1 1 
6991 6 0.279978 0.117593 0.0823457 0 0 1 
7401 6 0.4843 0.100086 0.0954998 0 0 3 
5453 5 0.771284 0.108308 0.0970218 -3 0 4 
7710 6 0.0316854 0.124297 0.0684173 -2 3 4 
7697 6 0.120317 0.140279 0.0673142 2 1 -1 
5810 5 0.812513 0.140114 0.0812827 2 5 2 
6993 5 0.567559 0.142814 0.0605812 0 -2 0 
5475 5 0.78679 0.147229 0.0752392 -1 0 1 
8326 5 0.135128 0.14427 0.066613 -1 -2 -2 
5300 6 0.771436 0.160172 0.101277 2 2 -3 
7778 6 0.727761 0.199787 0.0915051 0 -2 1 
6484 6 0.217292 0.22371 0.0266483 2 2 0 
5979 5 0.295673 0.202661 0.113975 0 1 2 
8338 6 0.751457 0.261269 0.11322 -3 2 -1 
8611 5 0.918045 0.254416 0.0768182 2 -3 0 
5847 6 0.489875 0.286588 0.133075 1 6 0 
6110 6 0.604562 0.280021 0.0764361 4 2 0 
8557 5 0.272605 0.325161 0.0633273 5 -3 6 
7212 6 0.293265 0.257472 0.0845409 -1 -2 -1 
6076 5 0.63168 0.33788 0.142071 -2 -2 -2 
7654 5 0.99406 0.363237 0.0571738 1 2 0 
6930 6 0.447202 0.375102 0.0747794 -2 -3 3 
5677 5 0.761745 0.362064 0.0784814 1 2 -1 
7163 5 0.323563 0.374941 0.0839012 2 -1 3 
5846 5 0.390893 0.420028 0.0880102 2 1 3 
5338 6 0.532926 0.426936 0.0872661 0 -1 -2 
7708 5 0.0122157 0.399697 0.129626 -2 -2 0 
5157 6 0.153014 0.42376 0.0682103 4 3 3 
7709 6 0.498496 0.424505 0.0955549 0 -1 -1 
6516 5 0.458653 0.444824 0.121306 0 1 3 
6957 5 0.000371312 0.47068 0.0762004 8 1 -1 
8042 5 0.378106 0.430743 0.0907144 -1 2 4 
7990 6 0.298239 0.493538 0.149901 2 -4 -2 
5171 6 0.68258 0.450317 0.0528135 1 1 3 
5931 6 0.861284 0.480656 0.0516895 -7 2 -1 
7538 5 0.2685 0.48926 0.0692525 0 1 0 
5110 6 0.675197 0.519155 0.0703652 0 1 2 
5299 5 0.744766 0.487622 0.0859894 -7 -3 0 
6911 6 0.915191 0.537405 0.0714142 -1 -1 -2 
5804 5 0.0740093 0.558568 0.0720259 1 1 0 
5284 6 0.0650187 0.55407 0.0808317 2 0 0 
6983 6 0.11362 0.542614 0.0621441 3 -1 -2 
7474 6 0.426428 0.532173 0.0876135 2 0 -2 
5788 6 0.634128 0.511612 0.122043 2 3 3 
5482 5 0.98125 0.529337 0.0527083 5 1 -1 
5198 6 0.406911 0.589385 0.0511321 0 -1 -1 
6573 5 0.495732 0.542968 0.0798808 2 5 -1 
8651 6 0.714923 0.584157 0.0720391 1 -1 -1 
5213 6 0.263909 0.591297 0.11941 2 -4 1 
8467 6 0.348851 0.589812 0.124 0 3 1 
5559 6 0.730336 0.614152 0.0986621 -1 2 -1 
8278 5 0.924889 0.591895 0.0709483 -1 0 0 
8102 6 0.610572 0.619712 0.0737617 1 1 -3 
7720 5 0.968669 0.582567 0.0626405 4 -2 -3 
5108 6 0.197636 0.644053 0.0817146 2 0 2 
6325 6 0.297788 0.676926 0.0882068 -2 3 2 
7358 6 0.648969 0.661342 0.0580239 1 5 1 
7519 6 0.937934 0.694012 0.0861295 -5 1 2 
8135 6 0.385519 0.72959 0.066512 3 0 1 
8386 6 0.427181 0.729575 0.0479769 5 2 6 
5974 6 0.131305 0.773217 0.102422 -5 -2 1 
7532 6 0.457789 0.760921 0.090794 3 4 2 
6682 6 0.989786 0.745783 0.0566192 -1 4 -3 
8734 5 0.159567 0.773741 0.0673107 1 -1 -1 
5331 6 0.802176 0.819947 0.051 -2 0 0 
6132 6 0.927499 0.783591 0.0903632 -6 -1 2 
8246 5 0.401045 0.807107 0.0538463 -2 -5 -5 
7118 6 0.451183 0.788465 0.0714552 -1 4 -3 
5698 6 0.713649 0.838321 0.101391 0 -2 0 
8668 5 0.0174482 0.83357 0.061708 3 -1 1 
6022 6 0.611758 0.816645 0.122126 -3 1 3 
8211 6 0.120341 0.857866 0.0975206 4 0 7 
6668 5 0.96508 0.846541 0.10646 -2 -4 -3 
8189 5 -0.00555941 0.875674 0.100703 -3 -4 -1 
5365 6 0.255192 0.80873 0.0624284 2 -6 -1 
7633 6 0.85344 0.881303 0.0811184 -6 0 -1 
8048 5 -0.00758144 0.826261 0.117719 3 -2 4 
5266 6 0.309622 0.909476 0.0686006 1 -5 -1 
8743 6 0.398552 0.899406 0.0949215 1 -2 4 
5436 6 0.3722 0.942601 0.111433 0 3 5 
7301 6 0.366088 0.906991 0.0862416 -1 -2 -1 
5447 5 0.738299 0.905116 0.0872012 -1 -2 -1 
7420 5 0.897322 0.952966 0.0658953 -5 -2 3 
8128 6 0.0862524 0.927388 0.119835 1 -2 -2 
5868 6 0.511723 0.918197 0.0746261 1 -3 7 
6246 5 0.184604 0.977479 0.0681435 4 0 0 
5289 5 0.214936 0.975236 0.0660095 2 -5 -1 
8167 6 0.62908 0.970562 0.113282 -1 -2 0 
5578 5 0.558197 0.00344505 0.0654468 0 -4 0 
6321 6 0.687329 0.0303522 0.0709157 -4 -2 4 
8293 5 0.171681 0.0093689 0.12456 -2 1 1 
8303 6 0.677188 -0.000210976 0.101127 -6 -4 3 
7216 6 0.721661 0.00708896 0.0823092 0 3 7 
6686 5 0.230882 0.0461121 0.0955933 0 4 3 
7626 6 0.249285 0.037129 0.0784347 -1 -4 1 
8695 5 0.0525026 -0.000856933 0.107689 3 -3 3 
5180 5 0.734498 0.119974 0.107354 -1 4 3 
8700 5 0.922982 0.0787573 0.144428 -4 -3 1 
5542 5 0.128694 0.0910817 0.0472546 -1 1 -3 
6876 5 0.195652 0.0508669 0.0702642 -3 0 -1 
7932 5 0.0141288 0.114851 0.103787 3 -6 -1 
6625 5 0.229595 0.0753518 0.107088 0 1 -3 
5487 6 0.292516 0.145386 0.0737713 -1 2 -7 
5579 6 0.0578059 0.149149 0.121101 -3 2 -3 
8769 5 0.130506 0.153977 0.0913293 0 -3 5 
8685 5 0.955202 0.139056 0.144785 2 1 -1 
5379 6 0.467619 0.18569 0.0876441 1 -1 6 
7451 6 0.710317 0.20037 0.0944776 3 2 -1 
6624 6 0.168172 0.199512 0.118349 3 1 -2 
7914 6 0.548371 0.223484 0.101933 3 -1 -2 
7671 5 0.234514 0.197802 0.0948664 1 -2 2 
6773 5 0.605445 0.216028 0.0726813 1 -1 0 
7190 6 0.755591 0.25979 0.0917329 1 1 -3 
7230 5 0.290648 0.309295 0.140873 3 -3 -6 
7157 5 0.886224 0.346667 0.0974856 0 1 3 
7115 6 0.742018 0.326806 0.0988912 0 -1 4 
8548 6 0.508072 0.33177 0.0799584 0 -3 -7 
6211 5 0.592978 0.402319 0.114628 2 2 0 
7195 5 0.280788 0.43076 0.0667314 -1 0 4 
8645 5 0.955145 0.41399 0.0705228 -4 -1 3 
7248 5 0.274301 0.461541 0.111362 1 2 -3 
6187 5 0.884673 0.445321 0.110536 1 6 3 
7679 5 0.714732 0.462781 0.122284 5 0 -5 
6357 5 0.905429 0.436887 0.129214 3 -2 -1 
6714 5 0.145999 0.471385 0.104969 -4 2 -2 
6882 6 0.478749 0.512573 0.149234 0 -3 3 
6210 6 0.796632 0.513533 0.0638542 2 6 1 
5549 5 0.301605 0.500458 0.107418 2 1 1 
5292 6 0.36524 0.520794 0.0838821 -1 -4 0 
8662 6 0.749641 0.500037 0.11643 -4 -2 2 
7459 5 0.061824 0.540321 0.121847 1 -5 3 
6197 6 0.842723 0.511992 0.0735085 -4 -2 1 
8971 6 0.612022 0.583315 0.108878 -2 0 1 
7396 5 0.618052 0.637464 0.0978443 4 -3 2 
7471 5 0.700217 0.598083 0.119097 0 -6 -1 
8641 5 0.33101 0.651483 0.100703 4 2 6 
7242 6 0.160099 0.632237 0.1063 -1 0 2 
6990 5 0.167662 0.661413 0.157799 -2 1 1 
8379 6 0.190322 0.634738 0.102286 3 2 -4 
7653 6 0.0563851 0.696172 0.0535588 -3 -3 -1 
5145 6 0.503205 0.711045 0.0928481 -2 -2 1 
5233 6 0.864488 0.709859 0.127799 0 -1 6 
5690 6 0.215573 0.696976 0.0853862 3 -2 -1 
5827 6 0.492173 0.713934 0.100432 0 2 0 
8219 6 0.127027 0.792858 0.0995743 0 -2 1 
6225 6 0.0269349 0.763223 0.117875 -3 -4 -2 
6851 6 0.0294444 0.787485 0.0833484 0 1 -2 
8909 5 0.251639 0.788307 0.0689761 5 2 -1 
7209 5 0.953059 0.740933 0.118004 -5 1 0 
5793 5 0.904313 0.753539 0.0892205 -2 3 0 
8817 6 0.444456 0.824588 0.0991017 -1 2 3 
8783 6 0.307047 0.818872 0.099171 0 -3 0 
7876 6 0.375246 0.802133 0.0886567 5 -2 -1 
6529 6 0.448553 0.816641 0.117045 1 -2 0 
6665 6 0.948799 0.810703 0.116337 -1 -5 -2 
7798 5 0.242154 0.83524 0.114218 -4 0 3 
8198 6 0.101385 0.875926 0.112611 4 1 2 
6702 6 0.864621 0.882355 0.081727 -3 2 -2 
8372 6 0.686221 0.841575 0.116503 1 0 0 
6601 6 0.146965 0.921228 0.0961352 -2 1 2 
5337 5 0.99023 0.919717 0.0781058 -4 -4 2 
8187 6 0.984554 0.924619 0.0763814 0 -5 2 
7365 5 0.87141 0.919764 0.0555183 -4 3 1 
8414 6 0.797083 0.970188 0.0750757 8 -2 -1 
7178 6 0.33987 0.0288794 0.0930106 0 2 2 
8739 5 0.550058 0.973214 0.121934 5 3 -1 
7536 6 0.789058 0.0196047 0.0894965 -2 -2 -1 
5622 5 0.845768 0.973515 0.10075 -8 -1 1 
7613 6 0.970958 0.980647 0.0720363 -1 -2 5 
5717 5 0.173876 -0.00141546 0.110839 1 5 -5 
6872 6 0.231992 0.0159473 0.0901789 3 7 7 
5350 6 0.560973 0.0434468 0.118511 -1 3 3 
7936 5 0.883084 0.00779883 0.128741 -1 5 1 
7051 6 0.129514 0.0280677 0.10928 0 0 1 
5417 5 0.24921 0.992474 0.157432 8 0 0 
7706 6 0.834619 0.987768 0.187935 1 -3 0 
6366 5 0.823629 0.0350205 0.127011 1 4 -4 
6849 6 0.000409733 0.0617666 0.117688 2 0 3 
8793 6 0.733316 0.0741709 0.155839 -3 -2 -8 
6669 5 0.871583 0.0976281 0.117452 -3 0 -2 
8111 5 0.202538 0.11595 0.138286 -1 -3 2 
7769 6 0.199961 0.0825406 0.112691 -6 1 3 
5394 5 0.843777 0.0856063 0.118099 -2 2 -3 
7345 5 0.157279 0.144596 0.128447 2 1 5 
8234 5 0.928478 0.155284 0.105432 -1 0 4 
8449 5 0.508769 0.159762 0.106401 -4 0 -2 
8842 5 0.512517 0.184609 0.119715 -2 -1 -4 
7902 6 0.0318567 0.213926 0.117012 2 -1 3 
5843 6 0.407491 0.190291 0.10941 0 -3 -1 
5071 5 0.681951 0.179431 0.119592 -6 -3 0 
6503 5 0.35512 0.181048 0.117751 0 -4 -2 
8017 5 0.628946 0.232749 0.103726 -2 -3 1 
8045 5 0.91278 0.241822 0.120789 0 -1 -2 
7732 6 0.930591 0.201407 0.118275 0 0 3 
6049 6 0.416755 0.236964 0.155051 1 3 5 
6128 6 0.804612 0.212628 0.102409 -1 5 1 
8147 6 0.996658 0.292636 0.112067 3 -7 6 
5294 5 0.338173 0.300772 0.113461 3 -1 2 
5735 5 0.0530229 0.390854 0.0997169 2 2 0 
6264 6 0.593677 0.383176 0.125658 1 -2 0 
7678 6 0.724495 0.375989 0.143803 0 -2 -2 
6487 6 0.292202 0.417976 0.0901921 -3 1 0 
6469 6 0.812656 0.365119 0.095502 -1 -2 -3 
8152 5 1.00053 0.416565 0.148738 -5 2 2 
5917 6 0.21235 0.4361 0.120491 0 1 2 
6769 6 0.249898 0.411986 0.0967763 0 -2 2 
8507 5 0.550945 0.45354 0.121375 0 0 1 
7688 5 0.695023 0.489452 0.140539 -1 -1 -1 
7861 5 0.375425 0.496202 0.0964044 -3 -4 -1 
6008 5 0.394642 0.511798 0.0932586 0 2 -1 
5101 5 0.841587 0.49634 0.107643 0 2 -1 
6685 5 0.405851 0.534754 0.102471 2 -3 -3 
6070 5 0.779693 0.504182 0.12536 0 4 -3 
8785 6 0.456031 0.527324 0.0976096 0 -6 2 
8248 6 0.595055 0.537703 0.18317 -1 -2 1 
7557 6 0.0236958 0.516566 0.0975103 0 0 -3 
5655 5 0.470524 0.505829 0.125751 0 -2 7 
6186 6 0.784396 0.53983 0.130647 -4 2 2 
5117 5 0.782951 0.529176 0.126486 -3 5 4 
5234 6 0.136215 0.598096 0.131444 -3 1 -6 
7868 5 0.646085 0.577685 0.0919855 -2 1 4 
8851 6 0.252771 0.603315 0.149262 1 1 7 
7020 6 0.501733 0.634223 0.141962 3 -1 -2 
7745 5 0.970275 0.609435 0.120383 1 7 1 
6474 6 0.920514 0.655706 0.151256 0 -1 -5 
6273 6 0.975927 0.621826 0.129675 -1 2 4 
8445 6 0.0800608 0.644963 0.147732 -1 -2 -1 
6112 5 0.159328 0.632832 0.0834681 2 -4 -1 
5801 6 0.580634 0.665504 0.159737 2 1 -4 
6940 6 0.286264 0.670637 0.0999268 2 -7 2 
5381 6 0.328405 0.695377 0.139168 -1 -3 -4 
4329 1 0.383335 0.708508 0.127413 0 0 0 
4327 1 0.384021 0.703418 0.132965 0 0 0 
4325 1 0.390669 0.704745 0.131289 0 0 0 
4322 1 0.398097 0.701096 0.139513 0 0 0 
4323 1 0.396376 0.699524 0.133579 0 0 0 
4320 1 0.405136 0.699334 0.141585 0 0 0 
4319 1 0.409087 0.703754 0.138579 0 0 0 
4321 1 0.403439 0.699769 0.135401 0 0 0 
4207 1 0.453273 0.710389 0.126335 0 0 0 
4340 1 0.364093 0.695824 0.138637 0 0 0 
4336 1 0.366611 0.705746 0.127768 0 0 0 
4338 1 0.36615 0.701365 0.133477 0 0 0 
4337 1 0.362721 0.706613 0.132653 0 0 0 
4335 1 0.36298 0.71134 0.126759 0 0 0 
4339 1 0.362279 0.702186 0.138376 0 0 0 
4341 1 0.36513 0.698949 0.143944 0 0 0 
4334 1 0.367763 0.712463 0.131255 0 0 0 
4331 1 0.377516 0.712317 0.124067 0 0 0 
4332 1 0.374246 0.715443 0.128348 0 0 0 
4333 1 0.370404 0.711523 0.125535 0 0 0 
4330 1 0.381542 0.714295 0.128874 0 0 0 
4328 1 0.38051 0.708678 0.133528 0 0 0 
4326 1 0.387358 0.708111 0.135481 0 0 0 
4324 1 0.39097 0.701831 0.136937 0 0 0 
4205 1 0.4581 0.712085 0.120317 0 0 0 
4203 1 0.465094 0.713952 0.122851 0 0 0 
4201 1 0.465127 0.715903 0.129956 0 0 0 
6552 6 0.250524 0.750861 0.131952 -3 1 -5 
3575 1 0.385657 0.735953 0.141746 0 0 0 
3573 1 0.384178 0.740075 0.135507 0 0 0 
3574 1 0.383926 0.742095 0.141833 0 0 0 
3577 1 0.392085 0.733741 0.142763 0 0 0 
3579 1 0.397026 0.738183 0.141062 0 0 0 
3580 1 0.399543 0.743161 0.144177 0 0 0 
3572 1 0.382106 0.746258 0.135537 0 0 0 
3570 1 0.380356 0.749245 0.128223 0 0 0 
3571 1 0.38137 0.743411 0.129907 0 0 0 
3569 1 0.375067 0.746047 0.12687 0 0 0 
3568 1 0.37407 0.749632 0.132605 0 0 0 
3581 1 0.399194 0.744567 0.137741 0 0 0 
3583 1 0.395519 0.750277 0.136182 0 0 0 
3582 1 0.400964 0.74992 0.140604 0 0 0 
6393 6 0.460012 0.770989 0.0816766 0 -1 -3 
3520 1 0.431661 0.756192 0.129686 0 0 0 
3519 1 0.437331 0.757498 0.132419 0 0 0 
3518 1 0.437757 0.753958 0.127209 0 0 0 
3516 1 0.444301 0.750796 0.128258 0 0 0 
3514 1 0.450086 0.753791 0.131604 0 0 0 
3512 1 0.454931 0.7479 0.132858 0 0 0 
3515 1 0.445762 0.74927 0.134242 0 0 0 
3517 1 0.438627 0.750206 0.132204 0 0 0 
5030 5 1.00105 0.761279 0.139486 -1 0 2 
6823 6 0.195632 0.820434 0.124151 -2 -4 0 
6007 6 0.555971 0.806748 0.133548 3 1 -6 
5009 5 0.804312 0.778206 0.11864 2 -1 5 
5222 6 0.44833 0.803335 0.0980341 1 3 3 
5182 6 0.575091 0.797593 0.136525 -4 -1 1 
8241 5 0.040682 0.870378 0.0841543 0 -1 -1 
8302 6 0.272968 0.864541 0.11364 -4 2 3 
5885 5 0.948096 0.850474 0.0867768 4 5 0 
5142 5 0.0132646 0.868356 0.0999099 2 -5 3 
5111 6 0.0804049 0.863261 0.138655 -1 -1 -4 
6997 6 0.842793 0.85961 0.135015 2 1 -4 
6966 5 0.979833 0.86821 0.140638 2 5 0 
5254 5 0.050424 0.889969 0.145968 7 2 0 
8067 6 0.870311 0.934685 0.110788 0 1 8 
6467 5 0.113421 0.927103 0.14004 5 2 -1 
6411 6 0.524348 0.940367 0.129558 0 1 -1 
8910 5 0.705127 0.927638 0.113963 -3 -5 5 
6721 6 0.798273 0.992889 0.108955 -1 -5 -4 
8942 6 0.902339 0.931931 0.128058 4 -3 2 
5241 6 0.471777 0.931585 0.116342 -3 7 0 
6166 6 0.824043 0.0610133 0.173606 -2 -3 2 
5845 6 0.892369 0.0393574 0.202288 -1 -3 1 
6104 5 0.221566 0.112853 0.146792 2 0 7 
7382 6 0.831808 0.0754742 0.167708 -3 6 2 
7832 6 0.0728056 0.12198 0.120658 -4 -1 -1 
8795 6 0.646937 0.10543 0.202616 8 -5 -1 
7534 6 0.772991 0.0846247 0.166582 1 -2 4 
6456 6 0.887684 0.0851335 0.15684 0 -2 4 
6418 5 0.376772 0.156983 0.151268 0 1 -2 
8399 6 0.75259 0.13751 0.149885 0 2 -1 
7523 6 0.914317 0.165501 0.138391 -1 4 3 
6510 6 0.77804 0.183884 0.158439 -4 7 1 
5548 6 0.0933356 0.191617 0.178365 0 -2 1 
8616 5 0.631894 0.234054 0.124643 4 5 4 
6375 6 0.922074 0.274026 0.124356 -2 2 1 
8063 5 0.147058 0.248935 0.102746 0 3 4 
5024 6 0.0456474 0.309504 0.179253 -2 -3 1 
8967 6 0.307169 0.312097 0.197454 -4 -2 0 
7336 5 0.609867 0.305055 0.150864 1 2 1 
8677 6 0.253651 0.324915 0.130085 0 -1 -1 
8992 5 0.3051 0.339717 0.17728 2 -1 0 
7564 5 0.84826 0.333473 0.143596 0 -3 5 
6023 6 0.416317 0.405408 0.107635 2 9 -2 
5802 5 0.42158 0.349761 0.178774 -2 -2 -1 
6789 5 0.434502 0.375871 0.131619 1 -4 -2 
8380 5 0.662521 0.358176 0.144449 0 0 0 
8838 6 0.237797 0.446758 0.15385 1 -1 1 
5187 6 0.749318 0.418363 0.152645 2 -3 -2 
7689 6 0.882785 0.446571 0.133913 0 1 -3 
8270 6 0.878314 0.474911 0.148794 -1 -2 0 
5372 5 0.311999 0.496032 0.18259 1 3 -4 
8050 6 0.533925 0.486545 0.157205 1 3 0 
7636 6 0.732802 0.509037 0.157049 -2 -2 -3 
8892 6 0.81041 0.505373 0.16862 -4 -6 -2 
5420 6 0.386747 0.551038 0.148183 0 -3 -2 
8915 6 0.586569 0.50989 0.121331 4 3 -1 
7989 5 0.791546 0.510948 0.134875 10 3 -1 
8425 5 0.245597 0.566763 0.135407 -1 -4 -3 
8377 6 0.519046 0.557352 0.134395 2 2 -1 
5644 6 0.0194752 0.597065 0.15702 0 -4 -3 
7254 6 0.378399 0.549027 0.165958 -3 -4 1 
5630 6 0.401019 0.601158 0.152263 4 -1 -4 
6319 5 0.0106117 0.564166 0.131163 2 3 1 
8479 5 0.65197 0.61777 0.125576 0 -1 -3 
5743 6 0.0276799 0.624532 0.180795 3 3 4 
5776 6 0.430344 0.635952 0.156382 2 3 5 
5456 6 0.83692 0.631449 0.142191 3 0 1 
7291 6 0.0619572 0.67867 0.14445 1 -2 1 
7957 6 0.210083 0.682031 0.124558 0 4 -4 
6947 6 0.892512 0.698681 0.158947 1 -1 0 
4372 1 0.39408 0.695763 0.150127 0 0 0 
4371 1 0.399628 0.69757 0.153529 0 0 0 
4373 1 0.397206 0.690423 0.15178 0 0 0 
4379 1 0.410256 0.691823 0.15408 0 0 0 
4377 1 0.404102 0.68854 0.152388 0 0 0 
4378 1 0.405967 0.694766 0.150627 0 0 0 
4376 1 0.403788 0.688759 0.146146 0 0 0 
4375 1 0.399102 0.685052 0.147714 0 0 0 
4374 1 0.397228 0.690927 0.145386 0 0 0 
4369 1 0.403281 0.702 0.148905 0 0 0 
4380 1 0.410864 0.698155 0.155191 0 0 0 
4381 1 0.415615 0.696307 0.151523 0 0 0 
4367 1 0.408621 0.705939 0.151906 0 0 0 
8134 5 0.400327 0.694031 0.139787 3 -2 2 
3699 1 0.417212 0.6877 0.163815 0 0 0 
3700 1 0.418641 0.686608 0.169933 0 0 0 
3701 1 0.412912 0.683418 0.169232 0 0 0 
4382 1 0.416655 0.70261 0.152485 0 0 0 
4383 1 0.421663 0.699679 0.149057 0 0 0 
4318 1 0.411644 0.702328 0.143936 0 0 0 
4317 1 0.416349 0.701153 0.140021 0 0 0 
4316 1 0.415566 0.696901 0.144717 0 0 0 
4315 1 0.421923 0.696539 0.142172 0 0 0 
4314 1 0.419022 0.690909 0.142311 0 0 0 
4313 1 0.423831 0.691179 0.147141 0 0 0 
4312 1 0.418629 0.690057 0.150459 0 0 0 
4311 1 0.423572 0.691424 0.154368 0 0 0 
4385 1 0.424714 0.705415 0.152873 0 0 0 
4310 1 0.418224 0.693099 0.157564 0 0 0 
4386 1 0.429551 0.704793 0.148676 0 0 0 
4384 1 0.421678 0.705513 0.147359 0 0 0 
4387 1 0.431613 0.703082 0.154586 0 0 0 
3703 1 0.413354 0.680194 0.162585 0 0 0 
4285 1 0.43759 0.697369 0.147682 0 0 0 
4282 1 0.442837 0.689372 0.150507 0 0 0 
4280 1 0.449165 0.688879 0.146485 0 0 0 
4278 1 0.456064 0.691127 0.149596 0 0 0 
4281 1 0.444491 0.693068 0.145239 0 0 0 
4283 1 0.437802 0.68965 0.146828 0 0 0 
4208 1 0.458354 0.708025 0.128692 0 0 0 
4284 1 0.436474 0.69284 0.152308 0 0 0 
7723 5 0.849152 0.726773 0.139914 2 -1 2 
4342 1 0.370973 0.69629 0.141256 0 0 0 
4344 1 0.375499 0.700431 0.145351 0 0 0 
4346 1 0.377055 0.707222 0.14224 0 0 0 
4343 1 0.370447 0.70289 0.141993 0 0 0 
4348 1 0.383233 0.704954 0.145136 0 0 0 
4345 1 0.373889 0.706059 0.147868 0 0 0 
4347 1 0.379966 0.710213 0.147384 0 0 0 
4349 1 0.386486 0.71033 0.144117 0 0 0 
4350 1 0.389915 0.706308 0.147743 0 0 0 
4370 1 0.397261 0.702226 0.150147 0 0 0 
4351 1 0.388833 0.711054 0.151642 0 0 0 
4368 1 0.402349 0.706821 0.152808 0 0 0 
4366 1 0.407407 0.711548 0.155234 0 0 0 
4365 1 0.406549 0.713068 0.149088 0 0 0 
4364 1 0.411257 0.716506 0.150921 0 0 0 
4404 1 0.39321 0.718185 0.155464 0 0 0 
8276 5 0.395915 0.708967 0.150402 8 3 2 
4402 1 0.40063 0.720681 0.154426 0 0 0 
4355 1 0.398548 0.713481 0.156089 0 0 0 
4363 1 0.413469 0.710736 0.149446 0 0 0 
4362 1 0.418468 0.71452 0.151893 0 0 0 
4391 1 0.429873 0.713027 0.160299 0 0 0 
4389 1 0.434486 0.708668 0.15734 0 0 0 
4390 1 0.43015 0.711687 0.15392 0 0 0 
4388 1 0.43531 0.706683 0.151219 0 0 0 
4220 1 0.430942 0.723273 0.150538 0 0 0 
4361 1 0.415394 0.710839 0.156182 0 0 0 
4219 1 0.436298 0.724204 0.153842 0 0 0 
4393 1 0.42452 0.717575 0.156238 0 0 0 
7014 5 0.415195 0.72123 0.156247 1 -2 -1 
4222 1 0.425437 0.725167 0.154497 0 0 0 
4210 1 0.457033 0.710048 0.13599 0 0 0 
4209 1 0.456609 0.714164 0.131057 0 0 0 
7377 5 0.434951 0.716998 0.155008 3 4 0 
4216 1 0.441933 0.715207 0.147223 0 0 0 
4214 1 0.449273 0.71568 0.146089 0 0 0 
4212 1 0.454505 0.71514 0.140822 0 0 0 
4213 1 0.449565 0.718892 0.139949 0 0 0 
4211 1 0.450834 0.713384 0.135612 0 0 0 
4215 1 0.444664 0.720697 0.145142 0 0 0 
4195 1 0.456662 0.724532 0.140735 0 0 0 
4218 1 0.436888 0.720586 0.148339 0 0 0 
4217 1 0.441808 0.719262 0.152242 0 0 0 
4197 1 0.462191 0.721936 0.136565 0 0 0 
7268 5 0.442608 0.724058 0.158034 -5 -3 0 
4194 1 0.458382 0.728853 0.145049 0 0 0 
4192 1 0.456957 0.724849 0.150899 0 0 0 
4193 1 0.452259 0.726473 0.146713 0 0 0 
4206 1 0.455401 0.706315 0.121865 0 0 0 
4204 1 0.462577 0.707965 0.12239 0 0 0 
4202 1 0.46716 0.70997 0.127945 0 0 0 
4200 1 0.467199 0.712377 0.134784 0 0 0 
4199 1 0.468775 0.719052 0.135049 0 0 0 
4196 1 0.462851 0.723786 0.14262 0 0 0 
4198 1 0.464813 0.717367 0.13989 0 0 0 
7120 6 0.796008 0.731595 0.140681 2 -1 0 
3549 1 0.38223 0.750804 0.166267 0 0 0 
3548 1 0.388109 0.748729 0.163824 0 0 0 
3559 1 0.376499 0.747208 0.154121 0 0 0 
3576 1 0.388875 0.738845 0.145948 0 0 0 
3578 1 0.396018 0.736995 0.147442 0 0 0 