ITEM: TIMESTEP
20000000
ITEM: NUMBER OF ATOMS
9000
ITEM: BOX BOUNDS pp pp pp
-75 75
-75 75
-75 75
ITEM: ATOMS id type xs ys zs ix iy iz 
8153 5 0.469939 0.0225636 0.0321575 0 2 3 
8139 6 0.431944 0.077884 0.983814 -2 -3 -3 
6706 6 0.581672 0.00843022 0.0265493 1 -3 1 
6083 5 0.95905 0.00292616 0.983202 -1 4 -3 
7073 6 0.201532 0.0741839 0.991514 1 -1 1 
7157 6 0.272984 0.0780912 0.035577 -2 -5 3 
7335 5 0.325144 0.0582165 0.0126705 -3 3 1 
7582 5 0.887679 0.111749 0.0498477 0 0 -1 
5448 6 0.154848 0.168161 -0.000566021 -1 1 3 
5104 5 0.166131 0.127 0.0229301 3 -2 -1 
6524 5 0.495731 0.1473 0.0134217 -2 -4 8 
8796 6 0.0823193 0.184492 0.037716 3 2 3 
7367 6 0.611257 0.181282 0.0061232 2 -7 0 
7658 6 0.0508217 0.190171 0.0226933 -1 4 2 
5006 6 0.464179 0.197698 0.0112234 0 -3 4 
7275 5 0.732004 0.209684 0.0525427 -4 -3 0 
6332 5 0.702496 0.225272 0.969467 1 0 -1 
6113 6 0.542021 0.224149 0.0290004 -2 1 1 
7699 5 0.786871 0.262684 0.0157735 3 2 1 
7688 5 0.260916 0.271772 0.994066 -2 3 6 
5771 5 0.473437 0.290258 0.00807609 -3 -1 -2 
8561 5 0.0830089 0.33582 0.972325 4 -2 1 
7719 6 0.37888 0.325957 0.0236219 -2 3 2 
5022 6 0.519663 0.304627 0.0241295 -5 3 -2 
7062 6 0.749366 0.319115 0.00393944 1 1 -1 
6389 5 0.0834263 0.303871 0.992399 -1 4 -1 
7690 5 0.702653 0.373378 -0.0021489 0 3 2 
5563 6 0.915317 0.350131 0.00925881 -6 -4 3 
7177 5 0.803668 0.371324 0.989504 -3 0 0 
8634 5 0.58542 0.405018 0.993661 1 0 -4 
5137 6 0.128649 0.419721 0.984926 -2 0 1 
8346 6 0.156712 0.450195 0.023441 -1 1 0 
5413 6 0.192569 0.433683 0.011845 3 -4 0 
7583 5 0.226089 0.404583 0.993695 2 0 -1 
8926 6 0.342561 0.450509 0.990951 -2 3 -1 
5235 5 0.432601 0.425133 0.00990706 6 -3 3 
8490 6 0.68341 0.422815 0.0504915 0 -2 5 
8608 6 0.754071 0.458951 0.99617 -1 -2 -1 
8498 6 0.029101 0.484198 0.00840725 -2 3 -4 
7934 5 0.795147 0.454967 0.013002 -6 -5 0 
7395 5 0.597721 0.502749 0.0414476 -3 7 0 
7078 6 0.406855 0.597441 0.0229927 2 -7 2 
8824 5 0.748051 0.548738 0.0347576 2 -3 0 
5499 6 0.754952 0.559082 0.0444 5 -4 5 
5285 6 0.225189 0.583257 0.0362651 2 1 -3 
6834 6 0.655815 0.624501 0.994764 0 2 4 
5140 5 0.527534 0.626503 0.0409219 1 -1 2 
7894 6 0.84324 0.598299 0.0147211 1 -3 -3 
7331 5 0.45331 0.631334 0.997788 2 1 1 
6359 5 0.866711 0.666905 0.0198362 -1 -3 3 
7027 6 0.790947 0.670992 0.0189142 0 -5 -1 
5614 5 0.765048 0.708004 0.0411893 0 2 3 
5724 5 0.138569 0.79012 0.00732876 -2 0 -3 
8024 6 0.459126 0.757614 0.0143213 5 -2 -3 
7805 6 0.927003 0.716674 0.00909929 -3 4 7 
6493 5 0.00447149 0.742681 0.989301 -3 -4 -1 
5637 6 0.109373 0.757179 0.0166085 2 1 -2 
5245 6 0.499653 0.755336 0.991448 -2 7 -1 
6934 6 0.730837 0.702722 0.0405073 2 -4 1 
8422 5 0.0961565 0.779294 0.0339764 2 -1 1 
7149 6 0.0901063 0.819009 0.067113 0 -2 1 
8295 6 0.531993 0.793122 0.0582789 2 -6 4 
6917 6 0.558638 0.785155 0.00343783 5 -5 -1 
5858 6 0.590323 0.839483 0.992558 -4 -2 1 
7987 6 0.585745 0.85221 0.0157397 3 -4 -2 
5747 5 0.611996 0.831506 0.0558049 -1 6 -4 
5187 5 0.708966 0.820324 0.0130747 -3 2 1 
5458 5 0.736182 0.872678 0.993708 4 0 -4 
6792 6 0.860158 0.838822 0.97445 -4 -1 -1 
7276 6 0.0304132 0.84929 0.983774 3 2 -2 
5180 6 0.991921 0.849046 0.0140465 0 1 -2 
8278 5 0.372962 0.840729 0.983281 -2 4 -2 
7876 6 0.267838 0.960369 0.0198062 1 4 1 
7399 6 0.339101 0.969586 0.0467905 -4 3 6 
6458 5 0.588662 0.957188 0.00609533 2 -3 0 
8746 5 0.589178 0.952363 0.0273672 -5 -1 3 
5844 5 0.0407391 0.954428 0.00516338 -2 2 -1 
8653 5 0.469347 0.974408 0.0114601 -3 -3 3 
5421 6 0.567854 0.960845 0.993554 -2 -3 0 
5057 6 0.323406 0.0261194 0.041553 -2 2 -1 
7510 5 0.776836 0.993073 0.0376244 1 3 1 
5951 6 0.0403563 0.0314481 0.0348213 -1 -6 2 
6857 6 0.346769 0.04922 0.0678284 0 -3 -2 
5517 6 0.700804 0.0498146 0.0307777 2 -1 -4 
8279 5 0.442741 0.06776 0.02735 -4 5 1 
7888 5 0.344605 0.112503 0.991491 -1 -6 1 
6808 5 0.529636 0.132363 0.994677 2 2 0 
6495 5 0.693129 0.15881 0.0429953 0 2 2 
5092 6 0.535666 0.113576 0.00933477 -3 2 3 
7287 6 0.593088 0.160117 0.044553 -2 0 2 
7100 5 0.792667 0.196749 0.0564558 -5 -1 5 
7034 6 0.852926 0.169461 0.0406161 -3 3 -2 
7460 6 0.2045 0.230904 0.00476285 -2 -1 2 
8672 5 0.317346 0.180904 0.0389643 -1 2 2 
8222 6 0.997624 0.250222 0.0477383 -4 2 0 
6426 5 0.275284 0.261117 0.0401987 0 3 -4 
7984 5 0.643576 0.258546 0.0569066 -3 2 5 
6946 6 0.197213 0.313166 0.96143 1 -6 -6 
7310 5 0.239582 0.284019 0.00852982 -1 -2 -2 
8006 5 0.27715 0.263093 0.04686 0 -3 0 
8273 6 0.754334 0.284502 0.0376291 -4 1 4 
6445 6 0.91835 0.310135 0.0421792 -1 8 0 
8456 6 0.0303376 0.32175 0.0380364 6 0 3 
5017 5 0.859718 0.335943 0.00362088 -2 0 -2 
5443 5 0.33405 0.322682 0.0407981 -1 2 -3 
5346 5 0.349902 0.338012 0.0105395 4 2 5 
6050 5 0.619043 0.380783 0.0413837 0 0 4 
8991 6 0.213032 0.367469 -0.00132879 0 3 3 
7724 5 0.668268 0.394621 0.0321525 -1 -5 -1 
8701 5 0.573816 0.427211 0.0455013 0 4 4 
5521 6 0.817132 0.448636 0.0279053 1 1 2 
7175 5 0.161005 0.452136 0.0422382 0 4 0 
8687 6 0.422235 0.458943 0.0222696 -1 0 -1 
5821 5 0.308201 0.476208 0.0433687 1 -4 5 
6202 6 0.644782 0.471633 0.963863 -5 -7 1 
8228 6 0.894257 0.457112 0.0343403 -7 -2 3 
5031 6 0.16899 0.494153 0.0328078 1 -4 1 
6076 5 0.641564 0.566923 0.0114171 0 2 -1 
6740 6 0.97849 0.580243 0.0425643 -5 -2 -2 
5367 5 0.950741 0.552441 0.0214742 3 1 1 
8182 5 0.524446 0.580295 0.0104568 -6 -3 -1 
6881 5 0.579259 0.562157 0.0363446 6 0 1 
5962 5 0.927104 0.615484 0.0205791 -1 2 2 
8341 6 0.00533793 0.598299 0.0222684 0 -2 1 
5912 5 0.631609 0.597884 0.0632432 0 1 0 
8781 6 0.92117 0.604363 0.0266092 -1 4 3 
5358 6 0.919659 0.629906 0.00290739 0 6 -6 
7864 6 0.142344 0.648929 0.0371334 5 1 -5 
6027 5 0.0794463 0.655126 0.0199058 1 -3 -4 
5059 5 0.151866 0.687167 0.994195 3 -3 -1 
6289 5 0.0405397 0.699025 0.00687505 1 1 1 
7391 6 0.111777 0.745488 0.0433062 -1 -2 1 
6117 5 0.495543 0.716192 -0.00188797 -5 3 1 
6200 5 0.65928 0.74013 0.017239 -1 6 3 
6947 6 0.779953 0.776376 0.0383414 0 7 0 
5798 6 0.372517 0.793371 0.0720202 3 2 3 
6656 5 0.662304 0.809813 0.0708782 -2 6 -2 
6819 6 -0.000240241 0.797711 0.0414396 5 3 4 
5122 5 0.128881 0.794436 0.0130792 -1 -2 0 
8218 6 0.35285 0.836082 0.0123753 5 -2 -2 
8013 5 0.270823 0.818513 0.0628362 1 -1 -4 
6907 5 0.909943 0.846062 0.995474 1 0 -4 
7779 5 0.881773 0.876467 0.0392155 -2 1 3 
8775 6 0.903056 0.882462 0.98243 -1 4 -2 
7301 6 0.210555 0.908535 0.0158404 -2 -4 1 
5129 6 0.281927 0.91584 0.0654153 0 -2 5 
8922 6 0.837379 0.905412 0.0596698 1 -3 -5 
7463 6 0.947104 0.917904 0.0263288 3 3 -6 
6789 5 0.094706 0.968666 0.0171149 -1 -1 2 
6461 6 0.334787 0.936628 0.065699 -4 1 -5 
7820 6 0.139291 0.917616 0.0559241 0 -4 1 
8395 6 0.695559 0.953033 0.0376049 1 -2 3 
7191 6 0.780735 0.0152319 0.0310568 0 2 1 
7474 6 0.861785 0.994313 0.994167 -4 1 0 
7273 6 0.172814 0.0649192 0.0783641 0 -1 1 
6542 6 0.346989 0.0143843 0.0713861 0 -2 1 
8689 6 0.730745 0.0151696 0.0369476 -3 -2 -1 
5944 6 0.0882849 0.0911533 0.0445501 4 2 0 
8359 6 0.583187 0.0518988 0.088671 1 -4 -4 
8702 6 0.716938 0.0687845 0.0485379 3 -1 1 
8945 5 0.596604 0.0571725 0.0375902 1 -5 5 
5332 6 0.558302 0.0891112 0.0536544 2 1 1 
8479 6 0.140255 0.1327 0.047356 -3 -4 -1 
8430 6 0.0611826 0.165665 0.0327746 10 -3 7 
5091 6 0.369061 0.135903 0.0721898 4 -5 7 
7552 5 0.848564 0.170039 0.0500655 -3 2 4 
8765 5 0.358957 0.209732 0.0776215 -1 -3 3 
7366 5 0.935178 0.20369 0.0635797 0 1 1 
7280 6 0.186642 0.229676 0.0604529 3 3 -4 
6148 6 0.617871 0.203617 0.0348463 -1 0 -2 
7608 5 0.725552 0.249673 0.0508662 3 8 3 
6308 6 0.044542 0.245512 0.0515103 0 2 0 
8959 5 0.397045 0.246337 0.0443108 -5 1 1 
5213 6 0.897509 0.234672 0.0654721 3 0 -5 
8502 6 0.681304 0.251109 0.0705559 -1 1 -2 
7634 5 0.122059 0.246839 0.0775312 1 0 -1 
7589 6 0.401972 0.269356 0.0479841 -3 -3 2 
6985 6 0.276813 0.310557 0.0329114 1 -3 -1 
7255 6 0.34646 0.298841 0.0411002 -4 1 1 
8372 6 0.64486 0.300924 0.0254702 -2 1 1 
6888 5 0.757825 0.304578 0.0333313 1 2 -3 
7918 6 0.52542 0.298059 0.0831622 -1 6 2 
8461 6 0.608174 0.330122 0.0443696 1 -4 1 
8694 5 0.313124 0.344468 0.0488078 3 1 -2 
7469 6 0.132185 0.357254 0.0411026 4 -1 0 
5489 5 0.406317 0.374664 0.0311907 3 5 0 
7643 6 0.759309 0.394742 0.0348552 4 -1 7 
8893 6 0.531849 0.411778 0.067425 0 4 1 
6158 5 0.126081 0.420615 0.0500734 -2 -6 -1 
5653 5 0.804369 0.419993 0.103344 2 0 -2 
6918 5 0.0395343 0.443773 0.0928119 0 -1 2 
7270 5 0.252385 0.461082 0.0432956 -6 1 -1 
8800 6 0.366975 0.425308 0.0765428 -5 -5 -2 
6284 5 0.213493 0.491582 0.0847836 -1 -3 5 
6189 6 0.323267 0.456153 0.0857318 -3 0 1 
6798 6 0.815008 0.522792 0.0247457 -1 2 1 
5599 6 0.0361659 0.535254 0.0442835 0 -1 4 
7388 6 0.101121 0.524501 0.0259799 2 -2 2 
5438 6 0.551018 0.580476 0.0296242 2 0 -1 
5625 6 0.490755 0.568842 0.991438 2 1 1 
8058 6 0.907665 0.620354 0.055693 -1 3 2 
5677 5 0.410642 0.639308 0.0391324 0 -3 0 
8240 5 0.529643 0.640934 0.0428798 1 4 1 
8077 6 0.576404 0.595977 0.0497715 0 5 3 
8518 6 0.14394 0.637762 0.0676474 2 -2 0 
7628 6 0.573538 0.640431 0.0515558 0 1 5 
8769 5 0.763738 0.649201 0.0902011 -1 1 1 
7150 6 0.991041 0.667379 0.0623578 3 -3 4 
5324 6 0.520251 0.687268 0.0286283 6 1 2 
7435 6 0.261772 0.70548 0.0740196 -2 4 1 
8061 6 0.321944 0.683372 0.0577358 -1 -2 -1 
8876 5 0.495215 0.733449 0.0496019 2 -3 0 
7769 5 0.460857 0.72374 0.0691511 0 -2 3 
6286 6 0.797469 0.760241 0.0591545 -1 0 3 
7143 6 0.0939447 0.73304 0.0464711 3 0 3 
7544 5 0.110791 0.775921 0.0550831 -1 1 -7 
5997 5 0.162561 0.776931 0.0668586 1 5 -1 
8311 6 0.323942 0.768177 0.0269943 2 -6 5 
8146 6 0.445687 0.786102 0.0384928 -5 -3 1 
8906 6 0.542414 0.762383 0.0803187 3 -3 2 
6980 5 0.610102 0.774566 0.0717659 0 0 -4 
6059 6 0.914345 0.750554 0.0511126 1 -2 -5 
6221 5 0.540821 0.784687 0.0858918 1 -2 3 
6131 6 0.85839 0.8188 0.0685258 1 -2 3 
8803 5 0.400904 0.776316 0.0361278 1 2 -2 
8627 5 0.627587 0.846564 0.0911408 4 0 3 
5866 6 0.656269 0.841071 0.0667276 0 0 -5 
8151 6 0.323352 0.901404 0.0673344 0 1 -6 
7098 5 0.911209 0.890626 0.0354359 2 -8 -3 
6372 6 0.14622 0.880279 0.0411946 -2 3 0 
7828 5 0.0757474 0.889136 0.0355037 2 1 3 
5830 5 0.237473 0.970174 0.0120938 2 -2 -1 
5246 5 0.335334 0.95735 0.0641427 -2 0 -1 
5831 6 0.641798 0.970274 0.067365 -1 2 -4 
7188 5 0.903205 0.978028 0.0210681 -1 2 2 
8156 5 0.124618 0.990319 0.08663 3 0 -2 
6884 6 0.0194009 0.0591385 0.0741746 -3 5 6 
5861 5 0.0403498 0.0392812 0.0541542 -2 1 1 
7402 5 0.205963 0.00613178 0.0803218 3 4 -2 
6633 5 0.225874 0.0178537 0.0840421 2 -2 -2 
6722 6 0.91942 0.0798855 0.114028 2 1 9 
5051 6 0.997657 0.0618798 0.103452 -5 -1 3 
5248 6 0.765084 0.124267 0.0454374 -1 -3 -4 
6589 5 0.813066 0.0762721 0.0343079 0 -3 0 
6865 5 0.868621 0.0650007 0.0804078 0 3 -6 
8292 5 0.244764 0.121869 0.0936752 -3 0 -5 
7563 5 0.559494 0.0916858 0.104663 2 8 -1 
5264 6 0.237075 0.133412 0.0970887 0 2 4 
6109 6 0.634816 0.141869 0.0973452 -2 -1 1 
7222 6 0.324688 0.174297 0.0626538 2 -3 -2 
7005 5 0.753847 0.164445 0.0655502 9 2 1 
8993 6 0.798611 0.148536 0.0714427 -1 -1 3 
7528 5 0.792796 0.176058 0.0599146 0 3 2 
8643 5 0.386037 0.218228 0.0590287 -1 2 -3 
8231 5 0.523113 0.243192 0.109208 -2 -1 1 
8558 6 0.749071 0.227029 0.0893643 -1 -2 6 
8814 5 0.889444 0.243084 0.0565618 0 -1 1 
7844 5 0.115461 0.29307 0.0507083 -2 -3 -1 
8051 5 0.357215 0.272658 0.0634789 1 0 -1 
6642 5 0.135494 0.345377 0.0598743 1 1 3 
8493 6 0.226905 0.325907 0.0860546 -1 -1 1 
6617 5 0.340692 0.310513 0.085527 -1 -7 3 
8772 6 0.26094 0.418216 0.0687618 -1 -5 -2 
6415 5 0.243809 0.346357 0.0882206 5 2 0 
7340 6 0.426744 0.339626 0.0753135 -3 3 -3 
7647 6 0.586436 0.342861 0.0602439 -2 1 2 
6812 6 0.0229264 0.424604 0.104493 -2 -2 3 
6648 5 0.982293 0.435058 0.10029 -4 -2 -2 
7597 5 0.428513 0.44527 0.0838246 -6 -1 2 
5236 6 0.537651 0.421377 0.118749 -1 -2 1 
6115 5 0.700544 0.439172 0.0629361 -2 -3 -2 
8169 5 0.0899311 0.490504 0.0506813 1 1 4 
6151 6 0.774018 0.495708 0.0671356 0 0 -1 
8233 6 0.448893 0.477367 0.035651 1 -5 -1 
7095 5 0.823368 0.494671 0.0739751 -1 -3 1 
5845 6 0.922355 0.490844 0.0918687 2 -2 1 
7256 6 0.151641 0.57967 0.0659747 -3 2 5 
5972 5 0.509196 0.545726 0.0878816 4 -3 -2 
5947 6 0.788286 0.543707 0.0461219 -3 -2 1 
5963 6 0.855036 0.492105 0.0808384 -2 1 0 
7554 5 0.606088 0.562998 0.0724405 -2 -2 2 
6187 5 0.113241 0.603277 0.0162693 2 -1 -1 
8871 5 0.198012 0.539027 0.0481041 4 3 -1 
7641 6 0.28018 0.613461 0.0877964 4 -1 -2 
8081 6 0.467371 0.654879 0.055834 4 -1 6 
7298 6 0.015724 0.649313 0.071997 0 -7 -1 
5975 6 0.447136 0.636667 0.0807567 1 5 -1 
6568 6 0.667324 0.701623 0.0908541 0 1 0 
5992 6 0.711483 0.695771 0.0981202 0 3 3 
7673 6 0.933727 0.739247 0.0717818 -1 0 -3 
8986 5 0.621655 0.700497 0.0955608 -3 -6 0 
8248 5 0.819864 0.741069 0.0603802 -4 -1 2 
7378 6 0.143118 0.757416 0.0518065 1 2 3 
6346 5 0.232166 0.757993 0.0776473 1 1 3 
5736 6 0.726787 0.785721 0.0371727 1 2 4 
8850 6 0.809636 0.77134 0.0898329 4 0 -4 
5118 6 0.333025 0.761018 0.0743302 -4 1 4 
7055 5 0.373276 0.803835 0.127446 0 -2 1 
7120 5 0.0862265 0.851869 0.0704171 4 5 -1 
7862 5 0.398383 0.880047 0.0811983 0 -1 -1 
6693 6 0.429248 0.871808 0.0717298 3 0 -2 
8894 5 0.964724 0.874319 0.0527422 -2 -1 -1 
6375 6 0.413236 0.898375 0.0831865 -4 -4 8 
8101 6 0.435588 0.928094 0.101269 -2 2 1 
7921 5 0.653012 0.925777 0.0864543 -4 -4 -1 
8177 6 0.389556 0.944223 0.0976641 3 -6 -1 
8773 5 0.015059 0.938563 0.0807406 -2 -1 0 
7064 5 0.719773 0.970987 0.0924552 1 1 0 
8804 6 0.74276 0.969125 0.0832376 -2 -3 -3 
5611 6 0.907576 0.945832 0.0933242 3 -1 1 
5649 6 0.744473 0.999212 0.0656986 3 1 3 
7855 6 0.961335 0.99076 0.0525306 3 4 0 
6348 5 0.922857 0.0160737 0.0481047 -4 -2 1 
5014 6 0.154387 0.00774279 0.0595905 1 3 1 
7320 6 0.667373 0.991198 0.106261 -2 -1 -3 
6630 5 0.393893 0.0317173 0.0975811 -4 5 3 
7601 6 0.212655 0.0434247 0.127438 -2 4 3 
7236 5 0.324501 0.0565239 0.127483 3 -2 2 
8662 6 0.649031 0.0591512 0.133555 1 -2 0 
8874 6 0.247271 0.0856787 0.094699 1 0 0 
5456 5 0.5991 0.0568234 0.103218 1 8 5 
5567 5 0.95171 0.0860514 0.123216 0 0 -2 
8460 5 0.0565803 0.073006 0.0866506 0 -1 5 
7379 6 0.89619 0.0959471 0.0579962 -1 -6 5 
5533 6 0.128888 0.119372 0.133611 4 3 6 
6432 5 0.191272 0.151501 0.103384 -2 1 4 
7751 5 0.280559 0.202181 0.1148 1 2 6 
6771 6 0.371218 0.178011 0.112739 1 -4 5 
7639 5 0.585299 0.185807 0.10859 2 0 -2 
6809 5 0.870913 0.163528 0.126695 1 1 -1 
5282 6 0.864019 0.26041 0.111078 2 -2 4 
6814 6 0.125037 0.293826 0.124637 -3 5 6 
8949 5 0.222945 0.29524 0.0950883 1 -2 5 
8830 6 0.936577 0.30229 0.150807 0 -1 0 
8044 6 0.448108 0.319997 0.0772006 -3 1 2 
7200 6 0.592729 0.352987 0.0947075 -2 1 3 
5826 6 0.678391 0.334736 0.090445 -5 -7 1 
7599 6 0.88662 0.355506 0.111806 1 0 1 
5444 6 0.474666 0.363379 0.0940091 0 0 0 
7488 5 0.0740067 0.406009 0.0730474 -3 -3 -2 
7416 5 0.260905 0.362714 0.0871828 -1 1 1 
5392 6 0.357231 0.381049 0.0879367 -2 -3 -4 
7199 6 0.751263 0.39042 0.126628 -4 2 -1 
7993 5 0.91908 0.419248 0.102756 1 -3 0 
7227 6 0.176501 0.457915 0.0706093 -1 -4 5 
8779 5 0.490988 0.390689 0.0957901 -3 0 2 
7432 6 0.81708 0.441503 0.0968308 2 3 -1 
6240 6 0.852462 0.480363 0.082355 -1 2 -1 
5380 5 0.430501 0.481243 0.122341 -3 5 -1 
8890 5 0.39051 0.523312 0.0924416 0 -4 4 
8695 5 0.451264 0.516924 0.12192 3 2 -4 
8062 5 0.977468 0.549379 0.0999878 1 -2 5 
7080 5 0.389919 0.603321 0.132929 3 2 2 
5622 6 0.951833 0.575533 0.0708572 0 1 4 
5386 5 0.232525 0.579381 0.122783 0 -4 3 
7239 5 0.751824 0.579478 0.102986 -1 0 -1 
5193 5 0.927229 0.599415 0.0987275 -4 4 3 
6749 5 0.922044 0.631484 0.130392 -1 1 -1 
6336 6 0.984069 0.654591 0.10124 4 -5 2 
7674 6 0.641762 0.653752 0.0847853 4 5 -1 
6008 6 0.749082 0.702841 0.112614 -1 -1 0 
7139 6 0.862399 0.760761 0.0834956 -1 -5 2 
5624 6 0.567671 0.737727 0.118324 2 -1 -4 
8384 6 0.920767 0.759436 0.128489 1 -5 4 
7726 6 0.84306 0.718565 0.0835765 3 -1 3 
6586 6 0.970222 0.739133 0.0938647 3 -2 3 
7111 5 0.304507 0.8006 0.0822869 0 6 3 
6997 6 0.787348 0.759472 0.0999214 -5 2 1 
6237 5 0.28987 0.830973 0.0862333 -2 -3 -1 
6920 6 0.106516 0.853293 0.104206 -1 0 1 
8875 5 0.52615 0.868457 0.120931 0 1 -1 
7467 6 0.854878 0.84237 0.149823 1 0 -1 
7614 6 0.239607 0.861703 0.131694 2 4 4 
5263 5 0.356728 0.829648 0.126546 3 -4 2 
8115 6 0.853311 0.889679 0.0981599 0 -1 -3 
5127 6 0.584202 0.907347 0.12257 -2 0 1 
7022 5 0.852556 0.886376 0.109337 4 0 2 
8471 6 0.21681 0.94341 0.0997517 1 -2 3 
6863 5 0.425748 0.956631 0.0961071 0 0 3 
5055 5 0.0175331 0.955954 0.131101 3 -5 -2 
7856 5 0.133274 0.949032 0.0662526 -3 -3 2 
6553 5 0.198756 0.992646 0.14882 3 -1 2 
8365 5 0.40124 0.950944 0.101247 3 -3 0 
8452 6 0.700059 0.997664 0.0547312 2 3 1 
6674 6 0.820139 0.980175 0.101566 -1 4 2 
8442 6 0.396974 0.978501 0.161191 1 0 1 
6307 6 0.798685 0.997042 0.173488 0 -3 3 
5259 6 0.0746884 0.0230569 0.147033 2 3 0 
5763 5 0.250421 0.0216234 0.114276 -1 0 3 
6681 5 0.310194 0.0591405 0.131849 1 -6 0 
5459 5 0.636392 0.0197416 0.138652 -3 2 -2 
5156 6 0.981185 0.0400692 0.108722 -4 5 -2 
7130 5 0.322257 0.0568282 0.152971 3 2 1 
7524 5 0.846311 0.0662881 0.152513 5 5 -3 
8998 5 0.0134286 0.0693748 0.10564 -4 -5 1 
7537 6 0.134874 0.152844 0.126302 7 4 0 
5670 6 0.886931 0.12472 0.141306 0 2 -2 
6730 6 0.752529 0.132438 0.14842 2 -3 0 
6753 5 0.528752 0.160469 0.11657 -1 -1 -2 
5720 6 0.562187 0.174992 0.125418 3 -3 8 
7566 5 0.534674 0.189214 0.155557 0 1 -4 
5663 5 0.712167 0.229853 0.155143 0 -2 2 
8801 6 0.223041 0.275082 0.125362 -2 3 2 
5050 5 0.328872 0.230179 0.125562 -1 0 4 
8688 6 0.778279 0.238122 0.128079 -1 5 -2 
5541 5 0.10525 0.313875 0.0929887 1 3 -3 
5863 6 0.344588 0.279021 0.117454 -2 -1 0 
8196 6 0.971858 0.283611 0.125116 4 -3 1 
6416 5 0.0250877 0.280674 0.124433 -1 3 -4 
6585 6 0.124659 0.324656 0.132282 -2 -3 3 
5260 6 0.30317 0.317439 0.0951295 2 0 2 
8794 6 0.290712 0.355698 0.11147 -2 2 1 
6839 5 0.324743 0.33184 0.142834 2 0 2 
6620 6 0.07772 0.393864 0.142399 3 3 4 
6973 6 0.289209 0.315387 0.140616 2 -3 0 
8206 5 0.416004 0.392778 0.14256 0 -1 3 
8718 5 0.572837 0.409944 0.12857 4 -2 3 
6466 5 0.560312 0.409679 0.103509 4 -1 0 
6921 6 0.44272 0.450443 0.105145 -1 0 -2 
7424 6 0.00751209 0.476309 0.107076 1 -1 4 
7521 5 0.296666 0.489785 0.116812 -5 -3 -1 
7422 6 0.56111 0.501151 0.158979 6 -7 -4 
5701 5 0.568504 0.547651 0.132716 -2 5 0 
8619 6 0.32314 0.539488 0.120213 4 -2 -3 
5988 5 0.365677 0.564012 0.140046 5 6 2 
8798 6 0.882957 0.503886 0.0894974 -4 1 -2 
5936 5 0.930158 0.527187 0.139224 0 0 -4 
6791 5 0.627523 0.568548 0.133745 1 5 -1 
5178 6 0.0933059 0.57571 0.130423 2 -1 -2 
6825 6 0.162784 0.660944 0.158442 0 2 -2 
7506 5 0.688136 0.652767 0.118157 2 4 -1 
5361 6 0.702922 0.641106 0.159833 5 -1 3 
7132 5 0.240804 0.661548 0.127525 -8 -4 5 
8015 5 0.831196 0.687398 0.140493 1 -1 -3 
7548 5 0.90331 0.684769 0.154878 -4 2 2 
5568 5 0.113923 0.707968 0.100879 1 4 -1 
5885 6 0.78215 0.705782 0.138518 1 -1 -5 
8037 6 0.987621 0.689098 0.116657 6 1 -2 
5801 5 0.839867 0.736454 0.0951804 -1 -2 -3 
6139 6 0.968651 0.795145 0.115534 1 3 1 
7490 6 0.77452 0.820929 0.110438 1 1 1 
8407 6 0.800153 0.802783 0.132322 -3 -3 4 
6147 6 0.841347 0.761656 0.124987 -1 2 0 
6208 5 0.118993 0.866211 0.124546 -2 3 -1 
7145 6 0.197048 0.798612 0.146238 1 0 2 
5626 5 0.126402 0.819937 0.105349 -2 0 6 
6715 6 0.647687 0.862166 0.105295 3 -1 -3 
8933 5 0.0700716 0.906174 0.149727 1 1 -2 
6645 6 0.129513 0.916578 0.130871 1 3 2 
5698 6 0.385541 0.879493 0.137068 -3 0 -4 
7896 5 0.0400095 0.00144681 0.120909 3 1 -6 
6860 6 0.650386 0.947284 0.159766 -3 -4 -2 
5038 6 0.234361 0.0121124 0.0982009 2 -1 1 
6691 6 0.837864 0.9462 0.11247 2 -2 4 
7612 6 0.974157 0.921055 0.109624 1 -1 3 
7527 6 0.0517554 0.0087818 0.106596 2 -2 0 
7170 6 0.762017 0.00219544 0.101558 -2 0 3 
7600 5 0.0212635 0.0090196 0.162766 2 -2 1 
8984 6 0.857537 0.0140018 0.171548 5 -3 -1 
6355 6 0.291377 0.0460392 0.136129 3 1 5 
8096 6 0.325215 0.999677 0.131566 -1 -2 3 
7703 6 0.562284 0.00787934 0.162484 -2 3 3 
6386 6 0.604192 0.0409582 0.130514 3 1 -1 
8418 5 0.482326 0.0829692 0.14468 -1 2 3 
8080 6 0.668778 0.0743941 0.153369 -2 2 -2 
8578 5 0.116626 0.0525467 0.171386 3 -3 0 
7580 5 0.254357 0.118157 0.14364 2 -2 -1 
5713 5 0.6146 0.110654 0.187483 0 2 -5 
8287 5 0.742535 0.099201 0.188313 2 0 -7 
8755 6 0.357782 0.159557 0.175408 4 0 2 
8932 5 0.704941 0.143239 0.139073 -2 3 1 
8989 6 0.0179385 0.220963 0.15053 3 0 0 
5796 5 0.848143 0.178183 0.186222 2 -5 -2 
6866 5 0.0328873 0.214914 0.15989 0 0 1 
8902 6 0.632746 0.247819 0.173144 3 -2 -2 
7711 6 0.787978 0.293722 0.122336 -1 -4 1 
7606 6 0.807564 0.253389 0.140939 1 0 -4 
8358 5 0.33746 0.300231 0.123997 1 2 0 
5085 5 0.786738 0.290688 0.16639 -5 -4 9 
7533 6 0.0674 0.358249 0.156792 -2 -4 -2 
8612 6 0.338611 0.361059 0.195986 -4 3 1 
8235 6 0.502952 0.4102 0.168586 -1 -2 -3 
5069 6 0.0508385 0.42224 0.169599 0 -2 0 
7141 5 0.37794 0.431926 0.151263 2 3 1 
5757 6 0.468292 0.450345 0.154474 -3 0 0 
6451 6 0.106643 0.491684 0.11258 2 0 -1 
7740 6 0.0702207 0.481022 0.161082 -2 1 -4 
8533 6 0.126795 0.481004 0.128167 0 -2 2 
8289 5 0.136298 0.538664 0.143935 -3 3 1 
8423 5 0.563317 0.51472 0.165799 0 -1 -2 
5679 5 0.783617 0.507766 0.15411 1 -2 3 
5695 6 0.181316 0.557309 0.152108 0 -6 -2 
7491 5 0.761528 0.542424 0.138425 0 5 6 
5177 5 0.293444 0.601265 0.158825 0 3 3 
7214 6 0.509079 0.605144 0.182633 -2 -1 0 
8277 5 0.990874 0.559712 0.146963 -1 -3 3 
6526 5 0.550149 0.630162 0.11774 4 2 1 
6204 6 0.564651 0.580387 0.144385 0 3 -2 
7541 5 0.117731 0.638916 0.150715 2 3 0 
5347 6 0.81601 0.636201 0.133976 4 -1 -2 
6410 6 0.859104 0.604055 0.143453 5 3 3 
5403 6 0.0127794 0.625335 0.139564 0 1 -1 
8259 6 0.381431 0.675002 0.148698 0 1 -3 
6575 6 0.585198 0.676303 0.140338 3 -2 1 
5409 5 0.354226 0.663372 0.165099 -2 1 3 
7390 5 0.0394075 0.724334 0.134946 -4 -1 2 
8725 5 0.362393 0.708969 0.169269 1 -3 -4 
7341 6 0.00147595 0.72024 0.137908 0 -3 1 
5209 5 0.826505 0.76206 0.116803 1 0 -1 
8444 5 0.672086 0.785875 0.165751 -2 0 2 
8735 6 0.398474 0.824764 0.171479 5 5 0 
6608 5 0.163921 0.831151 0.175696 -3 -2 1 
7499 6 0.959659 0.784003 0.133332 -1 -2 0 
7421 5 0.229477 0.7972 0.16731 -3 -4 2 
7915 5 0.859238 0.792117 0.164572 -4 -3 0 
8002 6 0.893867 0.81436 0.130704 -1 -1 6 
8593 6 0.827029 0.856488 0.158265 1 7 -1 
8421 6 0.575799 0.872967 0.160756 0 0 -1 
8424 6 0.465441 0.872601 0.180168 4 -4 0 
7954 6 0.198464 0.924385 0.144357 7 -1 5 
6163 6 0.292219 0.92405 0.156957 -4 1 0 
5590 5 0.330439 0.918861 0.155871 -4 3 -2 
5032 6 0.131336 0.940157 0.159122 2 -1 2 
8496 5 0.615868 0.960918 0.16299 1 4 -4 
6077 6 0.878266 0.953402 0.117453 3 -5 -1 
5678 6 0.126059 0.966066 0.11224 1 -3 -4 
8633 6 0.200734 0.981012 0.154743 1 -2 3 
5918 5 0.940813 0.00776846 0.136051 -1 -3 -1 
6239 5 0.201787 0.0178329 0.145277 3 0 1 
5475 5 0.373194 0.00598484 0.161997 -1 7 0 
6759 5 0.532983 0.981408 0.167502 -2 -2 4 
8527 5 0.893275 0.0110133 0.141436 3 -3 1 
6952 5 0.945336 0.0387912 0.185511 4 0 -2 
7716 5 0.251392 0.993058 0.151916 -2 -4 1 
7038 5 0.0902299 0.0631631 0.184833 0 4 1 
8165 6 0.563871 0.0794942 0.171878 4 1 0 
8767 5 0.766915 0.0386417 0.200272 0 -2 1 
5142 5 0.947145 0.0703088 0.174533 -1 0 1 
7858 6 0.20198 0.084444 0.195314 3 2 3 
5760 6 0.589657 0.0724624 0.133798 2 -4 4 
7104 5 0.864364 0.069227 0.15131 1 -1 -2 
8946 5 0.171782 0.0697038 0.161508 1 1 4 
5668 5 0.32321 0.105083 0.193213 -3 0 4 
5183 6 0.373618 0.160233 0.191524 -3 0 0 
7086 5 0.134187 0.121313 0.180659 -7 2 -2 
7377 5 0.193707 0.141842 0.17104 3 -2 -3 
6994 6 0.324644 0.156395 0.148172 3 4 1 
8736 6 0.666302 0.183731 0.146491 1 -2 0 
7531 6 0.108247 0.163884 0.10964 0 -1 2 
8072 6 0.973928 0.162674 0.159388 0 -2 1 
6177 6 0.168424 0.174581 0.165427 -4 4 2 
8149 6 0.287891 0.173257 0.157791 2 3 1 
8232 6 0.43792 0.205577 0.189606 1 1 0 
7857 5 0.660591 0.201576 0.156633 0 5 1 
8785 6 0.755583 0.219314 0.148151 4 -1 -1 
8108 6 0.852237 0.157264 0.170624 -3 -1 -5 
8145 6 0.247186 0.234209 0.184367 0 4 2 
7581 6 0.271775 0.237659 0.177825 3 1 3 
5632 6 0.376309 0.253157 0.171427 3 1 1 
8846 5 0.466463 0.247797 0.128652 3 -1 2 
7902 5 0.697434 0.252191 0.153576 2 -1 -1 
6846 6 0.373204 0.275045 0.147114 -2 -1 3 
5876 5 0.981111 0.256158 0.196897 -1 0 1 
8307 5 0.0177863 0.267623 0.175258 2 -2 5 
8925 6 0.562135 0.312611 0.12895 4 1 -4 
6684 5 0.622182 0.271254 0.195519 -3 1 3 
7325 5 0.762724 0.253378 0.178807 2 3 7 
5697 5 0.069175 0.337568 0.181891 2 1 2 
7561 6 0.229119 0.346636 0.143127 1 5 -5 
5785 5 0.40444 0.367638 0.185872 4 2 5 
5551 5 0.710029 0.371393 0.133079 -5 -1 -4 
7999 5 0.718391 0.430732 0.1614 1 -7 -2 
6321 6 0.767468 0.426424 0.169583 0 0 -1 
6215 6 0.546458 0.389064 0.147738 2 2 -5 
7281 5 0.704093 0.390224 0.138161 4 1 0 
7415 5 0.910882 0.44495 0.224294 -1 0 -4 
7484 6 0.872702 0.423165 0.171011 6 -1 2 
6673 6 0.394788 0.474856 0.172072 0 -3 2 
8114 6 0.518901 0.496141 0.179539 -1 -3 -3 
5476 5 0.564291 0.491817 0.164871 1 4 -4 
5196 6 0.952794 0.490177 0.146471 3 -1 -2 
7770 5 0.967261 0.510785 0.148987 0 4 -1 
7800 6 0.27532 0.512557 0.155059 3 4 1 
5600 6 0.0873822 0.53975 0.164721 0 -1 -1 
5471 6 0.261272 0.538327 0.142365 -4 5 2 
8042 5 0.657175 0.566177 0.159877 2 6 7 
7579 6 0.231261 0.552736 0.144478 1 -3 3 
5654 5 0.924635 0.566983 0.173633 2 -1 -3 
7636 5 0.259532 0.575481 0.132849 4 1 -5 
8244 6 0.724363 0.559136 0.178169 4 0 2 
8195 5 0.514221 0.615677 0.176433 0 4 -3 
6566 6 0.246365 0.612768 0.146882 1 1 -5 
7826 6 0.242098 0.648584 0.163858 3 3 -1 
7152 6 0.304923 0.658417 0.170552 1 0 0 
6199 5 0.217686 0.704607 0.172396 4 1 1 
5950 6 -0.00120339 0.686113 0.169653 -6 0 2 
7344 6 0.322421 0.73808 0.187007 2 4 -4 
7966 6 0.520391 0.707496 0.189394 -2 1 -3 
8761 6 0.802399 0.734982 0.175469 2 0 3 
7833 6 0.996028 0.755891 0.185905 1 -2 2 
8268 6 0.360859 0.740599 0.171159 5 -6 5 
5538 6 0.792592 0.807532 0.190951 1 0 -1 
7336 6 0.771849 0.778602 0.15033 -4 -1 -1 
8519 6 0.336151 0.831838 0.201146 0 -2 -3 
6317 6 0.967207 0.793277 0.190872 1 6 -1 
8577 6 0.273417 0.82581 0.120903 0 -2 -3 
6300 6 0.683536 0.867843 0.178464 -3 0 2 
6700 5 0.451987 0.879074 0.210778 0 0 0 
8319 6 0.0684403 0.878099 0.143336 1 -3 -3 
8684 6 0.491848 0.917682 0.145588 0 3 -4 
7704 5 0.74643 0.936909 0.163608 -3 -1 -3 
7893 6 0.00693584 0.00308919 0.196216 -4 1 3 
8660 5 0.188055 0.969939 0.164552 -2 -2 -3 
8813 6 0.261722 0.967407 0.162977 0 -5 4 
5089 6 0.738081 0.925328 0.22007 -2 -1 1 
6136 6 0.830153 0.998802 0.138416 1 3 1 
7134 6 0.0607812 0.958549 0.151712 -4 1 1 
7315 5 0.408277 -0.0014687 0.175281 2 4 -2 
7291 6 0.535401 0.0483592 0.220319 -1 1 2 
8205 5 0.484748 0.0582673 0.182044 -2 -3 2 
5465 5 0.855704 0.0539525 0.148043 6 -1 -2 
6408 5 0.893898 0.0782093 0.197616 2 -3 0 
5620 5 0.665507 0.0744102 0.186499 -4 -1 2 
7992 6 0.0280038 0.0786846 0.175989 0 2 3 
7394 6 0.143856 0.149917 0.19815 4 4 3 
8293 6 0.253167 0.18732 0.189789 -4 3 2 
7010 5 0.838676 0.172306 0.15843 2 2 2 
8673 6 0.280724 0.174056 0.201744 2 2 -3 
5427 5 0.466321 0.176371 0.150186 2 4 -2 
6640 6 0.458701 0.176987 0.221301 -4 1 0 
8719 6 0.843266 0.160673 0.205284 -1 3 -1 
7853 5 0.492687 0.208577 0.172846 -3 2 6 
5651 6 0.245608 0.238886 0.224089 0 0 -3 
8438 5 0.382522 0.23238 0.212138 -2 3 -3 
7299 6 0.309259 0.326636 0.206679 4 -2 1 
7370 5 0.773871 0.308266 0.190797 -2 5 3 
8685 6 0.197322 0.340278 0.18723 3 2 1 
5416 5 0.671845 0.308811 0.165054 -3 -4 0 
6944 6 0.279311 0.389319 0.221722 -2 -2 -4 
5779 5 0.0159235 0.41724 0.223253 6 -1 0 
8071 5 0.244343 0.394482 0.209813 -2 3 2 
6911 6 0.366216 0.437262 0.166861 -2 -4 2 
5425 5 0.73466 0.414885 0.223122 -2 -1 3 
6046 5 0.935462 0.443505 0.216677 0 3 4 
5783 5 0.546532 0.381258 0.219017 -5 -3 -3 
6555 6 0.837923 0.406115 0.219369 2 -3 -4 
7389 6 0.974326 0.407985 0.198478 -1 0 5 
6335 6 0.858369 0.469117 0.17832 -4 -2 2 
5746 5 0.146436 0.4947 0.187825 0 1 1 
8269 5 0.136269 0.548034 0.200223 6 5 -4 
6303 6 0.198281 0.544245 0.191761 1 -4 -1 
7640 6 0.302449 0.562182 0.226284 0 2 -3 
6264 6 0.912607 0.588108 0.19169 7 -6 -3 
6950 5 0.59428 0.611977 0.202768 -2 3 -4 
6622 6 0.763218 0.553014 0.188943 -2 3 3 
8098 6 0.225091 0.604759 0.193224 3 -1 -2 
6698 6 0.323971 0.623712 0.207555 1 -3 -2 
6733 5 0.454323 0.584973 0.191921 -5 3 6 
7593 5 0.973868 0.585127 0.186332 6 4 3 
6288 6 0.207315 0.65337 0.132288 2 4 2 
5460 5 0.959011 0.620287 0.200511 6 0 -1 
5275 6 0.46261 0.693125 0.203588 2 0 -1 
5231 5 0.066364 0.714482 0.247342 -3 2 1 
8935 5 0.263312 0.745195 0.207324 0 1 2 
5888 5 0.355106 0.748444 0.174546 -1 4 1 
7436 5 0.256881 0.711705 0.213054 3 -1 -1 
8566 5 0.732042 0.739066 0.14944 4 2 -3 
6363 6 0.863676 0.722668 0.219211 -2 -1 0 
7960 6 0.934135 0.730317 0.158291 -2 -1 -2 
7296 5 0.257765 0.773708 0.177779 -3 -2 1 
8677 5 0.871927 0.772379 0.195604 3 6 0 
8106 5 0.873068 0.764231 0.207107 1 5 4 
5896 5 0.936545 0.773722 0.202116 -1 2 0 
7482 5 0.286146 0.769803 0.193565 -1 -2 -4 
8592 6 0.33777 0.762777 0.198796 0 4 1 
5974 6 0.423127 0.74063 0.183748 -6 0 -2 
6371 6 0.912403 0.796677 0.211556 -2 -5 0 
8863 6 0.0543629 0.821291 0.212231 3 -4 -4 
7885 5 0.426683 0.815493 0.181744 -1 -1 -4 
8124 5 0.724409 0.828087 0.176196 -2 2 2 
7208 5 0.81511 0.797655 0.165803 0 5 0 
8860 6 0.81657 0.810948 0.213748 3 0 0 
8046 6 0.0521584 0.885862 0.211764 -4 2 -1 
6053 6 0.609352 0.887362 0.205912 1 -1 -2 
8791 6 0.083226 0.909477 0.19616 0 0 4 
6595 6 0.490486 0.894833 0.192429 -3 -5 0 
5961 6 0.613492 0.884322 0.168949 0 2 1 
6652 5 0.840019 0.902926 0.179622 3 -4 -1 
6588 6 0.562046 0.930244 0.201435 -2 -3 0 
7151 5 0.0347879 0.945917 0.209405 0 -2 3 
7457 6 0.128523 0.959948 0.194361 -3 2 0 
6894 5 0.1853 0.948495 0.186558 -5 -2 2 
8666 6 0.721571 0.947471 0.193317 2 0 4 
8836 5 0.21726 0.888048 0.19558 -6 0 4 
5890 5 0.6998 0.917587 0.227834 5 -2 -1 
6549 5 0.80477 0.937713 0.193735 -4 1 -3 
6188 5 0.183329 0.989752 0.200891 -6 0 6 
7757 6 0.238801 0.963897 0.186247 1 5 3 
5132 5 0.991972 0.00611894 0.221634 4 2 4 
5837 6 0.176519 0.02874 0.239768 -3 0 -1 