ITEM: TIMESTEP
20000000
ITEM: NUMBER OF ATOMS
9000
ITEM: BOX BOUNDS pp pp pp
-75 75
-75 75
-75 75
ITEM: ATOMS id type xs ys zs ix iy iz 
7663 6 0.989851 0.972721 0.0265446 1 -1 -3 
7079 6 0.802485 0.0306571 0.0218468 -2 2 -5 
6082 6 0.351878 0.0645448 0.0416207 2 1 -1 
5090 6 0.788343 0.0623488 0.044214 -2 4 1 
5813 5 0.575734 0.0870854 0.0197735 -2 -1 -4 
6301 6 0.940634 0.114799 0.0222063 -6 0 5 
8758 6 0.955418 0.0787655 0.0161719 -2 2 -2 
5017 5 0.260479 0.0658897 0.994809 -1 -1 0 
8394 5 0.860416 0.121861 0.0306044 -5 -6 -1 
5398 6 0.0992268 0.0770176 0.000821159 -2 6 -3 
6113 5 0.111483 0.107965 0.0068139 2 -1 3 
7571 5 0.244362 0.150229 0.979655 -1 0 0 
5078 6 0.315888 0.161796 0.0296067 1 -4 -1 
7375 5 0.492002 0.183081 0.995626 0 1 -1 
8612 6 0.0374057 0.153526 0.996026 7 -4 1 
5411 5 0.810624 0.170034 0.985797 -7 4 2 
8145 5 0.871506 0.168095 0.0700478 -3 1 -2 
5714 6 0.475732 0.205606 0.00610418 -1 5 8 
5068 6 0.850127 0.190712 0.985282 -3 0 0 
6298 5 0.677561 0.211343 0.992376 -1 2 -1 
7726 6 0.772807 0.221785 0.980788 2 4 -4 
8996 5 0.821595 0.227696 0.948596 -1 3 -3 
5524 6 0.460306 0.290071 0.0293936 -2 2 0 
8353 5 0.194835 0.316039 0.0225211 -3 0 1 
8946 6 0.314233 0.385957 0.00299692 -5 1 -1 
7295 5 0.602318 0.311554 0.0264176 4 -4 -1 
5715 5 0.658464 0.331224 0.0589368 -4 4 2 
7545 5 0.87883 0.317588 0.00360017 -1 0 -1 
5383 5 0.438013 0.354626 0.0116783 1 4 7 
8134 6 0.604042 0.336597 0.0166779 5 5 0 
8736 5 0.0917769 0.388057 0.0288258 -1 -3 7 
6204 6 0.498898 0.382187 0.0234257 -2 -2 0 
6918 6 0.157255 0.379054 0.0235959 6 -1 -4 
6951 6 0.183043 0.418674 0.0345727 0 -2 1 
6337 5 0.985003 0.396487 0.0408397 1 2 0 
8516 5 0.104392 0.401939 0.0376675 -2 6 2 
5047 5 0.543028 0.424369 0.0263701 -1 -1 0 
8969 5 0.404524 0.464999 0.0548624 6 3 2 
5283 5 0.578524 0.463306 0.0111859 -2 -2 0 
5999 6 0.262465 0.425981 0.976529 -4 0 1 
6293 5 0.858688 0.465337 0.967067 1 1 0 
5154 5 0.219528 0.44944 0.983288 1 3 1 
7318 6 0.0672339 0.461237 0.0337453 0 2 4 
6253 5 0.491391 0.476938 0.0436125 -2 -4 -1 
8178 5 0.572158 0.544611 0.977649 1 4 -1 
5882 5 0.726856 0.509528 0.986407 -5 3 0 
5265 6 0.570904 0.513693 0.000919336 4 -2 0 
6136 5 0.101517 0.542028 0.975653 0 3 -2 
5516 6 0.117396 0.592759 0.000324762 4 -1 1 
7596 5 0.391467 0.574695 0.00840713 4 -4 -1 
5506 6 0.581819 0.594872 0.0336756 2 -1 0 
5498 6 0.269562 0.606522 0.00181259 2 -2 4 
8847 6 0.633446 0.589097 0.0165493 -1 3 -1 
6581 6 0.660748 0.549403 0.992657 0 3 -1 
7613 6 0.435544 0.659964 0.972959 -2 0 -4 
8590 5 0.405077 0.625355 0.0515757 -1 0 1 
6381 6 0.952271 0.627977 0.00233791 1 2 5 
6486 5 0.0409798 0.671587 0.00821617 5 2 2 
5679 5 0.696917 0.675339 0.980437 -2 1 1 
6148 5 0.328076 0.673051 0.00784788 5 5 7 
6864 6 0.340164 0.697528 0.000302849 3 6 1 
6835 6 0.597294 0.664306 0.991841 2 4 -4 
5526 6 0.992583 0.723886 0.0240049 1 -3 -4 
7885 5 0.933769 0.756218 0.0133924 -1 4 1 
8720 5 0.578126 0.758238 0.0148455 -1 3 -2 
8723 6 0.128486 0.752838 0.0170796 2 -1 3 
8282 6 0.358275 0.790079 0.967106 4 -2 0 
8298 5 0.146578 0.761325 0.98258 1 -7 -2 
5971 6 0.439776 0.784197 0.00734224 2 -1 -3 
7998 5 0.138476 0.849258 0.0257352 -2 6 3 
6569 5 0.486871 0.851148 0.991004 -2 2 5 
5144 5 0.130996 0.861406 0.0305479 7 4 3 
8817 5 0.143242 0.882029 0.00572826 -2 3 0 
5856 5 0.508567 0.86817 0.0325187 -1 -4 4 
8444 5 0.535271 0.873615 0.0435796 -3 4 1 
7743 6 0.217279 0.912954 0.0238919 -2 -1 3 
7389 6 0.502382 0.90119 0.0285337 -1 -3 0 
5264 6 0.315599 0.962694 0.0215238 0 0 3 
6696 5 0.439786 0.945361 0.0403918 3 -1 -5 
6531 6 0.559913 0.938976 0.00976486 5 0 -2 
5674 5 0.548993 0.00841964 0.973405 5 -1 0 
8787 5 0.0581046 0.0622216 0.0465101 -3 4 4 
7207 5 0.984712 0.999591 0.0399865 -2 -1 1 
7622 6 0.496682 0.0306226 0.0394097 -1 0 3 
5316 5 0.732744 0.0834374 0.0313596 -2 2 -1 
5774 6 0.795979 0.0887026 0.0147948 -1 2 2 
7497 5 0.105785 0.122811 0.00083938 8 3 5 
5484 6 0.351123 0.136492 0.0555966 5 1 1 
6895 6 0.656167 0.0904087 0.0374304 -1 0 1 
5575 5 0.717544 0.118509 0.038774 6 4 -1 
8974 6 0.0348744 0.150147 0.00445846 2 2 -1 
7542 6 0.0460748 0.17 0.0334248 1 -1 -1 
5079 6 0.650547 0.168528 0.035621 1 4 3 
7817 5 0.796623 0.145288 0.0193526 2 8 -2 
6217 5 0.837843 0.167685 0.0258927 2 -3 2 
8449 6 0.208226 0.184229 0.0238633 1 3 -3 
6485 5 0.644216 0.256637 0.044208 -2 -3 1 
7820 6 0.913693 0.213174 0.0162104 3 6 -3 
7749 5 0.2504 0.257095 0.0106059 -4 0 -1 
8288 6 0.072864 0.269798 0.0338784 -1 -1 7 
5466 5 0.100074 0.241018 0.0176347 2 0 -1 
5443 6 0.743609 0.292212 0.0801813 -1 3 0 
6111 6 0.838324 0.272589 0.00961892 3 4 2 
6365 5 0.926556 0.259267 0.0657618 -1 -3 0 
8667 6 0.96356 0.208467 0.0615146 -3 1 2 
7054 6 0.99735 0.313843 0.0587451 0 3 -1 
6342 6 0.0504993 0.308238 0.995485 4 -2 5 
5207 5 0.065156 0.310891 0.0460353 3 0 4 
6644 6 0.61816 0.278933 0.0186754 -3 6 -1 
8540 6 0.655011 0.303826 0.0675542 -4 -1 4 
6885 5 0.713119 0.291788 0.0219016 -3 2 2 
6941 6 0.728034 0.278514 0.0250289 -1 -4 0 
5888 6 0.828607 0.329425 0.00368943 -7 3 0 
8120 5 0.246107 0.329163 0.0374455 -3 2 -1 
7947 5 0.830944 0.310256 0.0482106 -6 0 -1 
7952 6 0.293697 0.37558 0.015935 -2 2 0 
7358 5 0.523254 0.359135 0.0279384 3 0 -4 
5183 6 0.874656 0.401721 0.0257296 3 1 0 
8045 6 0.776879 0.379768 0.0257609 0 3 -3 
6810 6 0.930098 0.362314 0.0502953 2 3 1 
6996 5 0.695782 0.375182 0.0172379 1 -4 0 
5732 5 0.940668 0.402127 0.0384344 -4 4 0 
5313 6 0.368929 0.431452 0.0548586 0 0 2 
7133 5 0.520434 0.461493 0.0664935 1 1 1 
7201 6 0.894476 0.450652 0.0207904 0 6 -3 
7148 5 0.101937 0.476872 0.036036 0 1 3 
5691 5 0.872359 0.521258 0.00670881 1 -1 -1 
7101 5 0.199615 0.514978 0.0421653 3 3 -4 
8071 5 0.237775 0.558516 0.0420225 0 -1 -3 
8483 6 0.239582 0.523286 0.0475528 2 -5 0 
5164 6 0.957928 0.565733 0.0347071 5 -3 0 
6577 5 0.14457 0.599148 0.100586 6 2 3 
5009 6 0.327392 0.534542 0.0359557 -1 2 -2 
5181 6 0.366148 0.577864 0.0585851 3 -3 0 
7446 5 0.731026 0.634832 0.0248574 2 -1 2 
8122 6 0.000825539 0.606038 0.0167692 3 -2 -2 
6322 5 0.841115 0.616738 0.0425797 0 2 1 
8824 6 0.0884303 0.631039 0.088958 0 -1 0 
6858 5 0.256847 0.639071 0.0400065 1 1 0 
5104 5 0.107182 0.631567 0.0715535 -2 -2 3 
6635 6 0.100528 0.675885 0.0804241 5 -2 2 
5956 5 0.849933 0.668372 0.0218195 1 2 1 
6919 6 0.645623 0.692156 0.0593765 2 2 1 
5817 6 0.555259 0.693972 0.0419721 2 7 3 
7599 6 0.25481 0.741697 0.0573212 1 0 3 
8321 5 0.619436 0.786362 0.0696507 0 -3 3 
8750 6 0.088296 0.789443 0.0189971 1 1 1 
5869 5 0.227602 0.754467 0.044682 1 -4 1 
6238 5 0.960525 0.737861 0.0419536 1 -5 -2 
8325 5 0.748906 0.74737 0.0270318 1 -5 0 
5845 5 0.833775 0.769866 0.0692286 -5 -3 0 
7491 6 0.0765429 0.791275 0.0499461 3 0 -5 
5263 5 0.423288 0.770136 0.0515009 2 -5 -1 
5332 5 0.450872 0.821966 0.0560559 2 -4 2 
8116 5 0.454532 0.813254 0.0404209 -3 2 -2 
6397 5 0.576144 0.823953 0.0184136 -1 2 -1 
7014 5 0.554326 0.786859 0.0470879 -1 0 3 
8345 5 0.0372074 0.828285 0.038093 -1 -2 1 
5404 6 0.365214 0.815246 0.048908 3 -1 0 
6306 6 0.455542 0.837975 0.0251095 4 2 0 
7668 5 0.572672 0.815053 0.0278293 1 3 0 
8966 5 0.731509 0.853509 0.0312785 0 -3 1 
8260 6 0.899135 0.82032 0.0413752 -1 -1 -1 
8898 5 0.955294 0.808629 0.0762216 -2 0 3 
7242 5 0.0949787 0.842034 0.0315277 -5 2 1 
8942 6 0.429851 0.815762 0.0466062 -2 2 1 
5736 6 0.549248 0.876264 0.045848 0 -1 1 
6732 5 0.570362 0.821576 0.0457034 2 2 1 
8535 5 0.806505 0.800374 0.0193442 -2 -1 4 
5780 5 0.963138 0.868292 0.0203451 6 -2 0 
8519 5 0.935228 0.848479 0.0682386 1 -7 0 
8603 6 0.395282 0.892715 0.0424764 1 -2 0 
7135 5 0.697286 0.881653 0.0710385 1 -3 -5 
7654 6 0.421115 0.842399 0.0277851 0 -4 2 
5554 6 0.943985 0.918106 0.0589854 -3 0 1 
7806 6 0.537869 0.894882 0.0573599 1 1 5 
8370 6 0.746077 0.91746 0.000599977 -3 -1 -2 
6763 6 0.179343 0.974756 0.993246 0 2 0 
5742 5 0.149034 0.948272 0.010695 3 -2 5 
8355 5 0.447228 0.917728 0.017445 -5 -2 -7 
7240 6 0.971961 0.93426 0.025507 -1 -4 3 
6463 5 0.332174 0.948421 0.0289915 0 -1 4 
6180 5 0.643039 0.966297 0.0419223 0 3 1 
7526 5 0.774242 0.977754 0.0288176 3 1 1 
7438 5 0.727259 0.0188968 0.0433539 0 0 1 
6161 6 0.21286 0.030308 0.0363535 0 3 4 
5501 5 0.197226 0.0169076 0.0559404 4 0 -5 
7515 6 0.57667 0.0189413 0.0773327 0 -3 1 
8431 6 0.561923 0.0650207 0.020312 1 5 -3 
8514 6 0.804074 0.00162256 0.0791157 2 3 0 
7017 6 0.100261 0.0612028 0.994041 1 4 -2 
8537 6 0.249588 0.0832352 0.0343286 1 4 -1 
8171 5 0.287345 0.0965104 0.0337906 3 2 3 
6836 5 0.355199 0.0981294 0.0116333 4 3 -2 
5075 5 0.321934 0.0886729 0.0737392 3 4 -2 
8701 6 0.679235 0.0972829 0.0525997 4 1 1 
8115 6 0.322198 0.123727 0.0405186 5 1 -2 
8658 5 0.678206 0.15789 0.0798384 1 0 6 
5775 5 0.853239 0.136086 0.0489016 3 4 2 
8048 6 0.601177 0.175401 0.0344664 1 3 -2 
6488 6 0.0283706 0.158909 0.0444956 1 0 3 
7282 5 0.333172 0.206445 0.0418174 6 -3 -2 
7073 6 0.288059 0.208778 0.0646262 1 0 2 
7448 6 0.269033 0.255663 0.0712796 -6 -2 7 
8683 5 0.83833 0.266766 0.0681951 0 -4 0 
6033 5 0.930213 0.30411 0.0551423 3 1 3 
7710 6 0.239295 0.299804 0.0498404 3 1 0 
7150 6 0.729447 0.321947 0.0417191 -5 3 -1 
8427 5 0.802117 0.315739 0.0360395 1 -2 -1 
7060 6 0.989354 0.343543 0.0690065 1 2 1 
6849 6 0.891301 0.351164 0.0723247 -2 4 0 
7066 6 0.907691 0.413934 0.0591256 -1 -2 -1 
7606 6 0.270461 0.415418 0.0561311 1 -5 -1 
6304 5 0.0212411 0.42004 0.0869841 -6 1 0 
7164 6 0.545283 0.437029 0.0934283 1 -5 0 
7055 6 0.356838 0.460404 0.032092 0 -3 -2 
7896 5 0.0784947 0.488433 0.0643825 4 1 -1 
5142 6 0.208365 0.470727 0.0640764 -2 0 5 
7392 6 0.244 0.47511 0.0210557 3 -4 -3 
8671 5 0.310069 0.477033 0.0113496 2 4 0 
5299 5 0.622115 0.455193 0.052622 -6 -2 2 
7382 5 0.78082 0.462089 0.0609938 -4 2 -1 
7971 5 0.927253 0.455086 0.0597404 6 0 2 
8376 6 0.0727995 0.471752 0.056008 -4 0 6 
8940 6 0.664227 0.513252 0.069744 -4 -2 3 
8882 6 0.828093 0.475357 0.0708065 -1 3 -1 
7058 5 0.245812 0.556349 0.079254 3 0 -1 
6273 5 0.831279 0.533397 0.0253296 3 1 -2 
8343 5 0.831426 0.560613 0.0709689 1 2 1 
7585 6 0.89098 0.589493 0.0561497 3 0 -4 
6614 5 0.743826 0.568413 0.0559045 2 -5 -1 
5262 5 0.925471 0.593869 0.0752885 -3 1 6 
6153 6 0.246743 0.567068 0.0389038 -2 -1 -4 
7488 6 0.279357 0.599068 0.0276733 0 2 0 
8168 6 0.294985 0.609331 0.0442658 0 -2 -2 
6524 6 0.979786 0.58654 0.0628827 3 4 4 
8687 6 0.171285 0.619608 0.0290222 0 -1 -1 
6313 6 0.564452 0.613093 0.0666121 -7 -3 0 
5514 5 0.934851 0.624895 0.0498334 2 -4 3 
6803 5 0.0287169 0.65145 0.0482051 3 1 0 
7700 5 0.513999 0.677735 0.0855229 3 0 1 
7266 5 0.027553 0.702413 0.0497719 5 1 1 
6085 6 0.425157 0.727935 0.0621925 3 0 -6 
8262 5 0.639982 0.700692 0.0673541 -1 0 0 
5924 5 0.0225326 0.697266 0.0620554 -2 3 4 
6056 6 0.0986945 0.705179 0.0591725 -8 4 6 
7989 5 0.0644484 0.766107 0.0875377 1 -1 5 
6508 6 0.234808 0.747309 0.0281522 1 0 -1 
7158 5 0.136375 0.765191 0.0606711 1 -6 -1 
5019 5 0.943081 0.71248 0.0812151 4 -1 4 
7652 5 0.265977 0.797057 0.0510994 -2 -1 -2 
5428 6 0.741448 0.833279 0.0766901 0 8 5 
5247 6 0.228588 0.8359 0.0667924 1 2 0 
7154 5 0.419139 0.832738 0.041018 1 -4 3 
5119 5 0.0151759 0.849141 0.0528101 0 2 0 
6377 6 0.794652 0.840056 0.053175 -7 -2 3 
5851 5 0.692252 0.901763 0.0774585 3 -2 -1 
8554 5 0.727311 0.888938 0.0868681 4 0 3 
7888 5 0.535581 0.864897 0.0633931 -1 1 5 
6923 5 0.559479 0.944508 0.0744045 1 -1 -2 
8410 6 0.783161 0.935194 0.0314364 1 -3 0 
7886 6 0.309885 0.985367 0.0682338 4 -2 5 
5232 5 0.724338 0.990175 0.0702781 2 -5 -3 
6195 6 0.782709 0.946702 0.082918 1 5 2 
6336 6 0.0376274 0.962313 0.0704364 -5 0 -1 
5149 6 0.0812491 0.020881 0.0545241 2 0 4 
8252 6 0.282751 0.944618 0.062102 1 -6 7 
8980 5 0.437106 0.993104 0.0911198 -2 1 -6 
7309 6 0.904192 0.988444 0.0706726 -3 -3 -3 
7237 5 0.0495443 0.981693 0.0826273 -1 -1 0 
7844 5 0.367534 0.030916 0.0991085 -3 -2 1 
7808 5 0.662268 0.0240454 0.100144 2 -1 1 
5735 5 0.543244 0.0298351 0.105905 -5 -6 1 
6247 6 0.159536 0.0931627 0.0765303 0 1 -1 
8698 6 0.0450461 0.0516106 0.0597577 -4 -3 2 
6472 6 0.35118 0.0665284 0.11439 0 3 3 
5717 5 0.584398 0.111483 0.094228 -1 0 -2 
8931 5 0.660936 0.0855847 0.103113 2 1 0 
8806 6 0.843941 0.0443447 0.0849903 -3 3 2 
6601 6 0.905465 0.0880585 0.117877 1 3 -5 
6625 5 0.29061 0.142775 0.0598028 -2 6 3 
5476 5 0.65791 0.113004 0.105364 -3 -2 0 
6827 5 0.19923 0.155707 0.0471748 -1 1 -3 
8978 5 0.231508 0.118373 0.0902014 3 -2 -3 
7086 6 0.610573 0.183035 0.0684043 -1 3 1 
8074 6 0.673733 0.181158 0.0882548 -1 5 1 
5195 5 0.902624 0.173287 0.0579234 1 -2 -2 
5748 6 0.595178 0.184879 0.0811668 -2 -1 -7 
7531 6 0.754534 0.146712 0.0718262 -5 6 0 
7959 5 0.51265 0.231243 0.0953979 -2 -1 3 
6529 6 0.876998 0.196613 0.10583 4 -5 1 
7722 5 0.904187 0.227781 0.0592767 -5 -3 -4 
7310 5 0.19019 0.27577 0.110291 3 0 2 
5695 6 0.360195 0.25849 0.0797975 -2 -2 -3 
5491 6 0.923417 0.301443 0.121993 2 1 9 
5651 5 0.0266564 0.346919 0.0572106 -4 4 -1 
7852 6 0.773418 0.334257 0.111522 1 2 0 
7935 6 0.475533 0.311841 0.0908366 -3 -2 0 
5408 6 0.741912 0.337686 0.0979108 4 3 -2 
6371 5 0.186221 0.421591 0.0745665 1 -4 -1 
7021 6 0.957569 0.403529 0.102629 -4 3 4 
6478 5 0.0771183 0.419292 0.093714 2 4 6 
7642 6 0.514736 0.424784 0.0789299 0 -1 -1 
8326 6 0.385235 0.434661 0.0888852 4 2 2 
6602 6 0.836045 0.451217 0.0477662 -2 2 -1 
6439 6 0.347916 0.467084 0.0846958 1 -2 1 
5497 6 0.543496 0.452111 0.102675 1 2 1 
6952 6 0.498132 0.475355 0.0640628 -7 2 2 
8982 5 0.907735 0.507513 0.0864273 -1 2 -4 
5893 5 0.998421 0.518825 0.0773891 -1 8 7 
6811 6 0.565866 0.524416 0.104081 -3 -3 1 
8009 5 0.805149 0.546688 0.0964127 -4 -3 3 
7858 6 0.872822 0.559583 0.116474 1 -1 -1 
5877 6 0.94158 0.514351 0.127093 0 7 0 
5254 5 0.796645 0.526838 0.0564541 -2 6 3 
5349 6 0.413801 0.567994 0.102058 1 -4 2 
7903 5 0.921509 0.591924 0.0921531 -3 1 -1 
8935 5 0.532172 0.608208 0.124142 -2 -4 4 
5566 6 0.82768 0.556608 0.0977363 5 1 0 
6264 6 0.93678 0.601409 0.100642 -3 -3 -2 
7761 5 0.290281 0.647624 0.0680981 3 -1 1 
5495 6 0.359251 0.652462 0.0769729 -2 2 1 
8778 5 0.981477 0.603741 0.0694716 1 2 -4 
6226 6 0.980088 0.616279 0.0881624 1 0 3 
5518 5 0.0525437 0.647305 0.0586385 -5 -1 8 
5225 5 0.175907 0.647051 0.0789908 1 2 -3 
7131 5 0.493406 0.663579 0.0778373 -3 -5 2 
5292 5 0.638548 0.747302 0.0497889 2 1 5 
5407 5 0.223075 0.757673 0.0908611 3 -1 0 
8897 5 0.249714 0.769445 0.103899 0 1 -4 
8990 5 0.240093 0.726851 0.112324 1 1 1 
7209 6 0.247119 0.78484 0.0353881 -7 8 -2 
6708 6 0.236558 0.780084 0.0723287 2 -2 2 
6037 5 0.779371 0.78922 0.0582885 6 -4 1 
5362 5 0.188624 0.798811 0.0903453 2 2 2 
7552 6 0.8505 0.81575 0.100605 2 1 1 
8320 5 0.441778 0.912328 0.0390067 3 6 0 
7967 5 0.948626 0.879157 0.0260818 2 -2 2 
7501 6 0.392119 0.937026 0.0761962 3 -3 0 
8684 5 0.805851 0.99221 0.0588543 -3 1 1 
8283 6 0.289448 0.970687 0.0828244 -4 2 2 
6418 6 0.549999 0.964843 0.0814568 -5 -4 3 
5598 6 0.17585 0.00174448 0.11905 1 2 -3 
6140 5 0.342691 0.972302 0.053542 -4 0 0 
5512 6 0.409596 0.988806 0.0810044 -1 1 1 
7049 6 0.956862 0.00526855 0.0808231 -4 4 3 
5276 6 0.0312716 0.00405849 0.120803 6 -1 -2 
8082 5 0.625932 0.981827 0.107456 1 2 -1 
7783 5 0.408859 0.0596105 0.102953 -1 -1 -3 
6132 5 0.56451 0.0728594 0.098105 3 5 -3 
6852 6 0.672574 0.0673505 0.0723661 4 -1 1 
8914 6 0.206045 0.0516111 0.0974821 1 3 1 
6539 5 0.266188 0.106211 0.0800575 -2 0 -3 
5576 5 0.344039 0.118054 0.0710781 0 3 -4 
8184 6 0.507264 0.0981161 0.089607 4 3 4 
6643 6 0.0221241 0.172296 0.127874 1 1 9 
7988 6 0.363172 0.158082 0.094664 -2 -1 -5 
7685 5 0.544967 0.21304 0.0900713 -3 -1 0 
8197 5 0.00939773 0.19405 0.11503 1 2 0 
5387 5 0.840985 0.210033 0.0859853 3 -3 -1 
7960 6 0.466839 0.218454 0.104779 1 2 1 
5582 5 0.607419 0.325816 0.111058 -1 -2 4 
8631 6 0.906799 0.308057 0.104296 2 0 0 
8257 6 0.702878 0.340462 0.114972 -5 2 3 
5200 6 0.779518 0.359506 0.091912 -4 -1 2 
6839 6 0.135585 0.371637 0.125088 4 1 -2 
8513 5 0.543519 0.399706 0.120969 4 -8 4 
7470 5 0.423005 0.389672 0.114458 2 -3 5 
7012 5 0.925227 0.430901 0.115919 -3 -1 0 
6502 5 0.193091 0.460117 0.113817 0 0 3 
7458 5 0.659216 0.435411 0.0709698 0 0 2 
5423 6 0.0647297 0.490068 0.139534 -1 -1 -3 
7030 5 0.435485 0.497034 0.0857359 6 3 5 
6833 6 0.746138 0.452456 0.124616 -2 1 0 
7244 5 0.859289 0.465441 0.0881508 2 0 -1 
7272 6 0.531671 0.45516 0.113642 2 1 1 
8425 5 0.589449 0.469864 0.113714 3 2 0 
7059 5 0.922525 0.479836 0.0982718 1 -4 -6 
7507 5 0.0427751 0.485979 0.0507892 -3 -3 2 
8706 5 0.316757 0.483807 0.0682252 -1 -4 2 
8861 6 0.799059 0.495252 0.118284 -2 -4 -4 
8906 6 0.259758 0.521983 0.084786 -1 3 3 
6922 5 0.289754 0.51523 0.0903931 3 -1 -1 
5461 6 0.503181 0.569711 0.100482 -2 1 -2 
7291 5 0.749351 0.54581 0.0688322 -1 4 -1 
8166 5 0.622178 0.606367 0.0915867 -4 -5 -1 
5374 6 0.685735 0.565389 0.098648 -4 0 0 
5668 5 0.42073 0.612425 0.116694 -1 3 3 
5191 6 0.541723 0.61067 0.135402 -3 2 5 
7015 5 0.641189 0.596331 0.102278 1 -3 1 
8114 6 0.834637 0.625892 0.065987 -1 1 -3 
6004 5 0.625501 0.689478 0.0630282 4 3 0 
8207 5 0.151732 0.707006 0.100881 -1 1 -4 
7099 6 0.746134 0.643038 0.111658 -2 -2 1 
5314 6 0.854669 0.694919 0.114631 1 2 -6 
6438 5 0.963926 0.72 0.0749428 -4 4 1 
6564 5 0.209989 0.712753 0.0909482 6 1 3 
7338 5 0.271912 0.711437 0.0963721 -1 -1 -2 
8269 5 0.0570331 0.757374 0.108658 -2 -1 -1 
5277 6 0.241437 0.707939 0.10594 -5 -2 2 
7877 5 0.390901 0.765563 0.103334 -2 -2 -2 
5250 5 0.441022 0.782905 0.0848365 -3 4 3 
7208 6 0.645456 0.728112 0.0932827 1 -4 4 
5071 5 0.328087 0.81262 0.137051 4 -1 -3 
5843 6 0.844679 0.801007 0.12245 0 -3 -1 
5713 6 0.696669 0.854257 0.115112 2 -1 4 
8600 5 0.765934 0.796651 0.058452 2 0 6 
8968 5 0.0614138 0.875376 0.0878811 2 -2 4 
8543 6 0.310459 0.857708 0.0549942 -3 -2 4 
5704 6 0.349119 0.839888 0.0660299 3 -3 1 
5325 6 0.541075 0.851887 0.1136 -1 4 3 
8820 5 0.253364 0.876751 0.0963357 0 -1 0 
7692 5 0.743265 0.914571 0.100914 0 0 1 
8203 6 0.394459 0.933209 0.163661 -2 -6 -2 
5322 6 0.541014 0.916033 0.095531 2 0 -4 
8749 6 0.670681 0.934413 0.0938835 0 -1 0 
5162 5 0.736495 0.930895 0.088488 2 -3 -1 
7536 5 0.894825 0.930296 0.0861982 0 -2 -1 
5171 5 0.383111 0.971244 0.106482 5 -3 2 
5304 5 0.762964 0.91631 0.0786 -4 2 1 
6044 5 0.843965 0.940425 0.0972031 -3 1 2 
7018 6 0.59066 0.983399 0.114953 -3 -1 3 
7306 5 0.763048 0.00444323 0.1071 -1 -1 0 
5425 5 0.960082 0.970912 0.0930207 -2 -4 0 
7639 6 0.224322 0.999817 0.122747 4 1 -3 
7057 5 0.235435 0.0189191 0.109292 4 -5 -4 
5508 5 0.62239 0.00910238 0.124597 0 2 -4 
8775 5 0.918941 0.98337 0.102473 0 -2 3 
7512 5 0.147791 0.0190123 0.112139 -3 1 2 
5706 6 0.301505 0.0434975 0.127515 2 -3 -5 
5032 6 0.610586 0.990627 0.138227 5 -3 2 
8965 5 0.958345 0.0384518 0.137686 -3 1 6 
6948 5 0.170006 0.0263929 0.11638 -2 1 2 
8363 6 0.273954 0.0257852 0.136454 3 3 1 
5824 6 0.252572 0.0376114 0.0998175 -1 -2 -3 
8131 6 0.706286 0.0549962 0.148485 -6 -1 3 
8267 6 0.959513 0.0314588 0.155035 -3 1 1 
6530 5 0.415306 0.012112 0.140464 3 -1 1 
8465 5 0.671793 0.0464522 0.120892 -3 -4 1 
6980 6 0.255128 0.0932497 0.142968 -2 0 3 
7730 6 0.185285 0.126918 0.0910439 6 5 -2 
8781 5 0.793658 0.112964 0.107976 0 1 0 
6933 6 0.961359 0.0630837 0.144843 2 -2 2 
6689 5 0.51151 0.127421 0.158555 6 1 1 
6346 5 0.652155 0.0816195 0.141693 -2 2 5 
5396 6 0.0444579 0.151565 0.14742 0 0 -1 
6075 5 0.0483851 0.164534 0.168107 2 0 2 
6312 5 0.163342 0.140507 0.0952215 -2 3 -2 
6063 5 0.276151 0.153935 0.141254 3 -5 1 
6527 5 0.417355 0.189356 0.145049 -3 1 2 
6209 5 0.898543 0.168376 0.110782 -3 -3 -8 
5503 6 0.932525 0.120087 0.12196 0 5 3 
6030 6 0.224884 0.180953 0.108597 1 2 0 
7153 6 0.572543 0.188185 0.12503 -3 2 3 
5974 6 0.11732 0.188395 0.142525 6 1 -2 
6285 5 0.664717 0.245072 0.136251 -5 -4 3 
7807 5 0.71633 0.20285 0.13505 -6 3 -2 
7452 5 0.109679 0.245251 0.135208 2 2 -1 
5579 6 0.399641 0.244152 0.0948958 -2 -7 0 
6191 6 0.141897 0.309731 0.135489 -5 6 -1 
6192 6 0.517194 0.270004 0.102495 2 -2 -1 
7559 6 0.756385 0.34388 0.149818 2 1 -1 
6792 6 0.742451 0.274566 0.102286 -1 6 1 
6429 6 0.799405 0.321931 0.105823 1 1 2 
8304 5 0.976536 0.365141 0.103915 -6 -5 1 
5057 5 0.295759 0.370339 0.131131 8 1 3 
5890 5 0.235298 0.387956 0.115181 0 -3 0 
8560 6 0.438173 0.369673 0.118416 7 0 -2 
6395 5 0.704531 0.414211 0.130885 1 5 0 
5887 5 0.62003 0.395592 0.110667 -1 4 4 
8329 5 0.189036 0.425672 0.125821 0 -4 3 
7041 6 0.320826 0.45931 0.106736 -2 1 2 
7876 6 0.575034 0.440507 0.14023 1 -8 1 
8930 5 0.331707 0.387812 0.152296 0 -5 -2 
5910 5 0.433294 0.470639 0.134492 2 2 1 
8148 6 0.672007 0.394641 0.133605 -6 3 5 
6774 5 0.791425 0.456306 0.11216 -7 5 0 
7567 6 0.178977 0.494769 0.0700064 -2 6 3 
5179 6 0.215515 0.471137 0.112826 -3 2 -1 
5143 6 0.552653 0.444376 0.0961302 5 0 -4 
5055 6 0.705731 0.497098 0.123286 1 -2 -6 
8694 5 0.370112 0.477738 0.119865 3 -4 2 
7845 6 0.641048 0.506144 0.110025 -3 -1 -1 
5904 6 0.698339 0.541152 0.122182 -2 3 2 
8442 6 0.797145 0.572502 0.118338 -4 4 3 
5367 6 0.162804 0.583898 0.107926 1 -2 -5 
8879 6 0.485796 0.592793 0.110232 0 -5 2 
6692 5 0.59456 0.635961 0.125821 -4 0 3 
5165 6 0.913081 0.647574 0.13099 4 0 0 
5550 6 0.00377386 0.609034 0.101637 -1 3 1 
8053 5 0.842923 0.694213 0.126744 -1 4 1 
5612 5 0.833117 0.666273 0.117062 5 -6 1 
5240 5 0.972056 0.685954 0.126872 -4 2 0 
7062 5 0.774369 0.705304 0.122129 -7 2 1 
6417 5 0.346971 0.72367 0.126121 -2 4 0 
8068 6 0.827256 0.723203 0.146487 0 2 7 
6674 5 0.18532 0.715779 0.136542 -3 -2 -3 
8301 6 0.324964 0.720129 0.12289 2 -6 3 
8441 6 0.374597 0.753736 0.10299 2 3 -4 
7051 5 0.355586 0.750049 0.143348 0 -2 -1 
5357 5 0.969268 0.720058 0.113726 0 1 4 
6280 6 0.303082 0.742371 0.126766 -1 -2 1 
6519 6 0.871067 0.763958 0.144737 0 3 7 
8604 5 0.405863 0.784503 0.157227 -3 5 -3 
7082 6 0.533835 0.794956 0.149656 -2 3 -1 
7106 6 0.415146 0.827726 0.126939 2 2 0 
7368 6 0.565037 0.835179 0.148438 -2 2 0 
5580 5 0.530419 0.810314 0.108338 -6 7 0 
6169 5 0.723554 0.822409 0.119723 1 2 2 
5525 6 0.785894 0.840582 0.111316 -3 1 1 
8579 6 0.0321874 0.902625 0.141264 -3 0 1 
8482 5 0.254956 0.912489 0.119821 -2 5 2 
8423 6 0.794761 0.940848 0.143451 -4 1 0 
7323 6 0.246255 0.97234 0.141269 4 -3 -5 
7348 6 0.292173 0.949002 0.133249 1 -5 3 
7672 6 0.155318 0.942242 0.115286 2 2 5 
8823 5 0.604703 0.928819 0.126489 2 -5 -3 
6287 6 0.570428 0.963458 0.115865 3 -1 -1 
7734 5 0.0176331 0.971847 0.118357 0 0 -2 
8858 5 0.0800386 0.987657 0.131958 1 -6 6 
5395 5 0.80434 0.975492 0.101291 4 4 -4 
5542 5 0.908323 0.996165 0.0843576 3 -1 1 
8796 5 0.934268 0.998237 0.115177 -3 -1 -2 
5771 6 0.233379 0.0483657 0.131234 0 0 -1 
6584 5 0.662702 0.0260884 0.177338 -5 -2 -1 
8813 6 0.6512 0.0573624 0.176594 -3 -2 0 
8199 6 0.681219 0.0673229 0.169241 -2 5 1 
6185 5 0.978548 0.980967 0.143471 4 -3 3 
8659 5 0.214593 0.0382397 0.148153 -1 4 3 
8927 5 0.443429 0.0635916 0.128424 -4 0 1 
8572 6 0.585197 0.0535929 0.14317 -5 0 1 
8608 5 0.989456 0.0620216 0.175259 1 -3 0 
7824 6 0.0129704 0.0646778 0.180554 6 -2 -2 
6613 6 0.605253 0.0814682 0.145722 -2 2 -2 
6862 6 0.0490747 0.0581 0.134362 1 -1 1 
6025 5 0.690868 0.130746 0.158201 2 0 0 
8058 5 0.841889 0.0855294 0.136863 -1 0 0 
7193 6 0.127448 0.10753 0.114036 1 -3 1 
6199 5 0.10189 0.181311 0.1719 0 -3 2 
8061 6 0.362973 0.177321 0.11927 -3 -2 2 
6556 5 0.234158 0.186986 0.126686 4 0 0 
7248 6 0.360253 0.202965 0.151071 1 1 3 
7715 5 0.00836277 0.166321 0.11119 6 -2 -2 
8088 6 0.143237 0.223858 0.116503 5 -2 -3 
8992 6 0.234218 0.230531 0.139764 -1 0 -3 
8788 5 0.0861663 0.289707 0.14582 3 0 -3 
5434 5 0.104339 0.29049 0.145912 -2 1 5 
8480 6 0.208882 0.328821 0.173838 -4 3 8 
8187 6 0.222791 0.316976 0.164297 -3 -5 -7 
5479 5 0.490987 0.332821 0.1687 -1 0 1 
5248 6 0.623694 0.323532 0.148197 -1 -4 -4 
6612 6 0.131293 0.338026 0.142711 -2 -2 2 
6976 6 0.642855 0.339175 0.126855 -1 3 1 
5100 6 0.784732 0.331906 0.141118 1 3 -2 
8591 6 0.242918 0.388673 0.100777 1 3 0 
7388 5 0.74845 0.374878 0.158776 -2 -1 -3 
6680 5 0.89005 0.405067 0.140485 0 1 1 
6900 6 0.914744 0.409665 0.148531 -4 1 0 
8981 5 0.0399787 0.424599 0.154829 3 5 -3 
6278 6 0.0358199 0.395609 0.11837 1 -3 -4 
7247 6 0.0749648 0.443192 0.157559 7 0 -1 
7816 5 0.160776 0.424715 0.169532 1 3 1 
8625 5 0.300115 0.417844 0.159995 -2 3 -5 
7175 5 0.855504 0.471279 0.149591 3 0 -8 
8390 6 0.859571 0.434643 0.171935 -1 -1 -1 
7701 5 0.998386 0.462323 0.143599 -3 1 1 
6653 5 0.0603494 0.467302 0.161816 0 -4 3 
7499 5 0.631273 0.474236 0.125745 0 0 -6 
7539 5 0.643433 0.499407 0.103039 4 3 -4 
5115 6 0.731983 0.493907 0.135347 4 4 -2 
6448 6 0.166614 0.563324 0.144911 -3 2 2 
6074 5 0.221897 0.565377 0.171566 -1 2 1 
6927 6 0.298745 0.556758 0.186728 3 -1 0 
8426 5 0.582906 0.567606 0.16092 0 -4 4 
8096 6 0.647886 0.589915 0.124715 2 1 0 
6874 5 0.231868 0.569837 0.14853 -4 -5 1 
7159 6 0.406605 0.597277 0.115952 3 4 3 
7667 6 0.551959 0.595368 0.123441 0 0 5 
5980 6 0.087135 0.590746 0.149343 3 0 1 
5044 5 0.425876 0.585599 0.150111 2 4 -1 
6761 5 0.513993 0.619101 0.133457 1 3 4 
8717 5 0.577711 0.649914 0.171485 0 -5 -4 
7294 6 0.193784 0.661027 0.152445 2 2 1 
5648 6 0.393109 0.613251 0.113625 -3 -4 3 
6172 6 0.478614 0.60951 0.19535 0 2 6 
6272 5 0.019549 0.65714 0.148146 1 2 1 
5126 6 0.275565 0.662336 0.144299 0 -1 -2 
8150 5 0.300113 0.693334 0.115369 -1 5 -4 
5948 5 0.0878403 0.719404 0.160761 -2 2 1 
6356 6 0.872684 0.671289 0.127666 -4 0 -1 
5377 6 0.997527 0.697998 0.172578 2 -1 -2 
5751 6 0.0335026 0.720573 0.137904 2 3 1 
7075 6 0.715117 0.749094 0.153967 0 1 0 
5545 6 0.412556 0.732285 0.164542 1 -3 2 
5602 6 0.240315 0.77567 0.139594 -3 0 -2 
8696 6 0.74098 0.779303 0.146093 -2 1 -1 
6697 5 0.907097 0.738161 0.132019 6 5 -4 
5326 6 0.961852 0.790299 0.169975 1 0 -3 
8737 6 0.0493203 0.832447 0.190311 1 -3 1 
8522 6 0.482913 0.860773 0.149076 0 2 5 
5988 5 0.271995 0.915858 0.160799 -6 0 -2 
7091 6 0.38676 0.888332 0.143001 3 -1 3 
5609 5 0.93064 0.899754 0.108679 2 3 1 
8947 5 0.16702 0.923668 0.130165 -1 1 2 
8499 6 0.384885 0.91736 0.163388 1 -5 -5 
6924 6 0.835854 0.908424 0.141925 -1 0 1 
5779 6 0.912492 0.915491 0.182473 1 -3 0 
8163 5 0.367424 0.897954 0.167602 -5 -2 1 
6512 5 0.490886 0.923329 0.182691 3 0 1 
5400 6 0.731086 0.926461 0.155195 2 -2 0 
5505 5 0.78008 0.910552 0.125306 1 2 3 
7005 6 0.892521 0.921137 0.134065 -1 -4 0 
7350 5 0.099716 0.930301 0.143199 3 2 -5 
6096 5 0.499042 0.975343 0.125353 3 -1 0 
8983 6 0.366716 0.978808 0.137673 6 0 1 
6784 6 0.0971132 0.974165 0.153782 1 2 1 
5963 6 0.372964 0.997785 0.14004 -5 0 -3 
6250 5 0.625608 0.0546544 0.186012 -5 0 -3 
5237 6 0.273122 0.0664404 0.172932 -2 0 7 
6055 6 0.0371588 0.0958047 0.163707 -6 4 2 
7829 5 0.568371 0.0929062 0.162751 -5 -6 2 
6523 5 0.247176 0.11393 0.171789 1 1 2 
6400 6 0.142949 0.0925404 0.182138 -6 8 -3 
7522 5 0.887056 0.129228 0.210319 -1 2 3 
5356 6 0.215026 0.113675 0.151514 1 4 4 
5242 5 0.913733 0.121646 0.1702 -1 -2 1 
5781 6 0.408515 0.133384 0.214686 0 4 -4 
5857 5 0.2116 0.172847 0.179087 -1 -1 -2 
5568 5 0.842813 0.186935 0.153213 2 0 -5 
5831 6 0.864767 0.165683 0.13171 -2 1 -2 
6498 6 0.156428 0.228612 0.173029 1 -4 3 
6271 5 0.441663 0.196381 0.18706 -2 -5 0 
6059 6 0.432957 0.199696 0.191899 -2 5 -1 
6586 5 0.661423 0.252067 0.136058 2 2 -2 
8461 5 0.689192 0.248636 0.143961 2 1 -2 
6843 6 0.857959 0.227389 0.159229 0 -3 -2 
6243 5 0.306288 0.242998 0.144252 -1 -2 -1 
5067 6 0.763894 0.266219 0.155507 4 1 2 
7315 6 0.884161 0.225845 0.149653 -1 1 -1 
7887 6 0.889611 0.227708 0.182519 3 3 -5 
6156 6 0.888959 0.23738 0.166221 0 1 1 
5270 5 0.357912 0.258106 0.182195 2 -4 2 
5840 6 0.535671 0.301007 0.182534 -2 -2 1 
7083 5 0.589896 0.30352 0.201229 -3 2 1 
8275 6 0.107393 0.338644 0.183118 6 3 -3 
7434 6 0.525891 0.332359 0.156279 -3 -2 -3 
6638 6 0.824366 0.342475 0.170596 -2 -1 5 
7862 6 0.58616 0.331918 0.182032 2 2 2 
7524 6 0.74139 0.344023 0.176384 -1 -4 -3 
6598 5 0.290622 0.381003 0.154124 -1 -3 3 
7121 5 0.573838 0.376297 0.189521 2 -3 4 
5108 6 0.792284 0.389371 0.158722 3 3 3 
7770 6 0.205221 0.364834 0.150303 0 3 4 
5106 6 0.335381 0.424948 0.182137 3 -1 -1 
6344 5 0.553361 0.399767 0.150021 -2 4 3 
5722 6 0.166934 0.463557 0.166554 6 1 1 
7362 6 0.519092 0.412143 0.191604 -3 0 5 
8388 6 0.597591 0.446305 0.171023 0 -3 0 
6496 5 0.551249 0.426203 0.1751 1 1 7 
8300 6 0.386152 0.50379 0.172151 -3 2 1 
7371 6 0.668119 0.485643 0.167774 1 10 -1 
5031 5 0.896471 0.498392 0.164864 2 -1 0 
7426 6 0.134441 0.498615 0.164296 -3 2 -5 
7263 5 0.136836 0.531122 0.16289 1 -3 -2 
8776 6 0.614572 0.542142 0.143669 6 2 2 
7666 6 0.494386 0.551529 0.137894 1 3 3 
5898 5 0.578829 0.571414 0.13831 -1 0 -3 
6709 6 0.335889 0.593704 0.176327 -1 -1 2 
6228 6 0.12619 0.559567 0.180991 -1 0 -2 
5174 6 0.426726 0.575241 0.171481 1 2 2 
6626 6 0.0939024 0.598432 0.180401 -2 -3 -2 
6804 6 0.233 0.642723 0.185688 1 2 -1 
8152 6 0.436286 0.681406 0.187791 4 -1 0 
7925 6 0.998643 0.690467 0.177551 0 5 -5 
8206 5 0.469915 0.685675 0.169318 2 -2 -1 
7773 6 0.742639 0.680967 0.170815 1 -2 0 
8849 6 0.792304 0.671124 0.183686 1 -3 2 
8977 5 0.0149564 0.689272 0.172055 3 -1 2 
7579 5 0.554752 0.700297 0.200176 -3 0 1 
5284 5 0.0687031 0.746406 0.165503 1 2 0 
7352 5 0.420603 0.767271 0.140644 0 -2 1 
8585 5 0.853664 0.738268 0.197609 1 -3 -2 
8767 6 0.375692 0.818478 0.169784 7 -2 3 
8574 6 0.214078 0.830326 0.145745 5 3 1 
7220 5 0.443828 0.868518 0.148688 4 -5 -1 
5343 5 0.527488 0.857098 0.148927 -1 0 -3 
7006 5 0.0114788 0.848249 0.195682 -5 1 3 
5850 6 0.473105 0.930066 0.191761 -3 -1 3 
7948 5 0.0762355 0.993545 0.144933 1 -3 2 
5823 6 0.83111 0.958558 0.197384 -1 2 2 
5901 6 0.521488 0.00627071 0.167479 2 -1 3 
7847 6 0.734929 0.999101 0.161174 0 0 -1 
5251 6 0.101358 0.994795 0.191084 -2 -2 -3 
7751 5 0.215837 0.00639472 0.168863 1 1 2 
8151 5 0.475356 0.0422996 0.168018 -2 0 3 
5899 6 0.63119 0.0292357 0.219804 -1 2 -1 
8678 6 0.264803 0.025991 0.209732 -2 -2 -1 
8185 5 0.398012 0.0725976 0.197618 -6 -4 1 
8003 6 0.64578 0.0503856 0.157501 1 -5 0 
8639 6 0.76296 0.043115 0.197433 -3 -1 -2 