ITEM: TIMESTEP
20000000
ITEM: NUMBER OF ATOMS
9000
ITEM: BOX BOUNDS pp pp pp
-75 75
-75 75
-75 75
ITEM: ATOMS id type xs ys zs ix iy iz 
6331 6 0.231286 0.0502364 0.0209794 0 5 -1 
5344 6 0.717295 0.0240946 0.027777 0 3 -1 
6421 6 0.716171 0.0161567 0.0236154 -5 -2 5 
7498 5 0.134516 0.0346831 0.0291883 2 -8 -3 
7122 6 0.97423 0.0742863 0.972244 -5 0 0 
6352 6 0.309326 0.121285 0.00685459 5 3 2 
7333 6 0.660843 0.144089 0.982344 4 3 4 
8172 5 0.845339 0.10616 0.0129642 2 5 -1 
6792 5 0.916803 0.172572 0.989308 1 3 -1 
6367 6 0.610015 0.195133 0.0242134 2 3 3 
5254 5 0.721992 0.196912 0.025188 2 1 -5 
5616 5 0.209637 0.177046 0.985718 -3 1 -4 
5797 5 0.0527499 0.199756 0.994826 2 2 -2 
6987 6 0.769871 0.192426 0.989828 -6 4 0 
6383 6 0.759633 0.276852 0.984917 -3 -1 -1 
6722 6 0.990483 0.237404 0.0109005 -3 0 1 
6935 5 0.137881 0.297914 0.000156397 3 0 -1 
6164 5 0.0979267 0.253474 0.997494 0 -4 -2 
6917 6 0.275836 0.257882 0.9719 6 1 1 
7934 6 0.233365 0.254989 0.0086432 6 5 0 
7457 5 0.755976 0.230045 0.976857 -1 0 -4 
7041 6 0.438743 0.285975 0.996874 1 -4 -6 
6120 6 0.669342 0.30699 0.00414728 2 0 2 
8409 5 0.848288 0.258323 0.00384727 -3 2 0 
5634 6 0.935514 0.276601 0.980295 1 0 -3 
6550 6 0.119138 0.336626 0.0199396 0 -4 2 
6020 6 0.135834 0.346982 0.997198 -3 2 -3 
5228 5 0.801263 0.365434 0.0362214 2 2 0 
5435 5 0.468231 0.381145 0.990687 1 0 0 
5895 5 0.328667 0.449604 0.0270593 1 2 0 
8946 5 0.0680287 0.457236 0.991089 5 0 2 
5033 5 0.391874 0.419515 0.977291 2 4 -4 
6605 6 0.648775 0.47024 0.0554181 2 0 0 
8733 6 0.84167 0.412617 0.0166052 1 -4 2 
5762 6 0.17418 0.54411 0.0407465 3 2 4 
6882 6 0.427412 0.492999 0.999681 3 0 1 
8477 6 0.90234 0.518758 0.0133775 4 1 -1 
6060 6 0.53974 0.558947 0.00830668 2 2 0 
8391 6 0.466557 0.531954 0.98228 1 -3 -4 
5048 5 0.497349 0.546711 0.0417854 -2 1 -3 
8581 5 0.60681 0.534216 0.984747 4 3 2 
8982 6 0.128031 0.581201 0.00413927 2 2 5 
6731 5 0.435711 0.556275 0.0141684 3 -2 0 
6929 5 0.624114 0.602256 0.981055 -1 0 1 
5416 5 0.15513 0.635462 0.0422069 -2 1 -5 
5910 5 0.453106 0.620946 0.98387 -2 -6 -3 
6567 5 0.911405 0.690525 0.975968 -1 0 -2 
5730 5 0.0550756 0.673542 0.96394 -4 1 4 
6751 6 0.23869 0.678278 0.989398 1 0 -5 
6595 6 0.0943129 0.711285 0.0394203 1 2 4 
8857 6 0.303263 0.704222 0.00864856 -2 2 2 
8060 6 0.802607 0.676601 0.00584614 0 0 2 
8049 6 0.220209 0.705381 0.996122 2 2 -3 
7202 5 0.848563 0.740311 0.00821534 1 0 0 
6176 6 0.28478 0.723412 0.0198536 0 -3 -1 
8250 5 0.835139 0.710601 0.0222552 1 -4 2 
6306 5 0.879146 0.736799 0.0181652 0 2 1 
6540 5 0.982521 0.787956 0.00943846 1 0 0 
5397 6 0.542982 0.768289 0.0093245 2 2 -2 
7415 5 0.936759 0.80549 0.0462471 2 -2 -1 
7406 6 0.544812 0.819532 0.979617 -1 0 -2 
5095 5 0.760225 0.838018 0.0227812 0 -1 1 
7861 5 0.774265 0.823957 0.0349765 -1 -3 0 
6259 5 0.794122 0.827298 0.986443 0 -5 3 
5144 6 0.111181 0.807259 0.988755 0 -6 -1 
7059 6 0.855958 0.80014 0.97629 3 1 -1 
8542 5 0.998727 0.849428 0.0448978 -3 2 -3 
7973 6 0.290323 0.84258 0.96034 2 0 -1 
8935 5 0.990747 0.910969 0.0239662 1 0 -3 
6356 5 0.353257 0.90005 0.0127627 0 -1 -4 
6363 6 0.8675 0.877907 0.027497 1 -1 -1 
7027 5 0.0674268 0.908993 0.00707947 2 5 -3 
6809 6 0.240388 0.917579 0.0166118 -1 5 2 
6737 6 0.408682 0.949606 0.0298552 -3 4 -1 
7279 6 0.383554 0.894983 0.973586 0 2 3 
5482 5 0.24601 0.943968 0.99689 5 -1 1 
8812 5 0.47298 0.919797 0.0415279 -2 0 -1 
7164 5 0.686743 0.94067 0.990334 -3 0 0 
8087 6 0.277512 0.945274 0.000180151 1 -1 -1 
7635 5 0.443499 0.919845 0.993804 0 4 2 
7726 5 0.929961 0.0136816 0.0454723 -1 -5 1 
6473 6 0.92049 0.00636762 0.0341273 2 2 0 
5743 6 0.375974 0.068439 0.0154722 3 3 0 
6086 5 0.525108 0.0572098 0.0653751 0 0 1 
8574 5 0.627359 0.0489414 0.0504741 0 6 4 
6446 5 0.646419 0.0367753 0.0375836 -2 -4 -1 
5527 6 0.754852 0.0649675 0.00509542 1 -2 0 
8691 6 0.523684 0.109864 0.00695285 -6 -3 -4 
6696 5 0.819808 0.0596877 0.033369 -3 -1 3 
7618 6 0.178536 0.0885084 0.0451001 -1 -1 -3 
7245 5 0.441885 0.137725 0.111095 6 -2 2 
5089 6 0.419635 0.134842 0.019603 6 0 2 
8788 6 0.498859 0.113964 0.0496919 0 -3 -3 
8809 5 0.57662 0.102004 0.0510095 -1 0 1 
5132 5 0.144327 0.105605 0.0672243 0 4 -7 
6295 5 0.121526 0.158203 0.0206808 0 -2 0 
6068 6 0.343657 0.152906 0.0420481 0 0 -3 
8504 6 0.891053 0.152778 0.0385111 -2 -1 2 
6961 6 0.824895 0.192341 0.0144814 -1 4 0 
8439 6 0.858625 0.156194 0.0360288 3 0 2 
8626 5 0.657903 0.219397 0.0772709 -3 -1 1 
7945 6 0.682589 0.185771 0.990751 1 1 0 
7753 5 0.583756 0.260395 0.0277616 3 3 2 
8658 6 0.918408 0.218509 0.0733183 3 3 0 
8904 6 0.949532 0.261874 0.0420544 5 3 3 
5375 6 0.179023 0.282876 0.991921 3 5 -1 
6412 6 0.197873 0.234328 0.00783239 -5 2 -2 
5291 6 0.955462 0.299272 0.990252 -2 -4 -1 
6005 5 0.710901 0.300948 0.0335461 -4 -6 4 
5002 5 0.71238 0.311411 0.00276361 -6 2 -4 
6831 6 0.792101 0.314278 0.00701126 3 -1 0 
8633 6 0.0517697 0.31142 0.0459294 3 1 -1 
6601 5 0.799449 0.34266 0.0282234 0 0 -4 
8960 6 0.93739 0.304748 0.00062179 -4 1 -1 
7822 6 0.148974 0.330446 0.0267039 1 -2 2 
6562 6 0.146229 0.42488 0.0261732 5 -2 -4 
6979 6 0.859796 0.436791 0.0387168 6 2 4 
6133 5 0.434105 0.441045 0.0757225 -2 1 1 
5558 6 0.121991 0.479692 0.0226391 -2 -2 0 
6134 6 0.449118 0.463265 0.991839 4 -4 -3 
6426 6 0.676621 0.474491 0.0477394 3 1 7 
6744 6 0.993639 0.455318 0.01457 2 -5 0 
7873 5 0.974479 0.460531 0.0576133 -4 2 -2 
8830 6 0.106534 0.473461 0.0398945 3 -5 6 
8331 5 0.38534 0.499167 0.0167581 0 -2 -4 
7317 6 0.570919 0.50189 0.00898675 -2 -4 6 
5700 5 0.982142 0.517868 0.0283373 -1 7 3 
5383 6 0.052321 0.501349 0.0296293 1 2 -2 
8638 5 0.413003 0.496431 0.0422335 4 4 1 
7419 5 0.629869 0.526679 0.0501496 1 3 -1 
8156 6 0.764962 0.510398 0.00365287 1 3 -1 
8639 5 0.931255 0.541492 0.985664 -3 3 -1 
5822 6 0.15292 0.629529 0.0233629 2 -5 0 
5662 5 0.164871 0.579968 0.0209144 1 1 3 
8099 6 0.345939 0.56298 0.989784 1 -3 -1 
6710 5 0.783083 0.629272 0.0311321 0 0 -1 
7860 6 0.175847 0.639367 0.0636271 0 0 2 
8132 6 0.433673 0.619737 0.0206669 2 -1 0 
6440 6 0.698808 0.616525 0.0652788 -3 1 1 
6123 6 0.899529 0.597827 0.011813 3 -2 5 
6403 5 0.455608 0.665478 0.0218845 4 -3 -5 
5251 6 0.539348 0.663131 0.010874 3 1 3 
5060 6 0.874387 0.577489 0.0534281 -1 -2 2 
7600 5 0.0272882 0.742934 0.0643469 1 -3 0 
5523 6 0.227803 0.693143 0.041483 -4 -1 -1 
5281 5 0.805018 0.716604 0.0719591 0 -2 0 
5394 6 0.975073 0.751523 0.071172 -1 1 1 
8447 6 0.795367 0.763417 0.00627804 -1 0 -3 
8734 6 0.825733 0.772189 0.00762644 4 -6 -1 
6177 6 0.441276 0.76327 0.0406247 -4 3 1 
6541 6 0.450584 0.799246 0.0294517 -4 1 2 
7975 5 0.0183222 0.808494 0.0308954 4 4 0 
6673 6 0.0824054 0.855631 0.0268017 -4 -3 -1 
8912 6 0.606218 0.825954 0.061929 0 0 0 
7893 6 0.0590421 0.862314 0.0156747 5 1 4 
5932 6 0.435773 0.829108 0.00566139 -2 1 -3 
6585 6 0.106407 0.841348 0.0164564 2 6 -1 
5725 6 0.373481 0.852519 0.0389053 -4 -3 4 
8208 5 0.460698 0.884253 0.0101485 1 -3 -5 
7872 5 0.621197 0.856524 0.0433957 0 1 -5 
6797 6 0.0749551 0.899352 0.0766698 2 -5 4 
6212 5 0.77239 0.925369 0.0222645 -5 -2 -2 
7868 6 0.128126 0.957661 0.038819 3 6 -3 
6644 6 0.285623 0.917452 0.0278347 5 4 -1 
6807 6 0.313098 0.961743 0.0298465 1 0 0 
6055 6 0.271558 0.94386 0.0369445 1 -3 5 
5555 6 0.275057 0.981713 0.0476304 1 1 1 
5249 6 0.270358 0.977559 0.035757 4 -3 1 
6370 5 0.414516 0.974926 0.981389 -3 -1 -1 
5846 5 0.676829 0.955799 0.0803979 2 4 -4 
8449 5 0.258727 0.974381 0.0271549 2 -1 3 
7287 6 0.929158 0.998517 0.0370576 2 -5 -1 
7650 5 0.295045 0.0258302 0.0578785 3 2 2 
6333 6 0.806302 0.0272364 0.0273989 -3 -1 -4 
7614 6 0.262174 0.0487148 0.0433815 -5 0 -1 
8657 6 0.781489 0.023451 0.0407837 -6 3 -3 
7847 5 0.84237 0.0167484 0.105579 3 5 -1 
6153 6 0.0336896 0.0509164 0.0303015 1 -1 2 
6730 5 0.505772 0.0239114 0.0417782 -2 -4 5 
7641 5 0.525295 0.0843768 0.0462045 -1 -1 1 
5839 6 0.074014 0.0584845 0.0595979 1 0 5 
5152 5 0.118391 0.106868 0.0509013 -2 3 -1 
8006 6 0.607009 0.0570774 0.0313087 2 -1 -4 
5085 6 0.920143 0.0913214 0.0322665 1 4 1 
6318 5 0.214739 0.105582 0.0934027 3 1 2 
7846 5 0.382757 0.121054 0.0618368 -1 2 -3 
5718 6 0.491532 0.114571 0.0704847 -2 2 -2 
5808 5 0.261066 0.137079 0.0286379 2 2 -3 
7113 5 0.304212 0.159824 0.0575607 -4 -6 2 
8523 6 0.966373 0.173272 0.0186279 -1 -2 -1 
7923 6 0.487997 0.16025 0.0606317 -4 3 -2 
5139 6 0.808174 0.213281 0.0639821 3 -2 0 
8471 5 0.179271 0.222579 0.0843217 -1 -2 -2 
8174 5 0.583478 0.240664 0.0820225 0 -4 -1 
6065 6 0.0615051 0.280087 0.0648291 -1 2 2 
5077 5 0.0393024 0.277342 0.0558033 1 -8 -4 
7214 6 0.203771 0.226077 0.0868186 4 -2 -3 
7462 6 0.395205 0.256285 0.0668354 1 -1 3 
6834 6 0.0336402 0.305229 0.0487396 1 -1 3 
7599 6 0.495873 0.29109 0.0703711 2 -3 3 
7143 5 0.273075 0.319271 0.0602511 -3 -2 3 
8313 5 0.927025 0.296531 0.053558 -1 0 4 
5395 6 0.239994 0.343109 0.0887662 0 -3 1 
7034 5 0.0578643 0.370873 0.0147651 3 -4 3 
8932 6 0.0610983 0.38613 0.060391 -1 7 5 
7366 6 0.474483 0.391823 0.0634807 5 -4 1 
8945 5 0.646696 0.40689 0.0379362 -3 1 -2 
8729 6 0.91427 0.360749 0.016513 -5 1 0 
7952 6 0.310651 0.4119 0.0500146 0 -4 4 
7262 5 0.42824 0.392495 0.0389556 2 4 -1 
5729 6 0.951221 0.428329 0.0934436 2 -3 2 
8278 5 0.0936577 0.44117 0.0370354 3 -5 0 
8229 5 0.17642 0.483773 0.0819463 2 -2 -1 
8074 6 0.404791 0.476873 0.0728759 -2 1 0 
7653 5 0.641839 0.513381 0.0685858 -3 0 -3 
6652 6 0.197993 0.509802 0.0816327 -6 0 2 
6300 5 0.361597 0.475243 0.0677228 -3 3 0 
5317 5 0.550081 0.530835 0.0843554 3 1 -2 
5590 5 0.875652 0.505697 0.035694 -1 6 4 
8243 6 0.800917 0.545383 0.0977082 -1 -1 2 
8818 6 0.836853 0.527921 0.0437973 0 -2 2 
7630 5 0.72388 0.557566 0.0470598 -2 -2 -1 
5432 6 0.694296 0.551204 0.0604134 2 0 1 
8646 6 0.816503 0.573715 0.0275276 2 -7 2 
8705 5 0.244221 0.59077 0.0506847 -1 -2 8 
5106 5 0.296763 0.615421 0.0610654 5 1 5 
6221 6 0.822939 0.623782 0.0568711 -1 -3 -1 
5201 6 0.932505 0.6239 0.0431544 -5 -2 -1 
7722 6 0.331218 0.674824 0.0885611 -2 0 -4 
6472 6 0.568094 0.636415 0.0550834 5 1 0 
8746 5 0.874713 0.618175 0.0629331 -2 0 -1 
8808 6 0.338028 0.652031 0.0746936 -1 -5 7 
5321 5 0.763755 0.675744 0.0746975 1 -1 4 
7844 6 0.00140458 0.6875 0.0662243 -5 -4 -1 
6753 6 0.0159706 0.677718 0.096823 -1 0 -1 
5924 6 0.354503 0.645918 0.0513542 -3 3 -4 
8621 5 0.754512 0.682373 0.0489876 -1 -1 5 
8382 6 0.839164 0.699783 0.0215046 0 3 5 
5117 6 0.940753 0.709099 0.0259169 -5 -4 3 
5999 6 0.425996 0.663532 0.0688465 -1 -2 -4 
5653 5 0.494424 0.697411 0.0535705 0 0 2 
8096 5 0.938188 0.68992 0.0342299 2 -1 -3 
7587 6 0.868569 0.713658 0.0779657 1 1 2 
8197 6 0.276771 0.781308 0.0535572 4 4 2 
5787 5 0.335457 0.769536 0.0507214 -2 1 10 
5266 6 0.99434 0.783347 0.0854738 0 -6 1 
8840 6 0.273077 0.761009 0.0356676 2 -1 -2 
6378 6 0.269682 0.797125 0.0228963 0 -5 1 
8311 6 0.529599 0.782426 0.0470805 -1 4 0 
7183 5 0.598236 0.764036 0.0592587 4 0 0 
6016 5 0.280568 0.83292 0.0354498 1 -4 -2 
6260 5 0.125632 0.864593 0.0565847 0 4 -5 
7712 5 0.243258 0.864889 0.0446884 -2 1 -5 
8620 5 0.644311 0.852134 0.00486669 3 0 0 
8908 6 0.836159 0.783678 0.0692041 0 0 1 
6127 5 0.0453073 0.837258 0.0798606 2 0 0 
8540 5 0.111676 0.905526 0.0355351 -1 -3 -3 
8287 6 0.388654 0.89955 0.0766038 2 2 3 
8223 5 0.526759 0.90332 0.064969 -2 2 1 
6655 5 0.944725 0.895293 0.0708933 0 0 -1 
6937 5 0.385477 0.906163 0.0429588 -1 1 2 
7352 5 0.483978 0.935059 0.0433923 4 -4 -1 
7315 6 0.565728 0.913426 0.0482258 0 -4 1 
8276 5 0.962648 0.98289 0.0592538 1 -7 3 
8517 6 0.460213 0.991447 0.0451904 3 7 -1 
6671 6 0.818971 0.0192127 0.00337327 0 2 1 
6705 6 0.12709 0.0131809 0.0642052 3 -3 1 
8135 5 0.423097 0.946804 0.0749551 -2 -1 4 
7070 6 0.0865816 0.0256065 0.0437572 -2 4 3 
8080 5 0.154336 0.0147707 0.129353 0 0 -4 
7909 5 0.494283 0.0212487 0.0826075 1 3 0 
7327 5 0.10222 0.0622863 0.0799498 -2 6 1 
7473 6 0.87902 0.0439282 0.0866104 0 4 1 
5420 6 0.675026 0.0356567 0.104079 3 0 2 
5941 5 0.555413 0.105119 0.0843552 0 5 4 
8798 5 0.841087 0.104212 0.050322 2 1 0 
5606 5 0.977338 0.160844 0.11022 4 0 1 
5333 6 0.121378 0.162105 0.10255 0 5 4 
8682 5 0.397631 0.130542 0.0901484 0 -2 -3 
7414 5 0.689697 0.112764 0.0684577 0 3 5 
6483 6 0.989961 0.153385 0.113105 2 2 1 
5400 5 0.0458395 0.186258 0.0747272 1 2 -2 
6983 5 0.392899 0.154858 0.088932 0 2 0 
7833 5 0.642814 0.182314 0.108301 2 1 4 
7982 5 0.207963 0.182415 0.0730306 2 6 -3 
8500 5 0.464171 0.147363 0.0854986 -1 0 3 
8524 6 0.695085 0.173037 0.07619 2 -3 3 
6194 6 0.976864 0.23223 0.0991407 -1 3 -1 
6891 6 0.417956 0.202218 0.0717761 -5 1 -2 
6584 6 0.460247 0.252994 0.0662847 3 0 2 
8433 6 0.549031 0.230886 0.0953413 4 2 -1 
8001 6 0.702524 0.202718 0.114075 -1 0 6 
5006 5 0.887508 0.197911 0.0929047 3 3 0 
8800 6 0.482356 0.239702 0.0688743 1 3 4 
7750 5 0.598431 0.250836 0.0567631 5 1 0 
5584 6 0.056782 0.276575 0.0692775 -2 2 2 
6324 6 0.421197 0.291949 0.0421904 -3 -3 5 
8572 5 0.859293 0.306865 0.0644815 4 0 -1 
8454 6 0.970705 0.286717 0.0647424 0 3 -2 
6169 5 0.0650278 0.312263 0.0928897 1 -1 1 
7341 6 0.297114 0.355273 0.0516545 -5 1 4 
7807 6 0.66012 0.353604 0.101463 -4 0 4 
8116 6 0.561923 0.367899 0.077836 4 0 2 
5628 6 0.618133 0.371948 0.0587931 1 -8 -5 
5464 6 0.127245 0.364556 0.0697689 -3 1 0 
6196 6 0.188229 0.359226 0.0514695 -1 1 5 
7569 5 0.237429 0.421556 0.0754784 5 -4 -1 
7849 5 0.589223 0.389885 0.0781866 -5 3 3 
7429 6 0.99019 0.431162 0.0423407 -2 0 -2 
7527 5 0.143471 0.424616 0.0765615 -1 -1 -3 
6757 5 0.477984 0.401721 0.0205075 1 1 1 
5345 6 0.485989 0.452362 0.0365363 0 -3 -3 
5414 6 0.932923 0.403344 0.12785 3 -1 0 
6685 6 0.9624 0.460624 0.0628783 -3 1 -3 
8274 6 0.290903 0.45953 0.0700725 1 -4 1 
8227 6 0.423494 0.445532 0.119753 -1 -1 -9 
8802 6 0.73441 0.522137 0.0750131 1 2 -1 
5025 5 0.706118 0.514123 0.0886603 -2 2 5 
6460 6 0.782579 0.437844 0.0902047 1 2 -1 
5944 5 0.94128 0.512506 0.0989683 -1 4 1 
8145 6 0.453148 0.524464 0.0755985 3 -2 3 
7813 5 0.0307468 0.523232 0.0656767 -1 2 0 
8203 5 0.835144 0.557025 0.119992 -1 -3 4 
8089 5 0.958196 0.579884 0.0829205 -1 -5 2 
5655 6 0.168825 0.57491 0.129969 -2 6 2 
6239 6 0.189242 0.592463 0.0728912 -1 -1 0 
7382 5 0.330177 0.591267 0.0744032 0 2 3 
7209 6 0.948298 0.572724 0.0977641 -2 -2 -1 
6821 5 0.666848 0.599075 0.0706395 -8 -1 0 
6806 5 0.704277 0.612474 0.0635479 0 3 -3 
7931 5 0.799756 0.556558 0.0829796 -1 4 -2 
7029 5 0.134986 0.615394 0.0576862 -3 -1 -4 
8588 6 0.441884 0.658165 0.08844 1 -3 -2 
5996 5 0.927228 0.628888 0.105292 -6 1 1 
5339 5 0.385431 0.626905 0.0803591 -4 -5 0 
6507 6 0.542944 0.640747 0.103712 1 -3 4 
5771 5 0.929186 0.623521 0.114133 -4 2 -4 
6032 6 0.678523 0.688237 0.0362771 -1 0 -1 
5380 5 0.100252 0.698066 0.0759574 -4 -2 1 
8120 6 0.69465 0.718816 0.0770749 -3 -6 -1 
5023 5 0.892564 0.666206 0.0900437 1 -2 1 
8679 6 0.363091 0.757463 0.0680662 5 -4 5 
6994 5 0.953461 0.733526 0.0674514 -3 -1 1 
7567 5 0.56831 0.759744 0.0983716 0 -1 5 
8434 6 0.607038 0.743405 0.0921171 1 1 0 
6251 6 0.837105 0.771608 0.0732822 2 -2 -5 
5010 6 0.189615 0.795491 0.0773084 3 -1 1 
5057 5 0.329943 0.770689 0.0587989 -3 -2 2 
7775 5 0.894799 0.788069 0.0723036 -2 -6 0 
5825 5 0.00986842 0.776464 0.0634612 0 -4 0 
8570 6 0.676893 0.792606 0.0770653 0 0 5 
8903 5 0.811203 0.795042 0.0923942 0 2 1 
8392 6 0.93283 0.782023 0.0781414 3 -1 1 
8248 5 0.0557453 0.808729 0.0541205 2 0 -4 
5526 6 0.823569 0.833716 0.0903053 -1 0 -1 
6437 5 0.503521 0.871959 0.0637772 -1 4 -1 
5386 6 0.654141 0.822685 0.084811 -3 -3 6 
7393 6 0.949695 0.834195 0.079274 -1 6 -3 
5487 5 0.00667883 0.856211 0.052695 1 -1 3 
6862 6 0.382462 0.902606 0.0682659 2 -1 4 
8502 6 0.804548 0.855804 0.0847783 -7 -4 -3 
5223 5 0.991063 0.862074 0.0783314 -1 1 0 
5497 6 0.11007 0.899492 0.0559167 0 -2 -5 
6327 6 0.408068 0.908563 0.0935362 -4 1 6 
8321 5 0.815913 0.923328 0.0951732 1 -2 0 
8553 5 0.93958 0.928352 0.112037 -4 -2 2 
5438 6 0.139865 0.941813 0.0573501 5 1 2 
6861 5 0.71166 0.991175 0.100255 -1 -3 1 
5893 6 0.955412 0.972068 0.142902 -5 -3 0 
5934 5 0.276317 0.990281 0.0611932 -2 3 1 
8157 5 0.424031 0.0883441 0.139934 -3 2 1 
7461 5 0.480407 0.0572335 0.116248 1 4 6 
6691 6 0.491117 0.0215387 0.091512 3 3 1 
5593 6 0.675501 0.0529875 0.117524 -2 -3 2 
8656 6 0.976849 0.0750546 0.128759 -6 7 -1 
7176 6 0.237004 0.0347948 0.132338 0 -1 5 
7805 6 0.775044 0.113347 0.128563 -2 0 1 
5905 6 0.508085 0.104753 0.093984 1 -1 2 
7316 6 0.402396 0.140168 0.0911608 -4 2 -5 
6273 5 0.363697 0.188973 0.0883511 1 -3 0 
6319 6 0.694704 0.180118 0.108777 0 -2 1 
7413 6 0.0685484 0.191222 0.0904664 -2 -1 -2 
6765 6 0.165761 0.171913 0.110448 5 -2 3 
6802 5 0.277189 0.233954 0.108764 -2 2 1 
7795 6 0.58817 0.207132 0.111775 4 0 1 
5064 5 0.324059 0.234777 0.101389 7 3 1 
5335 5 0.348792 0.216058 0.110848 1 7 -1 
8561 5 0.385368 0.270098 0.0667105 2 1 2 
6795 6 0.311305 0.242334 0.106871 2 3 5 
6346 6 0.67101 0.234342 0.0756481 1 -1 -1 
8617 5 0.906468 0.306953 0.0825448 -2 4 0 
6779 6 0.212436 0.317891 0.0778443 0 1 4 
7773 5 0.52436 0.328693 0.11704 -4 0 -2 
7835 6 0.811406 0.323362 0.102468 1 -4 -1 
8625 6 0.209046 0.332731 0.120971 1 4 2 
5926 5 0.446786 0.353677 0.0834109 -4 1 -1 
5246 5 0.625009 0.349978 0.135979 -2 -4 -3 
8061 5 0.669518 0.400738 0.112937 1 -3 2 
6604 5 0.266535 0.356334 0.134643 1 4 2 
6207 6 0.765914 0.409578 0.117775 -1 1 -2 
7638 5 0.657033 0.44387 0.120357 1 -3 0 
5388 5 0.747184 0.457719 0.107105 1 -1 -1 
6886 6 0.231809 0.415079 0.095408 0 -3 0 
7203 5 0.467741 0.45794 0.12444 2 3 -3 
8827 5 0.581845 0.413614 0.0734107 0 -2 2 
5754 5 0.935159 0.432192 0.137225 -1 -2 2 
6632 6 0.310303 0.504058 0.120243 -2 4 0 
5043 6 0.00534331 0.49575 0.119068 4 1 3 
7235 6 0.466869 0.522246 0.111901 -1 -2 1 
8117 5 0.503882 0.542277 0.0899598 -3 -3 0 
5906 6 0.624537 0.499817 0.110117 1 0 -5 
5336 6 0.196232 0.542761 0.117353 -2 4 0 
5966 6 0.866327 0.554204 0.0719106 2 2 1 
6088 6 0.865128 0.559121 0.0980954 -2 -1 -1 
6107 5 0.0528792 0.525222 0.0965795 3 -1 -6 
8328 5 0.832624 0.553329 0.128271 -2 4 -6 
7880 5 0.697378 0.608855 0.093905 2 -6 1 
8766 5 0.0296186 0.62193 0.114533 1 -1 -2 
7670 6 0.301177 0.655723 0.0872312 1 5 0 
5661 5 0.379481 0.644931 0.106415 2 2 3 
6141 6 0.588088 0.650209 0.0992269 2 3 3 
8907 6 0.039485 0.712392 0.0780193 -3 1 2 
5561 6 0.390083 0.678186 0.116492 -1 -6 1 
6129 5 0.845025 0.738698 0.0733516 0 0 2 
7047 6 0.240808 0.735697 0.083661 2 0 0 
8579 6 0.29859 0.749894 0.0874153 -3 1 5 
5875 5 0.346385 0.777199 0.0743794 4 1 -1 
5489 5 0.295941 0.80026 0.0690682 -1 1 2 
6347 5 0.354173 0.826073 0.129889 1 1 0 
8775 5 0.439648 0.816867 0.126995 0 5 0 
7013 5 0.219892 0.809579 0.0844214 -2 -3 -1 
7697 5 0.164076 0.877846 0.158234 -2 -3 -6 
6741 5 0.173044 0.858448 0.10498 -1 -1 3 
7885 5 0.0284944 0.885031 0.131984 -1 3 1 
8909 6 0.352299 0.8742 0.0974624 -4 -3 3 
8566 6 0.685384 0.825074 0.145183 0 4 -1 
7985 5 0.871676 0.870614 0.117413 0 -5 4 
8416 5 0.79426 0.943605 0.105858 -1 -3 1 
7542 5 0.13903 0.941021 0.13451 -3 -6 5 
6553 5 0.220986 0.999425 0.0774234 0 1 0 
6674 6 0.395452 0.950685 0.116274 -6 1 -1 
8860 5 0.457237 0.97406 0.11395 3 2 3 
5332 5 0.505402 0.00356736 0.11905 -5 -3 -4 
7241 6 0.846971 0.00633289 0.0605458 -6 -4 4 
6125 5 0.248527 0.0141452 0.105277 0 -1 0 
7915 6 0.569615 0.0373075 0.1097 0 -1 2 
5759 6 0.272862 0.0664644 0.0930864 -2 1 1 
7760 5 0.912259 0.0135154 0.146994 0 0 2 
7266 5 0.524443 0.0301635 0.152503 4 1 0 
5051 5 0.88555 0.0673272 0.137722 -2 1 -2 
8994 6 0.868474 0.116343 0.115271 7 1 5 
8360 6 0.0492205 0.154384 0.170229 2 2 4 
5137 6 0.277429 0.177941 0.0836884 2 0 2 
6115 6 0.086086 0.215706 0.183744 2 0 0 
5852 6 0.309764 0.192777 0.133685 -1 -1 2 
7452 6 0.922165 0.200917 0.114924 -1 9 3 
5160 6 0.960449 0.227809 0.0915556 -6 -2 -1 
8191 5 0.39427 0.275682 0.123166 0 4 0 
8224 6 0.574646 0.245189 0.113768 0 0 5 
5793 6 0.974682 0.252498 0.10428 0 3 2 
7071 6 0.179535 0.257632 0.136891 -2 1 3 
5454 6 0.385619 0.253735 0.157125 1 -2 1 
7079 5 0.525645 0.251197 0.119027 0 2 0 
8532 5 0.198616 0.30253 0.102966 1 1 -1 
6002 6 0.438804 0.299741 0.123927 -2 1 1 
5157 6 0.482416 0.308992 0.153729 3 1 3 
8741 6 0.852435 0.321775 0.106903 -4 -3 2 
7886 6 0.313661 0.339594 0.103383 -3 3 -1 
7446 5 0.631703 0.340053 0.15527 3 0 -1 
7244 6 0.676227 0.383379 0.15093 -2 0 2 
5551 5 0.196035 0.331883 0.127301 -3 1 1 
8783 5 0.386356 0.388611 0.136611 4 0 8 
6114 5 0.479969 0.323594 0.147344 -1 4 -3 
5185 5 0.87701 0.422246 0.146018 0 0 4 
6537 6 0.818969 0.411198 0.148379 -3 2 3 
6003 6 0.998074 0.415715 0.0989139 2 4 2 
6316 6 0.0279559 0.430351 0.107159 1 -2 -3 
8873 6 0.942096 0.407734 0.160393 4 -2 3 
8891 6 0.445804 0.469679 0.108771 2 -1 -2 
6732 6 0.513762 0.427021 0.149266 -4 3 1 
7572 6 0.27435 0.445237 0.142723 -5 -2 -4 
8228 6 0.711024 0.456752 0.138191 3 -1 0 
6643 6 0.813258 0.491891 0.161181 5 -1 -4 
6755 5 0.180812 0.49381 0.135282 5 0 -3 
5806 6 0.0400759 0.491395 0.132543 -1 2 0 
6011 5 0.283537 0.552258 0.108204 -1 -1 0 
5278 6 0.459926 0.512956 0.131311 -3 4 4 
7285 6 0.742111 0.518557 0.144011 -3 -1 2 
5226 5 0.986494 0.54437 0.13378 6 6 3 
6438 6 0.0121626 0.531493 0.114236 1 0 0 
5790 5 0.903415 0.557619 0.129552 2 3 5 
7030 6 0.694351 0.612435 0.148297 -2 -1 1 
8893 5 0.209076 0.693861 0.125502 -2 3 1 
7785 5 0.601945 0.697727 0.123679 -5 -3 1 
6151 5 0.635346 0.669607 0.0986173 -2 -1 -6 
8046 5 0.739159 0.684984 0.140741 -3 0 -5 
7021 6 0.845535 0.668545 0.113611 -3 1 -1 
7927 6 0.108543 0.723212 0.131143 -4 -2 1 
8692 6 0.251853 0.766882 0.115429 4 1 1 
5781 6 0.983414 0.704588 0.125386 1 0 -1 
6895 5 0.485517 0.750768 0.0903734 -1 -1 1 
5512 6 0.493484 0.75633 0.138999 -4 2 -1 
8969 5 0.00562075 0.800127 0.10882 -1 5 2 
8661 5 0.223196 0.784677 0.13607 0 3 -2 
6312 5 0.317806 0.796206 0.104069 -3 1 -4 
5753 5 0.53354 0.805219 0.140858 4 0 3 
6244 6 0.971412 0.761849 0.124964 -5 -1 0 
8785 6 0.796399 0.819348 0.134586 -4 -2 -5 
8481 5 0.997514 0.87082 0.11226 4 6 4 
6566 5 0.145041 0.897839 0.138383 0 4 -1 
6995 5 0.696513 0.87902 0.120738 -2 0 0 
5072 6 0.801642 0.922379 0.143777 7 0 4 
5918 5 0.969977 0.886932 0.0951856 1 0 5 
7701 6 0.965783 0.930766 0.134768 2 -2 0 
6250 6 0.987774 0.927871 0.11206 0 -4 0 
6554 5 0.410512 0.927851 0.122818 -1 -3 3 
5541 6 0.41489 0.912005 0.119156 -5 6 -5 
6904 5 0.303432 0.947824 0.0902361 2 3 -3 
7286 6 0.581903 0.922235 0.0990805 -1 -1 2 
8503 6 0.956277 0.928803 0.16955 2 -3 1 
7346 5 0.232182 0.975153 0.115757 -1 0 1 
6533 6 0.449803 0.982493 0.140578 -4 -2 3 
6340 6 0.302242 0.992459 0.097015 2 -2 2 
7800 5 0.753852 0.0219669 0.111811 2 -1 0 
7739 5 0.826975 0.00545522 0.140786 -2 -3 5 
8910 5 0.412068 0.00461765 0.140363 1 3 -1 
7290 6 0.124297 0.0521704 0.144729 2 0 2 
5696 6 0.361309 0.05936 0.176781 -1 4 0 
5623 6 0.00435971 0.0561022 0.195416 1 -3 -3 
7538 5 0.572882 0.0396912 0.14251 4 -5 -1 
5768 6 0.241824 0.120055 0.180689 5 0 -5 
7917 5 0.30526 0.122872 0.180083 0 -6 3 
7995 6 0.517011 0.161774 0.141713 1 0 -2 
7526 5 0.274268 0.196026 0.0980587 6 2 1 
6707 5 0.537911 0.168874 0.14193 -3 -4 1 
6967 6 0.693822 0.157587 0.127251 2 -2 -2 
6981 5 0.843833 0.228222 0.176478 1 5 -4 
8615 5 0.0303558 0.204466 0.162476 2 2 3 
7310 6 0.325716 0.207191 0.131432 -1 -2 3 
5737 6 0.496906 0.217559 0.134967 -3 -2 1 
7781 5 0.976353 0.192508 0.154212 -3 -2 2 
7603 6 0.677779 0.233691 0.135255 -1 6 0 
5359 5 0.162409 0.279058 0.131143 4 2 2 
5063 5 0.332334 0.260692 0.127039 2 6 0 
5128 6 0.45124 0.270012 0.158277 1 -2 4 
8348 6 0.0804286 0.284514 0.163904 -2 -3 1 
8636 5 0.361184 0.266119 0.121055 2 -1 -3 
6521 5 0.633498 0.277011 0.158139 -5 -2 -2 
8547 6 0.73311 0.286634 0.127396 0 -2 -1 
7065 6 0.311282 0.290079 0.179648 0 0 0 
5021 5 0.458137 0.316462 0.149607 -2 0 0 
8108 6 0.36848 0.330807 0.200562 2 2 -1 
6846 6 0.0871818 0.437064 0.149353 1 -1 5 
5600 6 0.184639 0.342556 0.124736 1 0 -4 
7280 5 0.750655 0.401533 0.157918 2 3 5 
8124 5 0.657885 0.420438 0.154709 3 -2 4 
6085 5 0.491976 0.422984 0.175118 2 -1 -3 
7637 6 0.788213 0.410311 0.141068 -1 3 1 
8975 5 0.853117 0.418297 0.183433 -6 0 -1 
6528 6 0.323572 0.399948 0.129417 3 4 2 
7412 6 0.807608 0.448284 0.133037 -2 0 -2 
5091 5 0.00336169 0.505709 0.183956 5 1 2 
8461 6 0.118516 0.473687 0.156075 2 1 1 
7158 6 0.335051 0.542819 0.146636 2 2 -3 
7361 6 0.618802 0.484087 0.172738 -3 -7 -2 
7063 6 0.572136 0.563336 0.100743 4 2 2 
5545 6 0.694203 0.517045 0.123525 2 1 0 
7144 6 0.96988 0.552387 0.174972 3 2 1 
6905 6 0.822587 0.607193 0.114535 4 -1 -1 
7035 6 0.76877 0.646859 0.123811 0 0 6 
6321 5 0.947006 0.622485 0.159844 3 -4 0 
5983 5 0.970917 0.649439 0.133753 0 3 -2 
6242 6 0.061333 0.628188 0.152219 -1 0 -3 
6353 6 0.232834 0.700349 0.125604 3 -2 -1 
5582 6 0.805952 0.654471 0.127723 -2 -1 2 
6743 5 0.86253 0.67236 0.167988 4 5 2 
6294 6 0.830971 0.664191 0.167405 -4 0 -3 
5001 6 0.412718 0.694719 0.136483 0 3 -2 
6168 5 0.252687 0.749229 0.140524 -2 -3 6 
5450 5 0.280776 0.735028 0.12991 3 -2 2 
8267 6 0.591009 0.735063 0.148635 1 1 -3 
5252 5 0.0270887 0.708758 0.131803 -1 -2 3 
7447 6 0.53123 0.744967 0.157032 0 0 4 
7323 5 0.732461 0.726069 0.16166 1 1 -1 
8041 6 0.180044 0.721013 0.1715 0 -2 -2 
7349 5 0.731473 0.749194 0.172237 1 0 1 
6574 5 0.180333 0.786521 0.125375 -2 -2 -1 
8010 6 0.0661237 0.858902 0.175741 -3 1 0 
5445 5 0.358466 0.816907 0.176937 1 3 3 
7881 6 0.40033 0.82342 0.157548 3 -1 2 
7106 6 0.0512703 0.829531 0.13227 -2 -1 -2 
7483 5 0.189127 0.873408 0.148916 6 1 0 
6278 6 0.209125 0.844675 0.164409 1 0 5 
7723 6 0.504228 0.850808 0.134456 4 0 -5 
8877 5 0.658601 0.834562 0.176066 4 1 -1 
7422 6 0.930261 0.906827 0.141814 1 -1 0 
6158 6 0.530437 0.956444 0.113702 7 -1 3 
8315 6 0.0932739 0.942936 0.123197 -2 -3 0 
8475 5 0.0362698 0.995582 0.174939 -1 -2 1 
8757 6 0.888803 0.990358 0.156099 1 4 4 
6665 5 0.168575 0.980082 0.191486 1 -1 0 
6855 6 0.232603 0.0107323 0.145367 0 0 6 
8889 5 0.216844 0.0309242 0.136944 2 4 -2 
7343 5 0.18465 0.992301 0.151269 -3 -3 9 
5556 6 0.755479 0.0427442 0.155823 0 2 3 
8997 6 0.725907 0.0134295 0.164064 -4 1 3 
6454 6 0.925275 0.0230224 0.178451 -4 4 0 
5056 6 0.0216949 0.026441 0.170329 -1 1 -2 
7384 6 0.554167 0.120244 0.186176 0 -2 -1 
5855 5 0.960255 0.094519 0.176948 1 1 2 
5560 6 0.513704 0.114955 0.179119 4 0 -1 
5220 5 0.0192164 0.156659 0.155931 -5 6 -4 
6963 5 0.106055 0.143867 0.173676 3 5 0 
8562 5 0.465993 0.169311 0.212856 3 -1 1 
6093 6 0.535495 0.175598 0.150758 0 -2 4 
8007 6 0.880866 0.164186 0.16265 3 -5 5 
8947 6 0.757857 0.157887 0.172524 -1 0 -6 
6256 6 0.199974 0.196747 0.1799 -1 -1 -4 
6132 6 0.672137 0.217325 0.15492 -1 0 0 
5635 6 0.824269 0.249405 0.217104 1 6 1 
6411 5 0.167799 0.265538 0.132904 1 0 1 
5310 5 0.259533 0.27422 0.19248 0 0 1 
5744 6 0.231 0.272028 0.184478 0 2 1 
7681 6 0.903322 0.30079 0.190752 0 2 -2 
8150 6 0.167113 0.362542 0.134541 0 1 0 
8760 6 0.164035 0.331752 0.183246 -2 0 -1 
8368 6 0.528638 0.367217 0.174991 -2 -1 1 
5396 5 0.747983 0.39977 0.149732 -1 -1 1 
7371 6 0.235321 0.370254 0.176828 3 1 -4 
7622 5 0.485685 0.409964 0.176119 -2 -5 -3 
6147 5 0.623018 0.380717 0.167757 3 2 -3 
5393 5 0.874492 0.43382 0.162961 1 -2 -1 
6463 6 0.921004 0.379119 0.181553 -3 -3 -1 
6182 6 0.441625 0.45145 0.178923 -3 5 3 
6360 5 0.589164 0.467178 0.132757 2 0 2 
5645 5 0.61887 0.447847 0.152126 0 -6 -7 
8688 5 0.981214 0.446369 0.142308 -4 -2 0 
5827 5 0.702387 0.442143 0.166156 2 0 0 
5548 5 0.867667 0.466294 0.183022 -4 6 6 
7611 5 0.55141 0.564164 0.207418 5 -1 7 
6637 6 0.664019 0.542127 0.157609 3 1 8 
6525 5 0.777255 0.525142 0.127146 -1 0 3 
5322 6 0.819713 0.57735 0.165829 -2 -6 1 
5876 6 0.195819 0.589722 0.165672 -3 -2 -2 
8557 6 0.340952 0.60127 0.144542 3 -7 -2 
5472 6 0.566709 0.59281 0.138178 4 2 4 
6499 6 0.829802 0.616752 0.203221 -2 5 -4 
8641 5 0.531352 0.63853 0.149388 -8 -4 -2 
8152 5 0.462729 0.645034 0.196181 5 1 -3 
8047 6 0.285068 0.696085 0.164121 0 1 -4 
5407 6 0.571852 0.702838 0.193271 0 1 1 
5270 6 0.101986 0.772942 0.191555 1 -2 4 
8376 5 0.811283 0.755921 0.163742 0 8 -4 
8710 5 0.88763 0.790464 0.166873 0 0 5 
5020 5 0.921249 0.778892 0.139377 -5 -2 -1 
6721 6 0.542088 0.754546 0.178617 1 5 4 
5134 6 0.775786 0.820956 0.168381 3 -1 0 
6431 6 0.893196 0.76932 0.173612 2 0 0 
6869 5 0.0252674 0.823795 0.181365 -1 -5 -1 
7321 6 0.0406768 0.796227 0.164897 0 -4 3 
5816 5 0.020526 0.817578 0.151525 2 -4 0 
6991 6 0.0901312 0.796331 0.214991 0 2 -1 
8550 6 0.226965 0.839672 0.147821 3 1 3 
7854 6 0.682914 0.804309 0.182775 -4 -2 -4 
6781 5 0.783377 0.757705 0.131404 -2 -4 1 
7043 5 0.520813 0.816935 0.172407 -4 -1 2 
6573 6 0.165754 0.854146 0.221392 0 -1 0 
6392 5 0.057666 0.873653 0.190653 0 -3 6 
5250 6 0.194187 0.910547 0.183683 -1 2 0 
8414 5 0.539316 0.90108 0.156489 4 0 1 
7845 6 0.548576 0.933939 0.1566 -2 7 1 
6424 6 0.277424 0.933204 0.176617 1 3 3 
5221 6 0.901672 0.949795 0.196024 -2 2 -4 
5180 5 0.196517 0.943107 0.192534 4 0 -3 
7253 6 0.433545 0.957686 0.163991 -1 2 4 
5811 5 0.961328 0.954157 0.151789 -3 0 7 
7497 5 0.0269788 0.997737 0.160852 -5 3 1 
6615 6 0.405393 0.0087875 0.163524 -1 -3 5 
8596 5 0.432358 0.00653263 0.185894 -2 2 1 
6773 6 0.736334 0.0802656 0.197012 -2 -1 -3 
6302 6 0.569897 0.0130151 0.156226 0 1 -1 
6723 5 0.636349 0.995785 0.230555 -1 -4 4 
5058 5 0.0433464 0.0477192 0.170844 4 2 -1 
5361 6 0.543832 0.0822668 0.190099 2 -1 4 
7989 6 0.677441 0.0692373 0.210237 2 -1 -5 
6578 5 0.796749 0.105069 0.184916 2 3 -3 
7215 5 0.920869 0.0768158 0.19067 -2 0 -1 
5800 6 0.45632 0.10645 0.17239 1 3 2 
6771 6 0.557772 0.098839 0.196443 -2 0 -2 
7685 5 0.104898 0.161491 0.145297 -1 -2 -3 
6539 5 0.088033 0.139559 0.20059 0 3 3 
7331 5 0.159923 0.18448 0.178503 0 1 -1 
5651 5 0.26607 0.138525 0.184781 1 -6 -3 
6938 6 0.703333 0.18009 0.154884 0 1 -3 
8137 5 0.113099 0.152532 0.214626 0 0 1 
5767 6 0.180102 0.181015 0.177214 1 -2 5 
5756 5 0.280201 0.176947 0.208187 1 3 2 
5374 5 0.379077 0.207701 0.222768 1 -3 4 
6624 6 0.401178 0.141085 0.197961 1 4 1 
8413 6 0.515232 0.163069 0.198011 3 0 0 
6328 6 0.867486 0.179566 0.168136 1 0 1 