ITEM: TIMESTEP
20000000
ITEM: NUMBER OF ATOMS
9000
ITEM: BOX BOUNDS pp pp pp
-75 75
-75 75
-75 75
ITEM: ATOMS id type xs ys zs ix iy iz 
5328 6 0.227159 0.0252317 0.00241357 4 -1 1 
8434 5 0.103299 0.00420538 0.0165141 3 3 -3 
7323 5 0.267537 0.0622518 0.0551349 3 -1 0 
8058 5 0.626645 0.0546654 0.999177 3 3 -4 
7182 6 0.0526001 0.0254487 0.0422002 -1 0 4 
5081 6 0.0833526 0.0792586 0.00379938 0 4 -2 
6916 5 0.0766656 0.0587279 0.0444883 0 1 -1 
5730 6 0.381111 0.0578837 0.996258 0 0 0 
5848 6 0.737352 0.0435907 0.0188803 -1 -3 1 
8511 5 0.256281 0.0878336 0.00349728 1 -3 1 
8653 5 0.462485 0.0850386 0.0453528 1 0 6 
7335 6 0.903378 0.0668705 0.00135309 1 0 2 
6854 5 0.143755 0.122492 0.0214053 5 0 0 
8683 5 0.507718 0.147765 0.00309315 5 5 -5 
6251 6 0.135159 0.136918 0.99698 6 5 1 
8413 6 0.0864665 0.184717 0.995393 4 2 7 
7147 6 0.188699 0.16176 0.999266 4 -1 -4 
7214 6 0.379132 0.177669 0.98218 -4 -3 -2 
8880 6 0.776872 0.170076 0.049488 3 1 4 
6963 5 0.992868 0.271775 0.0279744 -2 4 4 
6919 5 0.391203 0.227964 0.0242445 6 -3 -1 
8593 6 0.887873 0.28647 0.00867551 -1 -2 -1 
8849 5 0.062589 0.245356 0.990048 2 -2 -1 
6000 6 0.488511 0.327548 0.0143555 2 -2 -1 
7855 5 0.447601 0.300504 0.0015662 0 -3 3 
5238 5 0.565079 0.306483 0.0260384 4 1 2 
6993 5 0.690816 0.269814 0.00278765 0 1 0 
5980 5 0.167814 0.323322 0.050871 4 -2 1 
8756 5 0.893662 0.3149 0.0261134 -3 1 3 
5155 6 0.946037 0.319209 0.0314612 -1 1 1 
7789 6 0.0100308 0.378968 0.0341101 1 -2 0 
8545 6 0.450407 0.356858 0.0251139 0 0 -1 
7845 5 0.716537 0.365961 0.0105421 4 -1 -1 
6273 6 0.915378 0.349008 0.984838 -7 2 -7 
6607 6 0.33631 0.360262 0.00789333 1 1 -6 
7525 5 0.410578 0.41152 0.0124607 5 -4 -2 
7859 5 0.964541 0.393952 0.0558607 4 2 -2 
5470 5 0.321969 0.430335 0.0248092 3 0 2 
6608 6 0.418741 0.411097 0.0118482 4 -4 3 
8971 5 0.485492 0.40043 0.00533152 1 6 1 
6614 6 0.643491 0.395186 0.010815 -1 -1 1 
5287 5 0.503566 0.416383 0.036026 3 4 1 
7693 6 0.975176 0.413024 0.0303604 1 7 6 
7412 6 0.200244 0.471458 0.0186391 -1 4 0 
7565 6 0.446208 0.53907 0.0207486 -1 -3 -1 
5257 5 0.627306 0.549164 0.981614 4 1 -2 
5998 5 0.848923 0.51345 0.996466 0 0 -1 
6724 6 0.397882 0.468623 0.970189 -1 1 -4 
8847 6 0.714041 0.546039 0.0146201 -1 -7 6 
5978 5 0.879648 0.560475 0.0116177 3 10 2 
5609 5 0.125382 0.548499 0.0294491 1 0 -3 
7184 6 0.20782 0.54818 0.0148465 -5 2 1 
8420 5 0.658569 0.532657 0.0165878 -3 -5 -1 
6132 6 0.108348 0.620609 0.00223713 -1 -2 1 
5283 5 0.19561 0.5516 0.0186418 -6 3 3 
6868 6 0.864882 0.633881 0.978294 3 2 2 
7995 6 0.000623045 0.583985 0.00740038 -1 1 1 
6638 6 0.565033 0.632273 0.0300336 2 5 -2 
7826 6 0.780703 0.623166 0.00361304 -1 0 -1 
6621 6 0.807682 0.631179 0.987788 -1 2 -2 
7861 6 0.876972 0.65827 0.0265918 0 1 -2 
8863 6 0.294878 0.644405 0.0291438 -1 0 1 
7196 6 0.425447 0.657369 0.00543699 1 1 -2 
8561 6 0.492224 0.676723 0.983838 -2 -1 1 
8455 6 0.930406 0.725655 0.00206657 -6 1 -2 
6154 5 0.263165 0.734084 0.0337945 0 -3 0 
6558 6 0.356085 0.696201 0.00106539 -2 7 -3 
6495 6 0.113522 0.729592 0.0333682 3 -3 -3 
7016 6 0.302984 0.703784 0.0191159 -1 -1 1 
8294 6 0.356392 0.775966 0.963236 3 5 3 
7949 6 0.494342 0.759286 0.0342389 3 1 -3 
6112 5 0.7622 0.802 0.0307883 -2 -4 -3 
6290 5 0.894944 0.8042 0.968939 -4 0 -1 
6001 5 0.259207 0.757225 0.995766 1 -1 -4 
7305 5 0.43415 0.7796 0.0236419 -1 -3 1 
5181 6 0.44224 0.800465 0.0111408 -3 -1 0 
6861 6 0.664643 0.814606 0.0568973 6 0 0 
5217 6 0.763252 0.78896 0.0394257 2 7 1 
8421 6 0.217674 0.842329 0.0185914 2 2 3 
8814 5 0.292431 0.863007 0.0128365 4 3 5 
6984 6 0.543041 0.909983 0.0225657 -2 0 -1 
7387 5 0.147822 0.902141 0.0141278 -4 0 -1 
7581 5 0.0435033 0.921733 0.988918 -1 -2 -1 
5450 6 0.113053 0.910417 0.982376 2 2 -5 
8196 5 0.112383 0.958178 0.0197835 -1 -2 2 
5974 6 0.0649741 0.989072 0.992733 -4 -3 4 
8280 5 0.220774 0.014574 0.0497987 -6 -2 3 
5400 5 0.321877 0.0234431 0.0601819 -1 -4 4 
5333 6 0.641868 0.0362129 0.0790604 0 -3 3 
6391 5 0.787867 0.0248866 0.0233537 -1 -4 3 
5284 6 0.167894 0.0551069 0.0213774 0 -1 0 
5153 6 0.427889 0.0680908 0.0500819 -1 1 -1 
8473 6 0.542419 0.0584841 0.999539 -2 -4 2 
5482 6 0.516856 0.0964112 0.0562376 -4 0 -1 
7489 6 0.119843 0.116737 0.045273 1 5 3 
7817 6 0.209191 0.140112 0.0556097 2 3 1 
7057 6 0.172234 0.120574 0.0375326 -7 4 0 
7574 5 0.295449 0.137241 0.0205947 3 -6 5 
7641 5 0.253722 0.172492 0.0408951 1 1 -4 
8000 6 0.781463 0.166505 0.0342064 0 -3 -1 
7097 6 0.178716 0.223883 0.990885 4 1 6 
8408 6 0.172587 0.230181 0.0495927 -3 -2 4 
6927 5 0.504212 0.23264 0.0707529 6 -3 2 
6758 6 0.116049 0.251372 0.00319421 3 -2 -4 
6472 6 0.275122 0.282357 0.0870127 -1 -1 -3 
5544 5 0.10945 0.296159 0.0267831 -1 0 1 
5955 5 0.378004 0.22561 0.0306464 3 1 0 
6835 5 0.747621 0.278199 0.0449884 2 3 -4 
7488 5 0.788152 0.280355 0.0336426 -4 4 0 
8300 6 0.522328 0.284728 0.0295268 -1 0 4 
6752 5 0.655341 0.315014 0.0294575 0 3 1 
5898 6 0.905737 0.291825 0.0484813 2 1 -2 
6950 6 0.634332 0.321025 0.0509539 1 -2 -2 
6463 6 0.687638 0.304731 0.0571823 -2 1 2 
6931 6 0.974286 0.328565 0.0459063 -1 3 1 
5326 5 0.80431 0.308989 0.0334247 3 -1 2 
5219 6 0.212694 0.373324 0.0139468 -1 0 0 
7452 6 0.310116 0.35647 0.0472267 -2 3 -2 
5441 6 0.449757 0.379589 0.0385436 -3 1 3 
6863 6 0.961543 0.436238 0.0136487 -4 1 4 
5346 6 0.0719578 0.395846 0.025439 2 2 5 
5797 5 0.202477 0.387049 0.02332 0 -3 -2 
8318 6 0.579005 0.444916 0.0369771 -2 -1 -4 
5156 5 0.178446 0.45686 0.0143911 -1 0 4 
6453 6 0.250688 0.458901 0.0500649 -6 -3 0 
8774 5 0.789928 0.493664 0.00164028 0 -6 -1 
8943 6 0.818877 0.497203 0.0216396 -6 4 2 
6441 5 0.439817 0.500408 0.0658806 0 1 -1 
7148 6 0.211632 0.575368 0.0438872 0 -2 4 
5377 5 0.659763 0.575887 0.0557994 -1 5 1 
8692 5 0.479422 0.61565 0.041534 1 4 1 
7663 5 0.00598397 0.628386 0.00909948 0 -2 2 
8209 5 0.612713 0.622899 0.0525491 3 -2 -6 
8839 6 0.262232 0.642701 0.0191923 -3 -4 0 
6672 6 0.876479 0.629456 0.0472652 -1 0 1 
6565 6 0.872182 0.657979 0.0127151 -1 1 -2 
8565 6 0.390399 0.647056 0.0344097 -3 -3 3 
5915 6 0.545344 0.639364 0.0327861 -4 -1 -1 
5312 6 0.183413 0.710446 0.0502835 1 4 -4 
6398 5 0.55058 0.762672 0.0122363 5 -1 1 
5435 6 0.311491 0.706705 0.0555119 -8 -5 1 
6396 6 0.693808 0.71948 0.0519101 0 -1 -4 
6174 6 0.922772 0.691706 0.0450611 -2 3 1 
8215 6 0.929974 0.761611 0.0570021 -3 -1 1 
7236 6 0.123107 0.724577 0.0320695 3 1 2 
7288 6 0.290679 0.68671 0.0412895 1 -2 -3 
8961 6 0.539217 0.701317 0.0598388 3 0 3 
5858 6 0.195561 0.77531 0.0194758 -1 -2 1 
7180 5 0.684711 0.72917 0.0743761 0 -2 0 
6687 6 0.468863 0.768295 0.0262524 0 2 1 
8617 6 0.0991692 0.79211 0.0268651 1 1 -3 
8050 6 0.359175 0.784123 0.0464966 8 1 2 
7329 6 0.0573646 0.8124 0.0399649 -2 -3 -2 
8724 6 0.490384 0.826668 0.0314064 4 2 -2 
6119 6 0.968362 0.793669 0.0247008 -2 3 3 
8896 5 0.423233 0.842213 0.0277376 3 -2 -1 
8963 6 0.301656 0.880143 0.0301624 1 4 -4 
8097 6 0.867628 0.915764 0.0157816 1 3 -2 
5166 5 0.0320214 0.983415 0.0275452 -1 -1 3 
8665 6 0.724319 0.00261687 0.0300168 -1 -4 -4 
7509 6 0.825716 0.991563 0.0469277 -1 1 3 
8035 5 0.250064 0.0478577 0.0468366 0 -3 4 
7450 5 0.675287 0.032264 0.0398191 2 4 0 
7865 6 0.48725 0.0601748 0.0378189 -1 3 -3 
6188 5 0.527675 0.0843521 0.0665834 3 3 0 
5971 5 0.104136 0.055647 0.0336507 2 -4 2 
6530 5 0.89921 0.0743119 0.054928 0 3 -3 
8595 6 0.28978 0.0960717 0.0550278 4 -3 -1 
5986 6 0.365262 0.144501 0.066302 4 3 -1 
7756 5 0.495293 0.131166 0.0463662 0 -1 8 
7432 5 0.318714 0.13921 0.0718766 0 8 -2 
8089 6 0.469765 0.118106 0.0625657 2 1 -3 
8576 6 0.391136 0.14695 0.0685763 -4 2 -1 
8973 6 0.737549 0.144483 0.0550175 -4 -1 6 
8304 6 0.129423 0.191024 0.0614807 -1 4 -3 
8469 5 0.241621 0.199727 0.0633879 2 3 0 
6577 5 0.528975 0.219981 0.0422523 -4 0 -1 
6166 6 0.759996 0.173762 0.105881 -1 3 0 
5453 5 0.888335 0.192673 0.0272687 -1 -2 -2 
6225 6 0.984455 0.177062 0.0315062 3 0 3 
6243 6 0.789906 0.213376 0.0926725 1 -4 -1 
5841 5 0.843845 0.201284 0.0473282 -4 2 1 
6545 5 0.0264447 0.245255 0.0531241 2 2 -1 
6193 6 0.692563 0.268129 0.0408992 1 -5 5 
5124 5 0.946329 0.27157 0.0831147 0 6 0 
6873 5 0.125034 0.288665 0.0334826 1 5 -4 
7529 6 0.276101 0.282585 0.0394289 0 1 2 
5164 6 0.429155 0.275564 0.0525491 3 5 1 
6512 5 0.376352 0.247228 0.0683983 0 0 -1 
8793 6 0.129724 0.34274 0.098796 4 3 -2 
6248 5 0.549633 0.288035 0.0524511 0 -1 5 
7114 5 0.683134 0.323588 0.0607305 -6 0 -3 
5781 5 0.0917604 0.343763 0.0420333 4 6 -2 
5646 6 0.575988 0.32186 0.111028 0 0 2 
6583 5 0.987182 0.329954 0.058248 3 0 1 
7869 6 0.986101 0.345575 0.0732563 -4 3 1 
7346 5 0.137745 0.435079 0.029822 -5 -1 2 
7051 5 0.25704 0.425814 0.0573737 1 -1 -6 
6300 6 0.857513 0.477362 0.027649 0 2 6 
5310 6 0.955188 0.436035 0.0576841 1 5 4 
8819 5 0.133378 0.493809 0.0621981 2 0 1 
5795 5 0.160545 0.493185 0.069232 -1 -4 0 
5657 6 0.94194 0.489295 0.0702621 -2 7 -2 
8326 5 0.141029 0.522925 0.0800507 0 6 -2 
6605 5 0.320659 0.551385 0.0437718 4 2 3 
5019 6 0.417982 0.531184 0.043072 -1 6 0 
6556 5 0.272557 0.537052 0.102654 0 -5 -2 
8600 5 0.0145438 0.590454 0.0623593 0 -4 0 
5255 6 0.50716 0.563 0.061614 -10 -4 -4 
8762 5 0.87523 0.526857 0.0351123 0 -6 -1 
6521 5 0.181877 0.613181 0.0540585 0 -3 -2 
8299 6 0.441155 0.599885 0.0631861 2 -4 4 
6529 6 0.0301556 0.643417 0.0367647 0 -2 -4 
7546 6 0.265629 0.601366 0.0646951 -2 -1 -1 
8997 6 0.891907 0.63421 0.0835729 -4 0 0 
7665 6 0.535854 0.667801 0.0818368 5 -3 1 
7809 5 0.740684 0.667923 0.0234689 1 1 2 
8811 6 0.099144 0.70712 0.103003 -2 1 -1 
5581 5 0.453233 0.712306 0.0736127 1 5 -1 
8958 6 0.85323 0.728599 0.0276657 -3 -5 5 
6790 5 0.951686 0.7598 0.0685113 1 0 2 
6649 5 0.740322 0.769538 0.0714328 2 -3 -2 
8048 5 0.759118 0.768869 0.0902125 2 1 2 
5527 6 0.130215 0.798093 0.0389817 -5 -3 4 
5717 6 0.246588 0.818835 0.0789488 -4 2 -7 
6068 5 0.736362 0.876741 0.0332086 2 -6 0 
8027 6 0.890558 0.864792 0.0323984 -2 -1 3 
5064 6 0.0789327 0.89466 0.0396286 2 -2 6 
6469 6 0.278927 0.917983 0.0317872 7 1 0 
6431 6 0.275219 0.946368 0.0376835 -1 -7 0 
7694 6 0.330652 0.899256 0.985346 4 -1 4 
8581 5 0.404462 0.925965 0.0218417 6 0 -3 
8252 5 0.820564 0.931546 0.0603327 5 4 -1 
9000 6 0.194949 0.949446 0.0439015 3 -2 -3 
5131 6 0.258205 0.932261 0.034439 -1 3 4 
8714 6 0.470238 0.974919 0.0771947 2 -1 3 
7658 6 0.0544148 0.991622 0.0764979 2 -1 2 
7895 6 0.663204 0.984279 0.0757368 0 -1 4 
5935 6 0.178443 0.0158567 0.104261 -7 3 3 
7770 6 0.0328737 0.0232653 0.052351 0 -1 2 
8315 5 0.254159 0.00987369 0.0996849 2 4 0 
5530 5 0.676362 0.0266193 0.0948857 -2 -2 -1 
5491 5 0.00408269 0.0267574 0.0725719 3 5 -3 
8012 5 0.188675 0.0456929 0.0338398 -2 2 4 
6447 5 0.121443 0.0744485 0.0710036 5 -4 2 
7936 5 0.959659 0.0580275 0.069695 8 -4 -1 
7916 6 0.89515 0.0698546 0.0837322 0 2 -1 
8634 5 0.376373 0.15194 0.110366 2 2 -4 
7385 5 0.446968 0.0990279 0.0718131 3 3 -5 
8520 5 0.498761 0.147826 0.0505518 1 -3 -1 
8837 6 0.745091 0.0986864 0.0717053 -5 2 0 
6580 5 0.250829 0.154881 0.044687 3 2 2 
7074 6 0.394158 0.184986 0.0789689 -6 5 4 
5022 5 0.680808 0.180398 0.102745 1 -2 3 
6623 6 0.417859 0.198241 0.0644404 2 1 -2 
8387 5 0.528907 0.232848 0.0714095 1 -3 2 
8188 6 0.838132 0.229096 0.0745593 -4 1 2 
7252 5 0.305967 0.233808 0.0567532 2 -1 3 
7246 5 0.718433 0.241826 0.0693335 3 1 3 
7921 5 0.743936 0.265506 0.0687506 3 0 0 
7010 6 0.148199 0.35953 0.065009 -3 4 4 
6491 6 0.589534 0.298499 0.0817864 4 0 0 
7611 6 0.318048 0.356694 0.0347899 -3 0 -6 
8184 6 0.349065 0.371019 0.0470231 0 5 2 
6285 6 0.50734 0.353193 0.0485047 2 3 -1 
6635 5 0.768482 0.368469 0.0708845 -2 -1 0 
7742 6 0.744344 0.336724 0.0605656 -4 1 -3 
7294 5 0.251469 0.3721 0.0523973 -1 1 4 
8102 5 0.543275 0.356488 0.0921337 1 -1 1 
8784 5 0.867782 0.382844 0.0608263 -1 1 -2 
6415 6 0.815038 0.442972 0.0986718 0 -3 2 
7887 6 0.631779 0.444398 0.10347 2 4 -3 
6428 6 0.872823 0.463932 0.0887725 1 2 -4 
6179 5 0.0904256 0.441309 0.0711385 1 4 5 
5567 5 0.828476 0.530371 0.0954337 4 0 -2 
7972 5 0.120013 0.533712 0.0942424 -4 6 -3 
7378 6 0.140642 0.530915 0.0510874 1 -2 -4 
8504 5 0.634725 0.507043 0.0729172 0 -2 2 
5335 5 0.682779 0.525239 0.0688187 -2 4 -5 
6220 5 0.0110403 0.544186 0.0602199 0 1 -2 
6574 6 0.922992 0.608743 0.0449867 -3 -1 -2 
8266 6 0.924309 0.545289 0.0845076 -1 -3 -4 
7654 5 0.180295 0.592061 0.0875572 2 0 0 
8645 5 0.17423 0.584398 0.0688198 1 -2 -3 
7222 6 0.86716 0.631065 0.0902676 -1 2 5 
8982 6 0.846626 0.616281 0.0884981 7 -6 3 
8347 5 0.0319289 0.639869 0.0626938 -1 -4 1 
7843 5 0.187519 0.646172 0.0898645 1 0 0 
8539 5 0.772635 0.657413 0.0941971 -1 4 3 
5598 6 0.00431112 0.690315 0.0821819 -3 4 0 
6802 5 0.226206 0.743299 0.0437371 1 4 0 
7070 6 0.733082 0.749868 0.107719 -3 -5 -2 
8002 6 0.873711 0.692016 0.0778223 3 5 0 
7853 6 0.835316 0.74337 0.108234 0 -2 1 
8071 6 0.0756454 0.712634 0.0619779 -2 -6 6 
6689 5 0.178814 0.734405 0.116562 2 0 6 
6155 5 0.246318 0.738595 0.0874714 -4 -4 0 
5177 6 0.768482 0.733606 0.0835918 1 -2 1 
6595 5 0.50203 0.764871 0.094762 -1 -4 5 
8462 5 0.269339 0.803316 0.105509 -2 -2 0 
8118 6 0.36605 0.844719 0.0754591 5 -3 2 
7437 6 0.366153 0.77066 0.0939602 -1 -4 2 
6049 5 0.611443 0.83832 0.0576867 4 -1 -4 
6071 6 0.859408 0.782683 0.0836399 0 -2 1 
7701 6 0.64078 0.840924 0.064764 -2 1 2 
8546 6 0.888826 0.84631 0.0576422 4 4 2 
7914 6 0.145267 0.861316 0.0704131 -1 3 1 
8897 6 0.137932 0.85171 0.0704228 -3 -1 3 
6231 6 0.272157 0.897674 0.102835 -1 -1 0 
8140 5 0.821359 0.828941 0.0969802 -4 -1 5 
6977 5 0.852497 0.936333 0.067956 -2 -3 3 
5376 6 0.587204 0.915287 0.102932 -4 3 0 
5440 6 0.253711 0.93048 0.0394561 2 3 7 
8541 5 0.310796 0.932919 0.0835529 2 1 3 
8046 6 0.457928 0.952879 0.100146 5 -2 8 
7293 5 0.726677 0.948565 0.0654027 -3 0 -1 
8944 6 0.254128 0.000753598 0.0612661 0 1 -1 
5518 5 0.342685 0.927581 0.105083 3 1 2 
5209 5 0.749605 0.94415 0.0706832 -2 5 0 
7248 6 0.147725 0.970607 0.0704777 -2 -5 -3 
8530 6 0.0830596 0.0024528 0.12737 -2 1 0 
5894 6 0.778377 0.0403552 0.125126 -5 3 2 
8279 5 0.929941 0.0266098 0.0818709 -3 0 -6 
7763 5 0.972274 0.991177 0.115481 -3 0 0 
7311 6 0.388236 0.0731502 0.0954969 3 1 0 
6274 5 0.201129 0.0842049 0.0862922 0 2 9 
7065 6 0.676678 0.128152 0.0694883 -2 4 1 
7760 5 0.365927 0.138328 0.0825191 0 -2 -1 
8531 6 0.624139 0.111105 0.106271 1 -1 -3 
6799 5 0.934099 0.192749 0.0987313 1 -3 1 
7061 5 0.162275 0.181313 0.0749687 -1 -4 -1 
7492 6 0.415178 0.221133 0.0851115 4 3 2 
8685 5 0.655178 0.182411 0.0650693 2 3 -1 
7419 5 0.283196 0.249626 0.0906893 2 1 -2 
8773 6 0.355179 0.21996 0.107299 4 -1 3 
8155 5 0.536954 0.228734 0.115512 0 -1 2 
8864 6 0.531243 0.224004 0.102267 -2 1 6 
7109 6 0.687744 0.2284 0.124829 0 2 1 
6109 6 0.837312 0.236786 0.10904 0 -5 3 
5111 6 0.431572 0.275728 0.114855 0 1 0 
8994 6 0.846502 0.271078 0.10192 1 -2 -1 
6270 5 0.5267 0.298586 0.0944768 -1 -2 -5 
6637 5 0.874865 0.305633 0.0956463 3 0 -2 
6547 6 0.354196 0.341196 0.122106 -3 4 4 
7187 6 0.691144 0.335601 0.0502533 0 0 2 
5253 5 0.48644 0.368769 0.114171 -4 1 0 
5100 6 0.0247824 0.422429 0.0900426 2 -5 1 
8400 6 0.307103 0.418715 0.111061 0 1 -2 
6713 6 0.0110848 0.499196 0.102157 0 -2 -1 
7866 5 0.0318794 0.469401 0.122772 0 -8 -2 
5127 5 0.71489 0.436111 0.0938065 -1 0 -5 
6889 6 0.999298 0.443709 0.140944 1 -3 -2 
7232 5 0.421962 0.487615 0.109272 2 2 2 
8168 6 0.816755 0.536677 0.107362 -2 6 5 
6406 6 0.474477 0.529996 0.0915929 0 -1 4 
5321 6 0.312617 0.528032 0.099474 4 1 2 
7186 5 0.586001 0.581882 0.0966888 4 3 -1 
7153 6 0.826994 0.543171 0.1395 0 3 -1 
7217 5 0.366343 0.589929 0.0908037 3 -4 0 
6969 5 0.421476 0.593089 0.0995763 3 2 0 
6465 5 0.3009 0.593908 0.102142 1 0 3 
8649 6 0.406821 0.599815 0.108117 2 1 1 
8121 6 0.946319 0.562986 0.136892 -2 -1 1 
6209 6 0.0915788 0.613461 0.0694941 7 1 0 
8592 6 0.120558 0.642761 0.135735 5 -4 1 
5313 5 0.152849 0.611237 0.102547 0 -5 -1 
6216 6 0.422914 0.633261 0.0930752 -2 3 5 
5844 6 0.293886 0.674985 0.084249 0 1 -3 
8250 6 0.187435 0.644137 0.114256 -4 2 -2 
6552 6 0.669105 0.722266 0.106527 2 -4 2 
5339 5 0.0125951 0.699325 0.0820497 0 -1 2 
8329 6 0.590765 0.730302 0.108866 3 -1 2 
5746 5 0.703843 0.683042 0.0999377 -7 1 1 
5811 5 0.388436 0.728154 0.133857 0 1 0 
7646 6 0.127993 0.767478 0.099332 -8 4 2 
6791 6 0.871093 0.782931 0.120852 -6 2 2 
8701 5 0.216551 0.803067 0.0943867 -2 -1 0 
5917 6 0.759558 0.784562 0.0934224 4 2 -5 
6196 5 0.782007 0.750386 0.0955203 1 3 -3 
8450 6 0.857627 0.80932 0.0939346 1 -1 -3 
5032 5 0.0551189 0.801894 0.0761107 1 3 -8 
7314 6 0.421255 0.811031 0.119946 1 0 1 
6546 6 0.646222 0.876993 0.114722 -1 0 0 
7466 5 0.205706 0.824626 0.0988056 0 -7 0 
7111 5 0.262498 0.835552 0.0740108 1 -1 4 
6004 5 0.513506 0.821411 0.112387 -3 -4 3 
7723 5 0.789479 0.910772 0.094966 2 2 1 
8556 5 0.23593 0.932409 0.0978355 2 2 0 
7434 6 0.231286 0.948201 0.107542 7 -3 -2 
7925 5 0.441598 0.896137 0.113081 -5 -6 -5 
8705 6 0.121052 0.965239 0.0991223 -7 6 0 
5568 6 0.856167 0.988572 0.103112 1 -1 4 
5411 5 0.773619 0.059918 0.133766 0 1 2 
8980 6 0.43502 0.143722 0.153272 -3 4 -5 
7778 6 0.096783 0.10588 0.141563 0 6 -1 
5984 6 0.461711 0.0692621 0.141048 1 -1 -5 
8691 6 0.773334 0.131286 0.130668 1 1 9 
6517 6 0.266974 0.176472 0.171497 3 4 2 
5280 6 0.474787 0.178749 0.109107 0 1 3 
5670 5 0.625752 0.263179 0.128572 -1 0 5 
5398 6 0.860554 0.228685 0.131813 -5 5 0 
7244 5 0.0452978 0.269553 0.122704 2 6 1 
8385 5 0.0826906 0.269565 0.139364 3 0 2 
7208 5 0.175959 0.24575 0.125732 3 1 0 
5679 6 0.026139 0.321492 0.151682 4 -3 4 
7225 5 0.128622 0.286865 0.0905496 -1 0 -2 
7630 5 0.66738 0.300721 0.0927255 -2 -3 -3 
6554 5 0.846503 0.299561 0.12669 -2 -3 1 
5728 6 0.872729 0.28781 0.119708 -1 -2 3 
6764 6 0.0464505 0.329299 0.143111 1 2 0 
8727 6 0.404982 0.369357 0.158312 1 -2 3 
6486 5 0.0276302 0.305709 0.118049 -1 -4 -3 
8448 6 0.296837 0.326884 0.0890957 0 0 -3 
6175 6 0.768721 0.31033 0.144638 -4 -3 4 
8716 6 0.918139 0.399431 0.112885 -2 -2 1 
5456 6 0.337159 0.39367 0.113396 1 -2 1 
8113 5 0.936726 0.405658 0.114979 2 0 -2 
8547 6 0.879976 0.447485 0.129965 -3 -4 -2 
6965 5 0.166296 0.412857 0.158967 0 -2 3 
5459 5 0.292487 0.455279 0.104396 6 0 2 
7485 6 0.332725 0.450443 0.125446 2 1 0 
7393 6 0.73139 0.423965 0.138425 1 -3 0 
7189 5 0.151611 0.450649 0.15445 -4 1 4 
7429 6 0.758328 0.5056 0.0898298 -8 1 0 
8543 5 0.965344 0.52835 0.112843 4 -1 0 
8830 6 0.864725 0.536573 0.104817 0 0 1 
5098 5 0.0403988 0.511156 0.137217 -5 2 1 
8010 5 0.250856 0.542512 0.117335 3 4 1 
6550 5 0.554281 0.523786 0.0822985 -1 6 -4 
8521 6 0.879053 0.522286 0.124039 -2 0 1 
5863 6 0.433829 0.543893 0.117492 -3 1 5 
7076 5 0.670842 0.546983 0.158791 -2 2 2 
6775 5 0.646455 0.544695 0.128995 1 0 6 
6418 6 0.721651 0.580112 0.101134 2 -4 4 
6455 6 0.65114 0.665395 0.127267 -6 3 -1 
6335 6 0.354831 0.707546 0.0661727 1 -2 1 
6146 6 0.896328 0.762671 0.121501 -3 -1 -2 
6489 6 0.368669 0.711227 0.113344 1 -7 2 
5357 6 0.439637 0.778663 0.143575 1 -3 9 
8389 5 0.498302 0.855105 0.106995 0 4 0 
5642 6 0.599493 0.818912 0.108677 3 -2 0 
6819 6 0.91278 0.825088 0.101922 -3 4 -1 
5208 6 0.149711 0.826562 0.149952 -2 -1 -1 
7470 5 0.192771 0.844636 0.114653 2 -2 2 
5651 6 0.764142 0.878719 0.146908 3 2 1 
6508 5 0.925324 0.893573 0.10171 0 -2 -2 
8488 5 0.920653 0.902089 0.128543 -3 4 -3 
5946 6 0.602409 0.856259 0.139047 0 1 -10 
6797 5 0.0381249 0.945689 0.108279 1 0 0 
6921 5 0.512585 0.963324 0.0892907 0 -3 1 
7877 5 0.505498 0.929498 0.127394 1 -6 0 
6208 5 0.777785 0.911368 0.160952 0 2 -9 
7295 6 0.118827 0.928568 0.143515 4 0 4 
7138 6 0.797544 0.967784 0.131065 -4 0 -5 
7396 5 0.492223 0.962206 0.146046 1 -1 3 
7464 5 0.801085 0.976829 0.107076 -1 0 3 
8544 5 0.839904 0.000270747 0.130203 -8 1 -2 
7605 5 0.15948 0.0514672 0.136473 0 2 3 
7749 5 0.279718 0.980957 0.147583 1 -1 1 
8965 6 0.849609 0.01787 0.162136 -4 1 -2 
7239 5 0.181864 0.0362843 0.137981 0 -1 1 
7896 5 0.384578 0.039918 0.137452 2 -2 -1 
7950 6 0.625484 0.0181043 0.150887 3 -2 2 
6673 6 0.362259 0.0534053 0.145185 8 -2 0 
6015 6 0.586006 0.0612295 0.117482 0 -2 -4 
7820 5 0.705212 0.0756486 0.152418 -1 3 -2 
7333 5 0.850315 0.117737 0.162039 -2 0 -3 
7578 6 0.041347 0.0904086 0.15637 3 0 4 
8286 6 0.589094 0.125976 0.127246 -4 -1 0 
6309 5 0.708898 0.116727 0.149675 0 -3 0 
8475 6 0.831553 0.129691 0.14544 1 0 1 
6072 5 0.753529 0.142272 0.154704 -1 4 -3 
5593 6 0.000914584 0.120001 0.17911 -5 3 -1 
5879 6 0.237241 0.150925 0.142299 1 1 8 
6136 5 0.0255374 0.179421 0.160223 5 -3 1 
8670 6 0.169337 0.188332 0.138323 -1 0 -4 
7854 5 0.464511 0.167316 0.150443 -1 -2 2 
7227 6 0.75858 0.219228 0.186938 0 -2 5 
7767 5 0.487077 0.200857 0.18365 5 -2 -4 
5344 5 0.876611 0.20492 0.149784 1 -6 0 
6238 6 0.0121032 0.194954 0.152112 1 -3 4 
8986 6 0.479802 0.303699 0.121842 3 1 0 
5387 5 0.506433 0.271119 0.160024 -3 0 3 
5929 6 0.86597 0.298019 0.134202 0 7 -7 
8838 5 0.040782 0.303161 0.140042 0 -2 2 
8764 6 0.0147651 0.305502 0.156212 0 1 3 
8372 6 0.0602391 0.315887 0.153609 -4 -2 1 
8386 6 0.90035 0.346097 0.139697 -1 2 1 
6576 6 0.90802 0.380242 0.104837 -3 -2 -3 
5896 6 0.0577669 0.350923 0.142577 2 -1 -1 
8761 6 0.316088 0.353581 0.172254 2 5 -2 
5329 6 0.508702 0.423052 0.170071 1 -1 2 
5708 5 0.73896 0.427504 0.145916 5 -3 4 
8036 6 0.985288 0.396194 0.149778 -2 -1 2 
8829 6 0.894934 0.42061 0.150183 1 -6 -2 
5103 5 0.264344 0.402032 0.159595 2 -3 -2 
5120 6 0.41558 0.417502 0.147656 0 0 0 
6383 6 0.729942 0.435199 0.185863 -2 -2 5 
5233 6 0.744497 0.483148 0.125063 2 -3 2 
7020 6 0.11393 0.522678 0.193791 -3 1 2 
5271 5 0.172976 0.489274 0.133204 5 6 1 
5678 6 0.152506 0.488216 0.12723 0 1 -1 
6937 6 0.649038 0.517238 0.160279 1 0 0 
8698 6 0.278223 0.48611 0.149875 -2 2 -2 
5919 5 0.668052 0.511821 0.128562 -1 2 1 
8607 6 0.0420962 0.587901 0.16306 4 -2 0 
7118 5 0.936242 0.626707 0.170023 -2 -1 0 
7009 5 0.0775978 0.584705 0.127291 1 4 -1 
7361 5 0.18525 0.610669 0.11452 3 2 0 
7310 6 0.313162 0.566662 0.167394 -5 4 -4 
6779 6 0.755843 0.579182 0.167033 6 2 2 
5977 6 0.137768 0.657218 0.144003 -3 1 2 
5418 5 0.860833 0.621556 0.130784 1 3 1 
7369 5 0.742365 0.653472 0.144232 -3 -8 0 
7710 6 0.23541 0.752681 0.14697 2 -7 -2 
7788 6 0.277834 0.732168 0.152958 -1 0 5 
5540 5 0.444957 0.69144 0.101579 -2 -7 -4 
7935 5 0.954605 0.697542 0.166215 -2 -1 -1 
8314 6 0.992067 0.726856 0.1439 -2 -1 5 
7960 6 0.47105 0.720268 0.131582 -5 1 0 
8100 6 0.850762 0.707794 0.130411 4 -2 3 
8436 5 0.518011 0.757868 0.123741 1 2 -4 
6421 5 0.677534 0.786574 0.143871 3 -4 2 
8621 6 0.0295097 0.81488 0.152312 5 -3 0 
5825 5 0.503627 0.789281 0.137741 2 -1 -2 
8591 6 0.967618 0.792096 0.163357 -5 1 -1 
5637 6 0.49524 0.854703 0.163537 0 -1 2 
8045 6 0.810829 0.869417 0.117569 -1 -10 -1 
8130 6 0.14745 0.897776 0.126814 -2 0 2 
6098 6 0.313242 0.866159 0.173799 2 -6 -1 
5890 6 0.139045 0.904868 0.115892 1 -2 3 
8388 6 0.374657 0.920304 0.142793 2 1 -1 
6338 5 0.441989 0.905269 0.168737 0 -2 5 
8465 5 0.0531358 0.967267 0.163444 3 0 4 
6706 6 0.512334 0.0285564 0.152187 0 -4 2 
6462 6 0.820891 0.023357 0.16266 -3 -1 2 
5865 5 0.91003 0.984319 0.183194 0 -1 1 
8277 5 0.890158 0.0343753 0.220923 -3 2 -3 
8515 6 0.177473 0.00765746 0.170885 -2 4 -2 
7043 6 0.373634 0.0849458 0.172757 1 0 -2 
6698 5 0.0791513 0.151016 0.159722 6 1 1 
8836 5 0.426244 0.10181 0.178524 2 2 0 
7608 6 0.414107 0.104361 0.167326 -3 3 2 
7008 6 0.332138 0.136384 0.184124 -4 3 -1 
6412 6 0.916237 0.166363 0.179714 -1 1 3 
7526 5 0.60575 0.186239 0.134082 4 1 -2 
8619 6 0.150785 0.258045 0.151879 0 -1 0 
6880 6 0.250132 0.25884 0.171557 -2 4 -1 
6639 6 0.380817 0.294379 0.154407 -1 -4 4 
7415 6 0.25701 0.325403 0.17461 1 -6 4 
6150 6 0.0511155 0.361712 0.195872 1 -1 -4 
6266 5 0.103192 0.316958 0.159922 -6 2 -2 
5276 5 0.395014 0.365978 0.152789 2 2 2 
7598 6 0.99922 0.355274 0.141542 1 1 -1 
6230 6 0.646306 0.39005 0.14245 3 3 1 
7795 5 0.599878 0.432812 0.139543 -3 -4 -1 
5724 6 0.55708 0.389832 0.187984 -3 -1 0 
8356 6 0.690504 0.465024 0.16975 -3 2 -1 
7731 5 0.340394 0.501632 0.163243 -4 3 4 
5406 6 0.619549 0.517253 0.137577 0 4 -7 
5206 6 0.670713 0.549497 0.185936 2 2 1 
6405 6 0.477725 0.625433 0.127503 -1 1 4 
5183 5 0.754445 0.625195 0.185163 2 4 2 
7101 6 0.785513 0.58026 0.189422 0 3 2 
6654 6 0.971462 0.594338 0.127476 -3 0 4 
6103 5 0.983529 0.668261 0.198141 -4 1 -4 
8312 6 0.504688 0.597401 0.178508 -3 -3 -1 
5486 6 0.242818 0.649867 0.155529 -2 -2 1 
7023 6 0.393276 0.646758 0.160166 1 0 -1 
8284 5 0.727968 0.668945 0.167971 2 -7 3 
8044 5 0.132026 0.637933 0.168411 3 3 -1 
7007 5 0.558158 0.640061 0.193249 -2 4 2 
6918 6 0.246813 0.703809 0.159369 1 1 0 
5836 6 0.757351 0.751576 0.173428 0 4 4 
6187 5 0.0215935 0.764212 0.188751 -4 -4 -1 
8461 5 0.38836 0.743126 0.161055 4 -4 -3 
8908 5 0.566137 0.787342 0.171256 -3 -3 4 
6699 5 0.883564 0.784139 0.206434 -3 1 -1 
8534 5 0.881409 0.80719 0.176037 -1 2 -1 
5385 6 0.054156 0.825056 0.182153 -2 -5 2 
7049 6 0.194493 0.80031 0.163671 2 2 5 
6499 6 0.375865 0.901041 0.138204 2 4 5 
6839 5 0.42176 0.851149 0.171884 -1 -2 -1 
7708 5 0.657637 0.873262 0.15373 1 -4 -1 
8177 6 0.80599 0.859915 0.160525 1 0 6 
6458 5 0.342558 0.870704 0.160388 -1 0 2 
5721 6 0.151325 0.951971 0.151032 -2 -2 -1 
6986 5 0.471945 0.917066 0.179929 -3 -3 3 
5814 5 0.786956 0.905231 0.188455 -3 2 -2 
7924 6 0.0429711 0.944302 0.163302 2 -2 0 
8253 6 0.720106 0.934547 0.197173 0 -1 -2 
7089 5 0.0557723 0.98398 0.152733 -4 1 -4 
5030 5 0.222963 0.966497 0.157957 -3 4 -3 
5146 5 0.544228 0.995981 0.148362 3 2 0 
8903 5 0.779229 0.954056 0.155045 -6 -2 0 
8782 6 0.756872 0.979972 0.174605 3 1 1 
6377 5 0.334309 0.0133112 0.207074 2 -6 0 
6675 6 0.522417 0.0703556 0.181146 -1 -5 2 
5325 6 0.0541415 0.0829565 0.167564 -4 -3 1 
5683 6 0.690376 0.0820739 0.214774 -3 1 2 
8788 6 0.8989 0.0226982 0.196475 -4 -1 2 
7413 6 0.289558 0.0786042 0.184358 7 -3 1 
8843 5 0.941894 0.142597 0.1802 -2 -1 1 
8470 6 0.769018 0.140866 0.161545 -4 3 5 
7476 5 0.75611 0.15221 0.23454 -4 -2 -1 
5509 5 0.900008 0.129097 0.174587 -2 -1 -4 
8758 6 0.328489 0.139405 0.218938 1 0 -4 
6893 5 0.512644 0.131222 0.200667 -2 -1 -1 
6960 6 0.0786769 0.140409 0.22212 4 2 -2 
5892 5 0.152606 0.149825 0.199862 1 -1 3 
5056 6 0.779576 0.240566 0.209787 1 4 5 
7862 6 0.226748 0.232594 0.229649 3 -1 0 
6443 6 0.486645 0.239979 0.21833 2 -1 1 
6542 6 0.590105 0.219765 0.23721 -2 1 -1 
6528 6 0.171472 0.260878 0.190977 -6 7 -3 
7340 6 0.618363 0.265974 0.229184 -1 -3 5 
7198 6 0.134566 0.271218 0.235413 2 1 -1 
7441 6 0.372218 0.279724 0.19149 0 1 -2 
6559 6 0.692454 0.302488 0.215422 1 7 -3 
5050 6 0.851855 0.30314 0.172734 -3 -3 6 
8432 6 0.0192234 0.334397 0.230409 -1 0 0 
8637 5 0.0501439 0.316654 0.170234 3 -5 -3 
7589 6 0.572477 0.32774 0.224561 -3 -3 -4 
6235 6 0.139109 0.365556 0.221992 2 -4 0 
5989 5 0.533178 0.391199 0.210344 7 2 3 
8928 5 0.533862 0.395746 0.1976 -2 -7 -3 
6057 5 0.803135 0.404579 0.187644 -2 -3 0 
8713 6 0.318327 0.385047 0.178095 -2 3 -2 
5901 5 0.710059 0.403024 0.170519 4 -2 -2 
8199 5 0.410035 0.403712 0.221884 5 -2 1 
5492 6 0.479086 0.441455 0.18347 -3 -4 -1 
6485 6 0.765687 0.412268 0.195362 0 -1 -1 
8169 6 0.22124 0.422377 0.219223 -5 -1 1 
7870 5 0.371454 0.451935 0.21583 -2 -5 -1 
6994 5 0.448153 0.431532 0.189008 -1 -2 0 
8062 5 0.0653952 0.488282 0.173708 -1 3 4 
8969 6 0.13004 0.490978 0.212946 1 1 0 
6141 6 0.18549 0.488498 0.170153 4 6 2 
7039 5 0.842778 0.445736 0.20321 -3 2 3 
7705 6 0.558927 0.49018 0.231463 -1 3 -3 
6310 5 0.621381 0.490484 0.189354 7 -5 1 
6367 5 0.111429 0.547129 0.157075 -1 0 2 
5738 6 0.469867 0.581417 0.188874 -1 -4 -3 
8505 6 0.931158 0.526334 0.209311 -2 -3 -4 
7026 5 0.773354 0.601319 0.172531 2 -1 -4 
7640 6 0.789059 0.610689 0.198905 0 -2 2 
6796 6 0.486194 0.63274 0.214802 -2 -1 0 
8384 6 0.372097 0.606242 0.184947 -1 -3 2 
5149 6 0.0419249 0.631604 0.195583 -4 1 5 
5277 6 0.26541 0.675238 0.199561 -2 -4 2 
7561 6 0.741169 0.678964 0.189326 -2 -1 -3 
6404 6 0.843353 0.708979 0.185577 3 -3 -2 
5296 5 0.845175 0.660456 0.19528 6 2 2 
7962 6 0.343431 0.70103 0.214097 -4 3 5 
6466 5 0.32815 0.659025 0.186463 -3 -1 2 
6596 6 0.730873 0.691619 0.179152 -1 -1 1 
8744 6 0.842063 0.675348 0.189546 -3 -1 2 
7898 6 0.0589157 0.727143 0.217779 4 1 6 
5407 6 0.981597 0.692706 0.192322 2 1 -1 
6920 6 0.201877 0.814742 0.228117 3 3 -1 
6102 6 0.274378 0.778918 0.150097 0 0 -3 
7670 6 0.275616 0.777622 0.178643 1 5 -2 
8200 6 0.485746 0.739756 0.217946 -1 -5 -1 
7027 5 0.682155 0.800472 0.197417 0 -1 -1 
6358 6 0.952984 0.783269 0.173745 -2 2 -4 
5953 5 0.16117 0.812787 0.210509 -4 -1 -3 
8905 5 0.911317 0.771528 0.198668 -5 1 -1 
8025 6 0.0341467 0.817554 0.202444 2 2 -1 
7988 6 0.471133 0.847602 0.161687 0 -6 3 
5877 5 0.995182 0.86664 0.20471 -1 2 -3 
5363 6 0.176404 0.886925 0.169905 -1 0 -4 
6650 5 0.301904 0.909283 0.176038 0 1 -1 
5499 6 0.64515 0.883785 0.200503 -1 -1 7 
7331 5 0.814942 0.922319 0.189839 -4 -3 2 
5013 6 0.937987 0.878533 0.205661 -1 -3 0 
8231 6 0.213655 0.905598 0.156409 1 2 3 
6838 6 0.356118 0.909638 0.22449 -2 1 -3 
7218 6 0.386622 0.907945 0.210593 -2 1 0 
6895 6 0.425808 0.884345 0.170985 0 3 -2 
6866 5 0.535633 0.924084 0.250246 -1 0 3 
8447 5 0.147334 0.956498 0.215835 0 -1 -5 
6297 5 0.858887 0.0099384 0.216072 -2 -4 -2 
7591 6 0.913669 0.992774 0.198247 2 -5 -3 
5401 5 0.107865 0.0125454 0.233151 0 -4 -1 
5239 5 0.0957052 0.0615619 0.203574 -3 -3 -3 
5311 6 0.176406 0.0829946 0.178038 2 2 1 
5448 6 0.431089 0.0617334 0.214502 2 -3 1 
6350 6 0.185132 0.0831251 0.252029 -2 -3 1 
5952 6 0.733595 0.0586225 0.242309 -1 3 -3 
8363 6 0.89264 0.0556509 0.230754 -4 3 1 
8884 6 0.184251 0.0823717 0.207681 -3 -1 6 
5718 5 0.226831 0.0894076 0.179823 3 6 1 
6631 5 0.790057 0.0711187 0.2244 2 5 0 
5449 5 0.0707607 0.111445 0.226982 2 4 -2 
7095 6 0.944373 0.105422 0.182626 3 1 -3 
7279 5 0.363541 0.109027 0.217717 3 -1 0 
7945 6 0.499507 0.197592 0.214702 -3 -1 1 
5521 6 0.820554 0.146904 0.242867 1 -2 2 
5343 6 0.861092 0.156142 0.230755 -2 -4 0 
6060 6 0.856047 0.171365 0.252758 -1 0 3 