ITEM: TIMESTEP
20000000
ITEM: NUMBER OF ATOMS
9000
ITEM: BOX BOUNDS pp pp pp
-75 75
-75 75
-75 75
ITEM: ATOMS id type xs ys zs ix iy iz 
5161 5 0.0906484 0.0254943 0.0547546 -4 2 -3 
5826 5 0.292882 0.962209 0.0050022 4 -3 1 
8484 6 0.855742 0.0363604 0.975603 2 -3 4 
8424 6 0.107534 0.0384148 0.00517921 1 1 3 
7606 5 0.169702 0.026431 0.019614 -3 -1 3 
6901 5 0.268815 0.0547225 0.00687447 -5 4 -3 
8250 5 0.63126 0.99043 0.00733635 -2 0 2 
5504 5 0.166271 0.0466826 0.00856752 3 -3 2 
7940 5 0.141363 0.0852675 0.0173567 2 1 -1 
5496 6 0.334214 0.084954 0.0378211 8 0 6 
8241 6 0.412404 0.0835538 0.0249571 -4 -3 -2 
7160 6 0.52794 0.092784 0.0380756 -2 2 3 
7977 5 0.445079 0.108046 0.0613237 -2 2 -4 
6529 6 0.664243 0.182816 0.998531 -1 2 -4 
6521 5 0.010477 0.105302 0.988183 2 3 -2 
6560 6 0.990363 0.175019 0.978576 -1 0 3 
8283 6 0.887598 0.144029 0.963402 -2 -3 0 
7126 5 0.740204 0.206054 0.0260057 -1 4 2 
7811 5 0.857553 0.176957 0.0220883 -4 2 -1 
7652 5 0.490983 0.177279 0.0138142 2 1 -1 
5443 5 0.471537 0.225055 0.0109976 3 -3 0 
5273 6 0.921887 0.241498 0.969214 0 -7 1 
6280 6 0.276221 0.251574 0.988559 0 -5 4 
6220 6 0.193953 0.210105 0.01568 2 0 2 
8867 6 0.620609 0.217507 0.0168374 3 -4 -4 
6860 5 0.827748 0.23361 0.028722 -4 1 0 
8235 5 0.956792 0.251136 1.00119 -5 3 5 
7178 5 0.229786 0.260143 0.981175 4 -1 0 
6129 6 0.286954 0.246341 0.0102884 6 0 1 
6530 6 0.0576315 0.324282 0.0173465 -5 3 -1 
8163 5 0.861063 0.314583 1.00069 -2 1 -6 
5846 5 0.0184694 0.337015 0.994141 3 5 -1 
7399 5 0.0193313 0.378608 0.00947422 2 -2 3 
6834 5 0.295723 0.35989 0.976494 3 0 -5 
6483 5 0.358705 0.343636 0.00991505 1 2 -1 
6335 5 0.47004 0.400813 0.06187 0 -3 0 
5213 6 0.487233 0.34289 0.962944 3 2 0 
8324 5 0.771032 0.397338 0.0229461 7 -1 5 
6731 6 0.258987 0.382084 0.0282876 2 0 3 
7380 5 0.658037 0.384246 1.00154 1 1 1 
5614 6 0.742287 0.405566 0.98985 -4 4 0 
5014 6 0.363875 0.529635 0.007889 -3 5 1 
6665 6 0.923198 0.502177 0.0647875 -1 5 4 
5221 5 0.609288 0.513458 0.959236 -3 2 -1 
5375 5 0.298557 0.598578 0.0140766 -1 -5 0 
8572 5 0.818487 0.578271 0.0294215 5 -1 3 
5248 5 0.480328 0.651768 0.990275 0 3 2 
5049 5 0.365924 0.627241 1.00113 2 -1 -1 
7246 6 0.579268 0.637555 0.0296861 3 -3 5 
5541 6 0.575145 0.655238 0.0187805 -1 -1 -1 
8644 6 0.635721 0.714792 0.00412744 0 -5 2 
5087 6 0.378637 0.666068 0.996686 1 -1 1 
8590 5 0.505812 0.688604 0.0496032 -3 0 3 
7129 5 0.0577468 0.727006 0.996823 3 -3 -2 
7857 6 0.273804 0.716473 0.995777 -1 -1 3 
6778 6 0.777057 0.740962 0.0607286 2 -1 2 
6307 5 0.118311 0.814348 0.972065 -1 -3 3 
7478 5 0.244645 0.77583 0.989422 -2 1 -3 
5506 5 0.351633 0.798599 0.034071 -2 1 1 
6937 5 0.45649 0.828319 0.0211091 0 1 5 
8311 6 0.663783 0.765796 0.995924 0 -2 -2 
7487 6 0.84639 0.776123 0.0341969 5 1 2 
6193 5 0.869665 0.805221 0.010983 -1 1 -1 
6286 5 0.0904724 0.805628 0.0111452 -1 3 2 
5253 6 0.831242 0.793118 0.984576 -2 -5 -2 
7488 6 0.889079 0.764014 0.00555111 1 0 2 
6258 6 0.997038 0.777871 0.984844 -1 2 -3 
7710 6 0.966479 0.890575 0.00457958 3 -1 -2 
7391 5 0.3547 0.923166 0.993636 1 0 3 
5291 5 0.504504 0.896395 0.0673646 -3 2 -2 
6054 5 0.0106161 0.990833 0.0619424 1 -3 -1 
7425 6 0.553427 0.987029 0.0432134 -5 -5 1 
5125 6 0.438186 0.038226 0.00910729 1 -6 -1 
6805 6 0.449278 0.954205 0.0146525 -1 -2 -3 
8298 6 0.0565415 0.0382276 0.0270101 0 3 3 
8478 5 0.180077 0.989277 0.0349927 2 -5 6 
6611 5 0.218289 0.995664 0.0392137 -4 -7 -7 
5189 5 0.520955 -0.000626973 0.0194815 4 1 -2 
8686 6 0.731024 0.00962468 0.0930607 -1 1 -1 
6244 6 0.825816 0.0220673 0.0279733 2 -4 -3 
8927 6 0.182371 0.0161361 0.00323224 -3 0 2 
8965 6 0.304842 0.048605 0.0523641 0 -3 -1 
5600 6 0.764304 0.976411 0.0107201 0 1 2 
8930 6 0.517547 0.0600752 0.0760955 -2 2 2 
5027 5 0.812088 0.0986593 0.0422252 0 -3 3 
5007 6 0.354985 0.0923762 0.04039 0 0 2 
8604 6 0.993813 0.117089 0.0554752 0 0 1 
8680 6 0.152501 0.135544 0.0338546 -1 -4 -1 
5009 5 0.372519 0.111604 0.0152134 -2 1 -1 
8315 6 0.73398 0.0756953 0.0645005 3 9 4 
8351 6 0.447538 0.168221 0.0464728 -4 -2 0 
5200 5 0.559849 0.139648 0.0435649 -4 -5 3 
6741 5 0.296463 0.182986 0.0482359 -1 -3 -5 
8033 6 0.486802 0.152837 0.0550236 -5 -3 4 
5437 5 0.240041 0.202183 0.0793642 3 -3 0 
8666 5 0.571741 0.214716 0.0357881 0 1 3 
7394 5 0.0371347 0.269158 0.0430648 4 -2 -2 
5254 6 0.64652 0.304299 0.0149175 -3 4 0 
5070 6 0.186359 0.311441 0.0379172 0 -1 -2 
8910 5 0.453076 0.344073 0.0182115 2 0 -2 
6498 6 0.00669171 0.327228 0.0284584 1 0 -5 
6546 5 0.0897533 0.313095 0.0245068 -1 3 -1 
8530 5 0.204971 0.381132 0.00921652 0 -1 -2 
5153 5 0.575432 0.32707 0.0596359 2 1 3 
5165 6 0.752571 0.314656 0.0214808 2 2 2 
7667 6 0.419366 0.362924 0.0948758 0 -5 -2 
6199 6 0.564315 0.392768 0.0316024 -1 1 1 
6821 5 0.216507 0.366719 0.0639581 0 2 -2 
7790 6 0.229529 0.397602 0.0227395 3 1 0 
5631 6 0.927288 0.423198 0.00985673 1 3 3 
7776 5 0.108611 0.465859 0.0446358 -2 0 -1 
6439 6 0.197028 0.497054 0.0695653 5 2 -2 
8922 6 0.280817 0.473637 0.0478634 -3 0 -5 
6056 6 0.865291 0.497974 0.0256419 1 3 2 
7312 6 0.010163 0.499473 0.0433626 2 0 1 
5597 5 0.636772 0.545893 0.00258215 3 -5 0 
8692 6 0.669286 0.52882 0.00922605 -1 -3 1 
5040 6 0.0083409 0.580938 0.000237707 -1 0 -1 
7506 6 0.791499 0.615833 0.0519453 3 -1 -2 
6523 5 0.676078 0.63405 0.0054586 7 3 -3 
5069 5 0.698833 0.636255 0.0330671 -6 0 -1 
7248 6 0.148516 0.636788 0.0331785 0 4 -5 
6767 5 0.298609 0.732259 0.0302622 -2 3 -1 
7280 5 0.6313 0.684068 0.0560291 1 2 -2 
6991 6 0.917145 0.68316 0.0841209 -1 -2 -3 
7422 5 0.510425 0.747993 0.0311816 -1 -4 3 
5035 6 0.975971 0.685469 0.0331442 -3 -7 -6 
5462 6 0.192699 0.734144 0.0292885 4 -5 1 
6647 6 0.556454 0.75805 0.0414712 0 -1 3 
5460 6 0.713984 0.740617 0.0423305 -1 3 -2 
6610 5 0.260357 0.775082 0.996478 3 5 -3 
7018 6 0.312727 0.727326 0.0279823 -1 -1 1 
6479 6 0.320881 0.792229 0.0246744 -3 1 0 
5829 5 0.818454 0.754391 0.0258898 0 0 -2 
8178 5 0.908108 0.765637 0.0471276 -1 1 0 
8837 6 0.222472 0.760061 0.0155941 0 -4 -3 
6219 6 0.758215 0.800733 0.0404743 0 2 3 
8903 5 0.910161 0.857798 0.0719404 2 -6 -3 
6902 6 0.122066 0.843033 0.0244357 1 1 -3 
8796 5 0.338935 0.842143 0.00250492 -1 1 -2 
5353 5 0.3004 0.826854 0.026456 1 0 -1 
7139 6 0.727822 0.877791 7.18281e-05 -1 -2 0 
7064 6 0.251249 0.905103 0.00750555 0 -3 4 
7884 6 0.275885 0.86212 0.0541196 0 -3 -2 
7413 5 0.522363 0.887656 0.0163009 -1 -5 3 
7258 5 0.994744 0.921868 0.0905284 0 -2 0 
6108 6 0.768722 0.919607 0.0587931 -2 -1 -5 
7576 5 0.0167821 0.980998 0.0187723 -2 3 1 
7921 6 0.53935 0.986681 0.0289503 3 -1 1 
6289 5 0.551003 0.940701 0.0463384 -5 0 3 
7542 6 0.0876101 0.971965 0.0225999 0 0 0 
7671 6 0.180311 0.979916 0.0557439 -4 3 -3 
7840 6 0.198837 0.95069 0.0222516 -1 -5 -10 
7296 6 0.486685 0.95831 0.0537902 0 0 1 
6504 5 0.825096 0.0355061 0.0437729 -3 -1 2 
7982 6 0.997093 0.0124978 0.0224983 0 -1 -2 
7430 5 0.0336867 0.982234 0.0228356 2 -5 -4 
6564 6 0.905157 0.0178504 0.0670434 -2 1 -5 
7965 6 0.689666 0.01064 0.115943 2 -1 3 
7230 6 0.126163 0.0451962 0.0736273 0 0 3 
6313 5 0.703229 0.0362082 0.0719758 2 -1 0 
6350 6 0.971824 0.101648 0.0532139 -3 1 -1 
6921 5 0.401327 0.0761941 0.0411203 -2 1 -1 
6357 5 0.480467 0.0787608 0.0412646 -9 -2 4 
7519 6 0.487512 0.104345 0.0490954 -2 -1 0 
5749 5 0.480161 0.134704 0.0608444 0 -1 -3 
5658 6 0.744599 0.157888 0.064535 1 -2 -5 
8850 6 0.829776 0.0845033 0.0840625 4 -4 6 
7462 6 0.896434 0.103328 0.0913577 1 -3 0 
8342 5 0.0109979 0.119136 0.0894667 0 0 -1 
5813 6 0.518614 0.149809 0.0411854 -1 -1 4 
8259 5 0.567445 0.134889 0.0414135 -2 0 -3 
8946 6 0.749546 0.132433 0.00730142 -1 1 -1 
7577 6 0.862148 0.134948 0.0792749 -2 0 0 
6583 6 0.872915 0.130888 0.0269674 -5 -4 -1 
5017 5 0.118264 0.130384 0.0584968 4 -2 7 
7034 5 0.176609 0.178345 0.0604997 -1 2 3 
6702 6 0.264178 0.204422 0.0452442 2 1 2 
7202 6 0.435739 0.187058 0.062988 3 4 0 
6951 5 0.299701 0.202439 0.0699435 1 -1 1 
6522 6 0.5128 0.233358 0.0581951 -3 2 -1 
6567 6 0.982738 0.212376 0.0603719 -2 5 -1 
7128 5 0.378979 0.210561 0.0611722 2 4 2 
5045 6 0.43271 0.324492 0.0143653 -2 2 3 
8610 6 0.916952 0.296837 0.0958071 -7 3 -3 
7828 6 0.178029 0.310553 0.0559434 -1 0 1 
8113 6 0.0422566 0.314015 0.119371 -6 1 0 
7479 5 0.0783884 0.31947 0.0472083 -4 -3 0 
5526 5 0.140608 0.310941 0.0220865 0 3 -1 
7891 6 0.615768 0.335846 0.0576924 -1 -4 1 
8039 6 0.752451 0.340919 0.0164766 2 -1 -4 
8464 5 0.226665 0.383588 0.081982 -7 -3 -1 
7451 5 0.532913 0.319577 0.0231538 -3 7 2 
7631 6 0.907486 0.388271 0.031561 -5 4 6 
7823 6 0.553051 0.434329 0.0628273 -1 0 -1 
5003 5 0.664099 0.38834 0.075319 -6 0 -2 
5058 6 0.227472 0.428158 0.0682572 4 -2 -1 
5312 5 0.423484 0.452641 0.0566023 -3 1 2 
8203 6 0.580432 0.429354 0.0642928 -2 3 1 
7016 5 0.718244 0.419788 0.0982866 2 1 4 
8265 5 0.824993 0.41608 0.0187905 1 -8 4 
7397 5 0.325245 0.489102 0.0522656 0 2 3 
7500 6 0.699791 0.435827 0.093241 0 -1 0 
6458 5 0.744405 0.474782 0.0846748 -4 2 -2 
7426 5 0.370878 0.504739 0.0766529 -3 -3 1 
7492 5 0.0275276 0.546194 0.0682998 2 4 -1 
8709 5 0.190089 0.528636 0.0602902 4 -2 -1 
5483 5 0.305554 0.457753 0.0579038 -1 -5 0 
5010 6 0.353631 0.535503 0.0604745 0 2 -2 
6130 5 0.316601 0.57531 0.0460409 -3 -3 7 
6463 6 0.431528 0.617549 0.0811356 0 0 5 
8798 5 0.399886 0.674674 0.0745934 4 2 0 
7058 6 0.350755 0.637488 0.058051 3 2 4 
8313 6 0.457474 0.67937 0.064757 2 -1 2 
5159 5 0.543174 0.641397 0.0230087 -1 -2 1 
7833 5 0.32856 0.622209 0.0672707 -1 0 -2 
7707 6 0.941992 0.64427 0.039339 -1 -2 3 
7048 5 0.585373 0.730029 0.0934831 0 -2 0 
6816 5 0.776602 0.745097 0.0781992 1 -2 -5 
5046 6 0.883319 0.755212 0.0365888 -2 -4 -5 
7386 5 0.0178025 0.747656 0.0525766 4 -6 -3 
7696 5 0.431979 0.754508 0.0883424 2 -2 -8 
7526 6 0.546615 0.763348 0.0637143 3 -2 -3 
7455 6 0.122093 0.765976 0.0505099 3 0 -1 
8497 6 0.901473 0.770119 0.0560748 5 -5 0 
6919 6 0.297424 0.792835 0.0445619 6 5 3 
8673 6 0.941146 0.80221 0.0634474 -5 3 -3 
5018 6 0.941937 0.802583 0.0399625 -2 3 4 
8076 5 0.950967 0.807507 0.062549 0 -4 2 
7078 5 0.587894 0.860577 0.0409102 -1 -1 1 
7046 5 0.595644 0.804247 0.101592 0 -2 5 
8373 6 0.641122 0.845301 0.0712413 -2 -1 0 
8496 6 0.758581 0.892998 0.0670552 3 5 -4 
5871 5 0.567116 0.874711 0.0383523 -2 1 3 
7083 6 0.387005 0.937596 0.0675449 -3 -1 1 
7719 6 0.708954 0.941492 0.0500202 2 -5 -1 
7196 5 0.825928 0.917553 0.0603087 5 -2 0 
8333 6 0.599285 0.92806 0.0686652 3 -1 0 
8037 6 0.532828 -7.11679e-05 0.082949 3 0 0 
5862 6 0.0183701 0.00339499 0.0401374 1 -3 1 
8724 6 0.462545 0.971009 0.0582756 0 -3 1 
8894 5 0.707897 0.99653 0.037611 2 -2 -2 
8023 6 0.774555 0.0340922 0.0719036 3 7 -6 
7530 6 0.0157858 0.00619708 0.0536706 1 0 5 
6256 6 0.350866 0.0126243 0.0773137 1 -3 -4 
7124 6 0.0241955 0.0562282 0.0851426 4 1 4 
5063 5 0.736284 0.00892039 0.0849221 1 2 -1 
7434 5 0.1534 0.0376977 0.0923835 -3 2 0 
7370 6 0.412227 0.0653195 0.119982 -2 -1 4 
5517 6 0.709422 0.03755 0.0863508 1 3 -4 
5295 6 0.75474 0.0955593 0.0785207 0 3 -6 
7540 5 0.0170642 0.0778118 0.0654049 0 -1 8 
7630 5 0.563639 0.101227 0.094251 -3 -1 1 
7007 5 0.307716 0.0758976 0.0943798 0 0 -1 
5717 5 0.066434 0.134781 0.0511086 -1 1 0 
8875 6 0.189041 0.111016 0.0567902 -3 3 -4 
5197 6 0.30339 0.145132 0.0897591 3 -4 1 
8862 5 0.95905 0.171138 0.0525516 -1 2 1 
6535 6 0.0766772 0.154163 0.0959286 1 0 -4 
5552 6 0.131227 0.189946 0.116229 -6 3 3 
7019 6 0.307977 0.113304 0.0822989 -6 -3 -7 
7770 5 0.770276 0.163638 0.0557251 2 -2 -1 
8436 6 0.946752 0.166084 0.0821981 1 1 -2 
8273 5 0.555407 0.178055 0.07884 -1 3 -2 
6345 6 0.145873 0.229388 0.0892424 1 1 3 
7063 6 0.230327 0.216773 0.0849449 -3 1 2 
6067 5 0.428277 0.23299 0.0734684 1 2 -2 
7829 5 0.0202747 0.214146 0.0723103 5 -1 -2 
6120 5 0.348036 0.240916 0.0861031 6 3 1 
8312 6 0.660653 0.28492 0.0938422 -5 1 0 
5015 5 0.368977 0.319168 0.0846966 -2 3 8 
8003 5 0.0495508 0.308589 0.0947483 0 2 -1 
5453 5 0.559163 0.337257 0.0783093 1 -5 1 
6462 5 0.813603 0.381969 0.0913392 3 -1 -1 
6297 5 0.43601 0.376198 0.0549012 -3 1 -4 
8845 6 0.513141 0.357552 0.143168 3 0 0 
5064 6 0.763214 0.334321 0.0493434 0 3 4 
6627 6 0.777808 0.433408 0.0774042 -2 -3 3 
5358 6 0.536271 0.46069 0.0959824 1 0 -1 
7050 5 0.65035 0.416617 0.0948681 -3 2 3 
6015 6 0.128197 0.473932 0.0809881 -1 7 3 
5163 6 0.606288 0.44879 0.0440881 2 2 0 
8576 6 0.723772 0.459077 0.0467719 -4 2 0 
7807 6 0.924453 0.464214 0.0792467 -2 -3 5 
7950 6 0.948585 0.511616 0.0697918 -7 -5 0 
5384 5 0.126206 0.504123 0.0674407 0 3 1 
8443 5 0.191396 0.496494 0.0900286 -4 -2 2 
5592 6 0.170893 0.49127 0.0785089 -1 -1 1 
5993 6 0.310607 0.533925 0.09493 2 -4 3 
8878 6 0.384476 0.499499 0.0903095 3 3 -2 
6677 6 0.480424 0.501893 0.0435018 -2 2 4 
5962 5 0.266496 0.509011 0.053581 2 2 -2 
8450 5 0.275758 0.556027 0.101608 0 4 -2 
5203 6 0.316709 0.532168 0.0724006 -4 -2 1 
8938 6 0.174653 0.539647 0.0793941 -1 0 4 
6228 6 0.519858 0.564129 0.101254 0 0 3 
7911 6 0.398114 0.576091 0.107742 -9 -2 0 
5752 5 0.575772 0.58615 0.0869485 4 -5 1 
5489 5 0.765597 0.644222 0.0876798 2 1 2 
8704 5 0.284363 0.689324 0.0877042 0 -1 -4 
5979 6 0.515594 0.679572 0.0909651 -2 -3 -3 
5216 6 0.884964 0.720586 0.0713075 -3 0 7 
6728 6 0.955588 0.687884 0.0196372 -4 -1 -3 
5430 5 0.959568 0.694491 0.0424952 -6 0 -8 
8060 5 0.288088 0.710545 0.086923 -1 1 -2 
8365 5 0.0686658 0.760887 0.0904337 6 1 -1 
8112 5 0.257329 0.792871 0.107741 -1 -1 0 
5646 6 0.9389 0.780386 0.0719055 -1 0 5 
5183 6 0.971858 0.798535 0.079467 2 3 -1 
7678 5 0.362591 0.822714 0.0501061 0 -1 2 
7772 5 0.0193176 0.847884 0.0916275 1 -1 0 
7190 5 0.186777 0.855386 0.0959442 -3 -6 2 
7431 6 0.354425 0.900674 0.100265 -2 1 -4 
6348 6 0.739364 0.947408 0.0501885 2 -3 -3 
8086 5 0.473995 0.960755 0.0898672 -7 5 -3 
8799 6 0.443308 0.998717 0.0678173 -4 -3 -6 
7191 5 0.552734 0.962274 0.0970771 -3 2 -3 
7913 6 0.70083 0.989208 0.0962228 1 1 2 
6037 5 0.756646 0.0335981 0.109543 4 5 3 
7123 6 0.815087 0.0206225 0.108927 0 -3 0 
7903 6 0.183788 0.0665754 0.0761492 -2 -1 0 
6369 5 0.286625 0.0326676 0.128978 -3 0 3 
7760 5 0.879148 0.0494864 0.135692 -1 3 2 
7037 6 0.963279 0.110757 0.079824 1 6 -1 
6851 6 0.947915 0.0905643 0.117811 -5 0 1 
7725 6 0.824076 0.152788 0.108597 3 -2 -3 
5934 5 0.348158 0.167001 0.122304 0 -1 -3 
8526 6 0.416086 0.15138 0.085886 -4 -1 6 
7316 6 0.981173 0.199582 0.0886422 4 -5 0 
5271 6 0.0148491 0.225082 0.10534 3 2 -1 
8757 5 0.415845 0.170247 0.0919444 -6 0 0 
6190 6 0.537783 0.177141 0.0758067 1 2 1 
7076 6 0.251456 0.21194 0.120829 1 -1 2 
7905 6 0.323994 0.247108 0.135981 2 -2 -1 
6191 5 0.986383 0.223866 0.0744799 3 -2 2 
5345 6 0.312949 0.262786 0.102951 6 4 5 
7226 5 0.891944 0.222841 0.0563092 -1 -3 -1 
6879 6 0.252508 0.250015 0.112563 1 3 0 
8479 6 0.582731 0.299556 0.0907822 -3 -3 2 
8522 5 0.463194 0.299737 0.095467 2 -2 6 
1121 1 0.616319 0.30094 0.111107 0 0 0 
1127 1 0.601772 0.306709 0.11452 0 0 0 
1125 1 0.606379 0.302119 0.110745 0 0 0 
1123 1 0.611337 0.300067 0.105668 0 0 0 
1116 1 0.618792 0.301498 0.11858 0 0 0 
1117 1 0.624541 0.302744 0.115491 0 0 0 
1119 1 0.620146 0.30761 0.11195 0 0 0 
5632 6 0.574898 0.343686 0.109128 -2 1 -6 
5946 5 0.776836 0.35291 0.0907354 3 0 1 
8941 5 0.810046 0.372323 0.105845 -2 2 0 
5141 6 0.733597 0.384951 0.0705945 -1 2 1 
7467 5 0.832789 0.419375 0.0997043 3 2 1 
7957 5 0.339751 0.386918 0.149278 5 3 0 
8993 6 0.442363 0.399291 0.0783366 4 6 0 
7354 5 0.148119 0.440807 0.0743867 -5 -1 -1 
5665 6 0.206884 0.412938 0.0929942 -1 5 4 
6752 6 0.383111 0.460201 0.095264 0 -1 -3 
7198 6 0.551749 0.456358 0.135451 3 -1 2 
6014 5 0.874831 0.450399 0.108201 -2 0 1 
7254 5 0.302747 0.47439 0.095053 -6 0 -1 
5115 6 0.833583 0.476324 0.077724 0 3 0 
5329 5 0.894294 0.504444 0.149219 5 5 0 
8253 5 0.969558 0.511313 0.110886 5 -1 1 
6850 5 0.61564 0.554813 0.0881631 2 -3 3 
8306 6 0.656826 0.544241 0.10338 -1 -1 1 
8471 6 0.180308 0.562499 0.0862157 -2 1 -2 
7927 5 0.447915 0.568837 0.13422 4 -2 -1 
8067 5 0.80654 0.554241 0.118356 -2 0 0 
6270 5 0.0286744 0.620015 0.078064 -4 1 -1 
7868 5 0.190143 0.561102 0.137593 -1 4 2 
8103 6 0.438032 0.59953 0.0962202 -4 -3 1 
8139 5 0.50727 0.621749 0.112621 -1 -1 -1 
7839 6 0.124905 0.587124 0.102739 -4 1 7 
6630 6 0.429502 0.585346 0.135467 1 4 2 
7866 6 0.755313 0.61191 0.0796752 2 0 1 
6377 5 0.870525 0.615325 0.0927082 -3 -3 2 
7765 6 0.307834 0.656503 0.0918227 0 0 0 
7545 6 0.295824 0.638887 0.0905748 -1 0 0 
8804 5 0.826404 0.63092 0.0727191 0 -2 5 
8146 5 0.0837241 0.72373 0.127868 -2 3 0 
8635 6 0.29606 0.684945 0.119257 -1 3 -6 
8187 5 0.201677 0.670552 0.129971 10 3 -3 
5272 5 0.922809 0.703009 0.110099 -1 -2 1 
7444 6 0.467455 0.745024 0.0758042 -1 -7 -5 
7756 5 0.420436 0.744058 0.0938619 0 2 -2 
7134 6 0.547638 0.743895 0.101971 -3 -2 0 
7711 5 0.0033679 0.761925 0.100551 -2 -1 -4 
8028 6 0.332548 0.815793 0.0936196 -1 4 0 
6566 5 0.0185476 0.792694 0.126519 7 -1 0 
5692 6 0.0385003 0.786944 0.0845283 0 5 4 
8038 6 0.471451 0.845291 0.0976284 2 -1 3 
7041 6 0.571055 0.824905 0.0774723 -3 3 -2 
5269 6 0.0375007 0.83057 0.107919 2 -2 -5 
7747 5 0.425015 0.856636 0.0861747 6 2 1 
6337 5 0.52095 0.847498 0.0412631 0 0 -1 
5984 6 0.863751 0.856768 0.0823023 0 -4 5 
6002 6 0.976303 0.883545 0.103985 -6 -5 3 
7336 6 0.400944 0.886327 0.0961033 5 -1 1 
5512 6 0.445046 0.913428 0.0901121 -1 1 0 
8006 6 0.662549 0.914675 0.132682 2 -5 1 
7951 6 0.601886 0.920209 0.105846 -2 -3 4 
7366 6 0.0135848 0.970973 0.112769 6 0 -6 
5078 6 0.794127 0.934266 0.0979193 2 0 -1 
6389 6 0.961836 0.936679 0.135788 -6 -1 3 
7499 6 0.851343 0.966895 0.101586 6 4 -3 
5259 6 0.854132 0.999746 0.105001 -1 3 3 
7424 5 0.196696 0.99714 0.107865 -4 3 0 
7726 6 0.385022 0.0336179 0.0761219 1 -3 0 
6188 6 0.509166 0.0311406 0.141799 1 -1 5 
8794 5 0.772775 0.00694056 0.162405 5 0 -2 
7005 6 0.867213 0.99463 0.134358 1 -2 -2 
5653 5 0.364105 0.0237589 0.0831187 1 2 0 
6712 6 0.537631 0.0605296 0.0957124 3 0 3 
1815 1 0.629627 0.0388509 0.138348 0 0 0 
1814 1 0.624641 0.0413216 0.140975 0 0 0 
6173 6 0.610984 0.127333 0.132275 4 0 -3 
2805 1 0.537353 0.143147 0.135463 0 0 0 
2803 1 0.54443 0.14368 0.13317 0 0 0 
2802 1 0.544281 0.14854 0.128679 0 0 0 
2799 1 0.550149 0.154401 0.127838 0 0 0 
2801 1 0.550282 0.146876 0.128307 0 0 0 
6777 6 0.893971 0.136338 0.117994 -3 2 -3 
2761 1 0.53702 0.164802 0.117231 0 0 0 
2760 1 0.534649 0.159079 0.118451 0 0 0 
2763 1 0.544029 0.164646 0.120919 0 0 0 
2759 1 0.53704 0.162294 0.123863 0 0 0 
2757 1 0.539831 0.156317 0.126394 0 0 0 
2755 1 0.544086 0.157771 0.13194 0 0 0 
2756 1 0.537666 0.156784 0.132547 0 0 0 
2758 1 0.533589 0.157661 0.125557 0 0 0 
2753 1 0.542215 0.16466 0.131085 0 0 0 
2754 1 0.541735 0.161625 0.136581 0 0 0 
2804 1 0.541091 0.148513 0.135531 0 0 0 
7465 5 0.549868 0.158072 0.120965 -3 7 3 
2750 1 0.545553 0.168862 0.141276 0 0 0 
2748 1 0.543834 0.161708 0.143292 0 0 0 
2762 1 0.541754 0.16058 0.116838 0 0 0 
2764 1 0.548007 0.164785 0.115826 0 0 0 
2800 1 0.548296 0.150433 0.1235 0 0 0 
2798 1 0.554769 0.153155 0.123709 0 0 0 
2796 1 0.561497 0.15717 0.122501 0 0 0 
2797 1 0.556125 0.159115 0.125665 0 0 0 
2795 1 0.561403 0.154667 0.128568 0 0 0 
2794 1 0.565447 0.159831 0.128377 0 0 0 
2793 1 0.561213 0.161192 0.13275 0 0 0 
2792 1 0.566971 0.164062 0.134137 0 0 0 
5457 6 0.324392 0.189587 0.14723 2 3 0 
2752 1 0.540868 0.16888 0.136005 0 0 0 
2751 1 0.54718 0.167756 0.135227 0 0 0 
2765 1 0.54847 0.169971 0.119637 0 0 0 
2766 1 0.55186 0.165462 0.122039 0 0 0 
2767 1 0.553675 0.1711 0.124555 0 0 0 
2768 1 0.555829 0.166843 0.128879 0 0 0 
2769 1 0.560662 0.170322 0.127724 0 0 0 
2770 1 0.559774 0.170617 0.134075 0 0 0 
2771 1 0.555724 0.174067 0.130593 0 0 0 
2772 1 0.560617 0.177253 0.133833 0 0 0 
2775 1 0.561361 0.177078 0.141647 0 0 0 
2791 1 0.563593 0.164782 0.1392 0 0 0 
5485 5 0.464596 0.203476 0.131609 -2 3 1 
6596 6 0.733991 0.204684 0.138847 1 0 0 
7188 5 0.912475 0.21756 0.127655 -4 1 0 
7343 6 0.0809632 0.211383 0.138692 1 3 4 
6354 5 0.31745 0.237483 0.103628 -5 -1 -1 
1073 1 0.618058 0.253733 0.124067 0 0 0 
1076 1 0.61681 0.242346 0.126071 0 0 0 
1074 1 0.614476 0.248528 0.122669 0 0 0 
1075 1 0.620497 0.246434 0.122068 0 0 0 
1072 1 0.611416 0.253209 0.126184 0 0 0 
1077 1 0.620473 0.246038 0.129014 0 0 0 
1082 1 0.62798 0.246568 0.140213 0 0 0 
1078 1 0.61952 0.239647 0.131941 0 0 0 
1081 1 0.624425 0.249683 0.13566 0 0 0 
1080 1 0.625682 0.243525 0.133524 0 0 0 
1086 1 0.641506 0.251218 0.136403 0 0 0 
1085 1 0.636367 0.255162 0.137009 0 0 0 
1079 1 0.619535 0.244264 0.136304 0 0 0 
1084 1 0.634346 0.249386 0.135955 0 0 0 
1083 1 0.630072 0.252802 0.139487 0 0 0 
7714 6 0.274604 0.298196 0.109869 -3 -1 -6 
1045 1 0.580665 0.261205 0.141159 0 0 0 
1071 1 0.614178 0.259073 0.126918 0 0 0 
1069 1 0.617209 0.258506 0.13384 0 0 0 
1070 1 0.611008 0.257725 0.132418 0 0 0 
1067 1 0.618839 0.258998 0.141214 0 0 0 
1068 1 0.615007 0.254794 0.138209 0 0 0 
6237 5 0.615831 0.250529 0.131039 -2 0 1 
1066 1 0.61274 0.26097 0.140703 0 0 0 
8918 6 0.858758 0.265202 0.14844 3 -6 1 
1049 1 0.581913 0.266653 0.134092 0 0 0 
1051 1 0.588052 0.270598 0.131363 0 0 0 
1047 1 0.587087 0.264271 0.138893 0 0 0 
1052 1 0.590955 0.273686 0.136425 0 0 0 
1137 1 0.604117 0.281844 0.129435 0 0 0 
1135 1 0.605932 0.286913 0.124584 0 0 0 
1133 1 0.60948 0.291845 0.12019 0 0 0 
1138 1 0.604763 0.285756 0.13451 0 0 0 
1134 1 0.610134 0.291712 0.126509 0 0 0 
1131 1 0.611404 0.299287 0.121458 0 0 0 
1132 1 0.605933 0.295673 0.123228 0 0 0 
1136 1 0.609581 0.284702 0.128854 0 0 0 
1113 1 0.62074 0.290906 0.120864 0 0 0 
1112 1 0.626277 0.290795 0.124433 0 0 0 
1111 1 0.627053 0.287529 0.118796 0 0 0 
1109 1 0.629207 0.280013 0.11909 0 0 0 
1108 1 0.634106 0.278892 0.123584 0 0 0 
1110 1 0.630602 0.28488 0.123145 0 0 0 
5494 5 0.784555 0.296121 0.105653 -3 1 1 
1158 1 0.590295 0.315538 0.134273 0 0 0 
1155 1 0.593812 0.312054 0.145846 0 0 0 
1156 1 0.595304 0.312327 0.139467 0 0 0 
1130 1 0.607615 0.302964 0.124687 0 0 0 
1129 1 0.606281 0.302125 0.11852 0 0 0 
1128 1 0.605413 0.308835 0.119444 0 0 0 
1126 1 0.607841 0.308168 0.112345 0 0 0 
1124 1 0.60668 0.30474 0.105333 0 0 0 
1120 1 0.615156 0.305546 0.115135 0 0 0 
1122 1 0.612746 0.305621 0.108207 0 0 0 
1115 1 0.620822 0.296054 0.11603 0 0 0 
1118 1 0.621941 0.307922 0.11839 0 0 0 
1114 1 0.622658 0.296752 0.122129 0 0 0 
8607 6 0.779253 0.333108 0.127973 -3 -4 2 
6283 6 0.492981 0.328788 0.141318 3 0 5 
1160 1 0.588238 0.32228 0.132168 0 0 0 
8696 5 0.704781 0.387102 0.155153 -2 4 3 
7327 5 0.560467 0.37422 0.131189 0 -1 2 
6301 6 0.558121 0.345748 0.106266 1 -1 -2 
1167 1 0.57493 0.344313 0.13037 0 0 0 
1169 1 0.581524 0.34801 0.129246 0 0 0 
1171 1 0.588757 0.350276 0.129772 0 0 0 
5338 6 0.427927 0.396473 0.121001 1 3 2 
5124 5 0.242845 0.447674 0.146809 -2 -9 1 
6960 6 0.567994 0.433953 0.128497 2 -2 3 
5661 5 0.0865715 0.449996 0.142701 -4 -2 2 
5894 5 0.541842 0.426563 0.139073 1 1 2 
8199 5 0.846544 0.442109 0.110369 -4 -1 1 
5606 6 0.193926 0.506373 0.126237 -1 1 0 
8839 5 0.660218 0.527748 0.128097 1 5 4 
7990 5 0.15353 0.52029 0.143601 -1 2 5 
6477 5 0.209893 0.539324 0.113728 -2 2 2 
8281 5 0.520719 0.52753 0.0980346 3 4 0 
8264 6 0.882537 0.549302 0.127455 5 -3 3 
7406 5 0.355332 0.546541 0.103447 2 -2 4 
5493 6 0.109122 0.595131 0.112832 -4 0 4 
7966 5 0.216036 0.56556 0.0901751 2 -1 -4 
7960 6 0.0375778 0.611708 0.124968 4 1 -1 
6889 6 0.0168494 0.63605 0.0850289 5 -3 -5 
5797 5 0.394393 0.607836 0.138538 0 4 0 
7010 6 0.513677 0.640561 0.113932 -1 -4 3 
8035 6 0.99912 0.606513 0.158762 -2 -1 1 
6996 6 0.14779 0.636416 0.168845 -2 2 2 
8860 6 0.226242 0.709133 0.106021 2 6 -4 
6203 6 0.537382 0.652013 0.169773 -3 -1 -1 
5673 6 0.660025 0.707936 0.128136 -3 3 0 
6323 5 0.849784 0.683946 0.165984 2 7 1 
5441 6 0.0382303 0.677204 0.115024 3 3 -6 
8991 6 0.12217 0.710999 0.10511 -1 -2 -3 
5309 5 0.331722 0.666526 0.115504 -3 4 2 
6584 5 0.756698 0.672043 0.12791 -1 3 2 
6412 6 0.821235 0.704258 0.135619 3 -2 -1 
8398 6 0.461981 0.768484 0.116232 1 -2 -1 
6238 5 0.769469 0.717662 0.137573 2 -5 3 
5184 5 0.892417 0.744043 0.130611 -2 -1 0 
6992 5 0.266264 0.777635 0.123683 -1 1 -4 
7778 5 0.930082 0.793513 0.133226 0 -1 0 
7147 6 0.973818 0.822222 0.132437 0 0 -2 
7880 6 0.191807 0.820799 0.175581 -3 -2 1 
5674 5 0.303422 0.848294 0.0655482 -1 0 4 
5346 5 0.553722 0.811254 0.104384 3 5 0 
8751 5 0.046532 0.822698 0.114439 2 0 1 
8437 6 0.534011 0.882184 0.140631 1 0 -3 
6769 6 0.570319 0.867623 0.0927794 -1 -5 -3 
7363 5 0.615071 0.858978 0.11077 2 1 1 
6941 5 0.0646683 0.891651 0.132345 -2 -4 -8 
5106 6 0.238007 0.921861 0.147325 1 0 6 
5585 6 0.233696 0.937353 0.155398 0 0 2 
7815 6 0.492831 0.877749 0.107668 4 1 0 
8872 6 0.679114 0.877619 0.139623 -2 -1 -2 
8374 6 0.785763 0.916294 0.137487 0 1 4 
7541 6 0.893568 0.865306 0.125938 -2 4 3 
8578 6 0.410985 0.920153 0.103712 -1 -2 6 
8347 6 0.901779 0.954243 0.147063 4 0 -1 
5410 5 0.644793 0.996344 0.0740488 -1 0 0 
8660 5 0.0906295 0.990309 0.140152 1 0 1 
8500 6 0.679797 0.0267574 0.12596 3 2 -1 
6096 5 0.774472 0.977321 0.146784 0 -3 0 
7995 5 0.426438 0.0224724 0.167903 -1 0 -2 
8109 5 0.515912 0.999661 0.143368 0 -3 3 
8519 6 0.0520619 0.0350641 0.128942 2 2 2 
5837 6 0.104427 0.0631375 0.143561 0 -5 -1 
1805 1 0.603182 0.0313139 0.151988 0 0 0 
1804 1 0.602364 0.032051 0.158348 0 0 0 
1806 1 0.608535 0.0329065 0.155179 0 0 0 
1807 1 0.610609 0.0281661 0.151439 0 0 0 
1808 1 0.614075 0.0335256 0.149857 0 0 0 
1812 1 0.620382 0.0352633 0.138874 0 0 0 
1810 1 0.618259 0.0301188 0.144694 0 0 0 
1813 1 0.625129 0.0355699 0.143204 0 0 0 
1809 1 0.611861 0.0310124 0.144578 0 0 0 
1811 1 0.617437 0.03626 0.144243 0 0 0 
1816 1 0.631129 0.0447624 0.140382 0 0 0 
1817 1 0.636419 0.0413026 0.140532 0 0 0 
1820 1 0.633773 0.0464716 0.148712 0 0 0 
1821 1 0.633266 0.0407745 0.151576 0 0 0 
1818 1 0.637573 0.0471736 0.142192 0 0 0 
1819 1 0.639284 0.0430262 0.146875 0 0 0 
1822 1 0.631108 0.0447998 0.15569 0 0 0 
5564 5 0.857983 0.0402702 0.169784 1 -1 1 
1876 4 0.558176 0.0681185 0.157549 0 0 0 
7799 5 0.780777 0.0534416 0.133439 -2 -1 0 
8780 6 0.510343 0.0625328 0.134269 3 5 0 
1879 4 0.567717 0.0818558 0.156396 0 0 0 
1878 4 0.564598 0.0766211 0.156456 0 0 0 
1877 4 0.563214 0.0703897 0.154238 0 0 0 
1880 4 0.573673 0.0813934 0.153836 0 0 0 
1881 4 0.57781 0.0825328 0.149156 0 0 0 
1882 4 0.579637 0.0859418 0.144133 0 0 0 
1883 1 0.583272 0.0890045 0.139288 0 0 0 
1886 1 0.590335 0.0958136 0.139574 0 0 0 
1884 1 0.588912 0.0892551 0.142686 0 0 0 
1888 1 0.594678 0.0938483 0.145643 0 0 0 
7528 5 0.858147 0.104605 0.123706 -4 5 5 
8410 5 0.0855851 0.152685 0.161682 6 -2 -2 
1885 1 0.585913 0.0946277 0.144076 0 0 0 
7512 5 0.596633 0.103768 0.145431 -3 0 2 
1900 1 0.580162 0.0992128 0.16027 0 0 0 
1901 1 0.582107 0.104426 0.157162 0 0 0 
1899 1 0.576936 0.104309 0.162673 0 0 0 
1887 1 0.591495 0.0991558 0.144818 0 0 0 
1902 1 0.585436 0.0995887 0.155859 0 0 0 
1905 1 0.587251 0.108588 0.158993 0 0 0 
3077 1 0.507972 0.139126 0.150223 0 0 0 
3079 1 0.509274 0.14535 0.154814 0 0 0 
3081 1 0.509855 0.139532 0.15893 0 0 0 
5523 6 0.544143 0.102555 0.154253 0 3 2 
2737 1 0.576946 0.133368 0.120829 0 0 0 
2738 1 0.575566 0.136144 0.126513 0 0 0 
2736 1 0.577691 0.139845 0.121565 0 0 0 
7135 5 0.780399 0.114461 0.108935 4 1 -1 
5257 6 0.790654 0.0987331 0.147651 -1 -1 -1 
8186 6 0.887586 0.125085 0.114206 -2 3 -2 
5349 5 0.369398 0.144745 0.138329 1 1 -1 
3070 1 0.491532 0.135127 0.145078 0 0 0 
3068 1 0.493521 0.140131 0.150568 0 0 0 
3069 1 0.493328 0.14141 0.144115 0 0 0 
3071 1 0.49523 0.135419 0.139983 0 0 0 
3067 1 0.49704 0.145072 0.149205 0 0 0 
3072 1 0.498682 0.132022 0.144426 0 0 0 
3076 1 0.506641 0.144348 0.146467 0 0 0 
3078 1 0.513469 0.142579 0.150448 0 0 0 
3073 1 0.50298 0.134137 0.140254 0 0 0 
3074 1 0.501131 0.139562 0.14369 0 0 0 
3075 1 0.507666 0.138739 0.143164 0 0 0 
3080 1 0.5149 0.143147 0.157236 0 0 0 
3062 1 0.499558 0.154796 0.160468 0 0 0 
2747 1 0.547676 0.156939 0.140853 0 0 0 
2807 1 0.539063 0.143212 0.142789 0 0 0 
2806 1 0.534683 0.147039 0.139641 0 0 0 
2808 1 0.537662 0.148123 0.146196 0 0 0 
2810 1 0.54404 0.150485 0.143556 0 0 0 
2809 1 0.543751 0.145732 0.14779 0 0 0 
2811 1 0.548754 0.151047 0.147575 0 0 0 
2812 1 0.546026 0.1568 0.147927 0 0 0 
2813 1 0.549319 0.155289 0.153588 0 0 0 
6643 5 0.551199 0.146658 0.141964 -4 -1 4 
5815 5 0.5542 0.157483 0.145127 3 -1 -1 
2814 1 0.54324 0.157638 0.154902 0 0 0 
2815 1 0.542611 0.151397 0.154729 0 0 0 
6409 5 0.550791 0.159961 0.134491 0 0 0 
6311 5 0.556197 0.153422 0.132263 -5 3 1 
5284 5 0.549238 0.148142 0.134822 1 0 -3 
2746 2 0.552583 0.153782 0.138717 0 0 0 
2743 4 0.566063 0.140252 0.136655 0 0 0 
2742 1 0.566967 0.134198 0.135097 0 0 0 
2745 4 0.557218 0.149223 0.138813 0 0 0 
2744 4 0.562932 0.145796 0.139459 0 0 0 
2790 1 0.5647 0.158211 0.138105 0 0 0 
2788 1 0.565189 0.153618 0.143495 0 0 0 
2741 1 0.569079 0.128758 0.131962 0 0 0 
2733 1 0.587086 0.143556 0.126412 0 0 0 
2734 1 0.580854 0.142088 0.127541 0 0 0 
2735 1 0.582942 0.137352 0.123997 0 0 0 
2739 1 0.574441 0.129776 0.127148 0 0 0 
2740 1 0.569338 0.133874 0.127821 0 0 0 
2732 1 0.584758 0.14746 0.130954 0 0 0 
2730 1 0.585568 0.146422 0.13772 0 0 0 
2731 1 0.58939 0.143957 0.133259 0 0 0 
2729 1 0.587216 0.14077 0.139892 0 0 0 
2727 1 0.594599 0.143021 0.142269 0 0 0 
2725 1 0.599833 0.14825 0.140591 0 0 0 
2726 1 0.593879 0.148938 0.138992 0 0 0 
2728 1 0.589511 0.14614 0.143643 0 0 0 
2723 1 0.605382 0.152041 0.144826 0 0 0 
2721 1 0.605318 0.153349 0.152129 0 0 0 
2724 1 0.598892 0.152977 0.144339 0 0 0 
8774 5 0.594599 0.160982 0.153889 1 -1 0 
8755 6 0.412031 0.194018 0.147701 2 -4 0 
3065 1 0.493223 0.145282 0.156004 0 0 0 
3066 1 0.491243 0.147332 0.150746 0 0 0 
3064 1 0.495653 0.150894 0.155657 0 0 0 
2749 1 0.548904 0.163627 0.140035 0 0 0 
2773 1 0.554937 0.177076 0.137006 0 0 0 
2774 1 0.558132 0.182308 0.139458 0 0 0 
2789 1 0.56125 0.159094 0.143398 0 0 0 
2787 1 0.567291 0.158576 0.147683 0 0 0 