ITEM: TIMESTEP
20000000
ITEM: NUMBER OF ATOMS
9000
ITEM: BOX BOUNDS pp pp pp
-75 75
-75 75
-75 75
ITEM: ATOMS id type xs ys zs ix iy iz 
7681 5 0.278629 0.0379689 0.988322 -1 -1 0 
7663 6 0.364359 0.0464683 0.0358625 5 3 -2 
8154 6 0.438672 0.998573 0.993329 7 0 -6 
5399 5 0.632787 0.0501753 0.00690084 -2 2 4 
8125 6 0.921311 0.0777538 0.00224442 1 3 1 
6788 5 0.120189 0.0751226 0.0488173 3 -1 -2 
6670 5 0.108119 0.0855962 0.984523 0 0 1 
5225 6 0.29066 0.0557636 0.00894639 2 0 -1 
6982 6 0.044018 0.0836187 0.0194496 1 4 4 
5706 6 0.475143 0.158167 0.0225488 -5 2 2 
5696 5 0.592942 0.164347 0.0409304 1 -1 1 
5290 6 0.599253 0.114855 0.999918 1 0 -3 
8516 6 0.871231 0.156531 0.00386127 -1 1 0 
8981 6 0.225085 0.162428 0.00833381 0 1 1 
5011 5 0.318982 0.126898 0.0326231 1 0 -2 
7984 6 0.577592 0.134705 0.0108545 2 1 2 
5390 6 0.034127 0.195007 0.0048572 -2 2 2 
6534 5 0.0139908 0.195164 0.0098248 4 0 2 
7639 6 0.600686 0.230196 0.967061 2 -1 -8 
7643 6 0.171066 0.183136 0.997831 -1 -1 -3 
7081 6 0.449544 0.191922 0.012546 0 3 -4 
6327 5 0.535344 0.201361 0.028717 -2 -1 -9 
8730 5 0.280299 0.267587 0.0181476 -1 2 -2 
5330 5 0.356343 0.226138 0.0261313 3 2 -4 
8642 6 0.975611 0.275569 0.979068 -4 0 4 
6011 6 0.0566386 0.305331 0.0395556 4 2 2 
5192 5 0.432532 0.267911 0.0073133 4 4 -6 
8187 5 0.620092 0.307343 0.00243329 0 0 0 
6102 5 0.808498 0.324861 0.98462 0 -1 0 
5988 5 0.998923 0.359847 0.996406 1 -1 5 
6400 5 0.35539 0.376424 0.0315611 -5 0 -2 
8610 6 0.341871 0.399393 0.00618677 -1 0 4 
7872 6 0.589901 0.387883 0.0251696 -5 1 -2 
7406 5 0.543506 0.424521 0.00488696 -3 -2 2 
8691 6 0.846211 0.414682 1.51188e-05 2 -4 -2 
6391 5 0.0784401 0.565517 0.043898 -6 -2 -3 
8472 6 0.827455 0.514952 0.0154585 0 -2 1 
8607 6 0.922839 0.553259 0.0261303 -1 -3 1 
8243 5 0.71078 0.570063 0.011641 -2 4 1 
7499 6 0.247911 0.531361 0.0214964 1 -1 4 
5619 5 0.541458 0.583482 0.990677 2 -7 0 
7016 5 0.698004 0.590578 0.972762 4 0 -1 
5887 6 0.196073 0.628675 0.98949 2 0 -4 
8868 6 0.231535 0.613366 0.0598131 2 0 3 
7261 6 0.438849 0.619584 0.0211024 3 1 -5 
8944 6 0.488628 0.666594 0.99541 -1 -3 -1 
8388 6 0.913557 0.669947 0.00371152 0 -5 -2 
8923 5 0.850978 0.709955 0.0305067 2 0 2 
5896 5 0.857514 0.68901 0.98421 0 0 -2 
8106 5 0.902725 0.656071 0.0377537 4 -2 -4 
8792 6 0.26948 0.756827 0.0121097 1 -1 0 
8360 6 0.357062 0.702135 0.0220504 1 -1 -1 
8484 5 0.518389 0.741228 0.996062 -1 1 -2 
7628 6 0.965608 0.731927 0.0739134 4 1 4 
6888 5 0.461618 0.723477 0.0090605 1 0 0 
6914 6 0.31895 0.758535 0.0142706 1 -2 -3 
6906 5 0.553504 0.758238 0.0258605 -2 -4 1 
7620 6 0.627239 0.761867 0.0265546 2 -1 1 
7535 5 0.0488439 0.811034 0.00153796 1 2 3 
6351 6 0.883644 0.809665 0.0136398 4 3 -3 
6488 6 0.216843 0.838379 0.0194291 2 -7 -2 
8617 6 0.490684 0.827653 0.98743 -1 -1 -3 
8489 5 0.678816 0.827264 0.981106 -1 -1 1 
8376 6 0.689258 0.850721 0.0355179 1 7 -2 
5103 6 0.822441 0.850437 0.0191865 -5 -1 1 
5200 5 0.41767 0.857369 0.0216113 4 5 2 
8015 5 0.755082 0.863013 0.035 -1 -3 3 
5624 6 0.712505 0.918074 0.986896 0 -2 3 
8064 5 0.663811 0.891752 0.990656 -5 3 -2 
8363 5 0.530677 0.980861 0.989745 -1 2 -2 
8006 6 0.895834 0.970205 0.00441294 3 -5 1 
7610 6 0.193922 0.964007 0.0123222 1 -2 3 
7692 6 0.644546 0.999789 0.0301108 -1 1 1 
5914 5 0.781679 0.000213489 0.0661718 -1 -1 -4 
8531 6 0.428402 0.979822 0.0493188 1 -3 -2 
6572 6 0.470923 0.028735 0.0178894 -5 3 -1 
5470 5 0.986201 0.00942302 0.0664564 0 -4 3 
6705 5 0.589607 0.014297 0.00783827 4 1 1 
5303 5 0.959367 0.022895 0.00266175 -1 3 4 
6106 6 0.151506 0.036946 0.0483296 -1 -2 0 
5533 5 0.504962 0.0409279 0.0402107 -3 3 5 
6820 6 0.77867 0.0582388 0.00794589 -6 5 1 
6476 6 0.0957466 0.103297 0.0790791 -2 -5 -2 
5669 6 0.401643 0.0879649 0.0218881 -3 -3 0 
7324 6 0.0784392 0.0968602 0.0288679 2 1 -2 
8038 5 0.714965 0.120042 0.0594411 2 6 -3 
5932 6 0.276371 0.139713 0.0448683 -1 0 1 
8852 6 0.147619 0.205228 0.0281266 -1 0 2 
8854 5 0.39098 0.155112 0.0664426 -1 1 3 
8251 5 0.418879 0.16762 0.024642 -1 -2 0 
5005 6 0.230539 0.233059 0.018611 4 -2 0 
8177 6 0.00620085 0.218668 0.0413782 5 1 1 
8379 5 0.397962 0.233436 0.0459752 -2 -2 -2 
6033 5 0.284756 0.268513 0.0401787 -2 -2 -3 
7330 5 0.197165 0.215341 0.075678 -2 0 5 
7874 6 0.605832 0.236592 0.0177629 -1 -4 -2 
6584 5 0.925279 0.268105 0.0148922 3 1 -3 
8894 6 0.807262 0.294589 0.0386546 1 5 3 
5709 5 0.962676 0.261225 0.0462848 -2 1 2 
8399 5 0.239855 0.32061 0.0348092 0 -1 -2 
8274 6 0.818354 0.296202 0.0269447 -5 4 0 
5956 6 0.492185 0.320228 0.0248395 1 2 1 
5711 6 0.0188495 0.374156 0.0687513 -1 -1 0 
5979 6 0.404428 0.402945 0.0437028 2 -4 2 
6622 5 0.665947 0.444156 0.0161658 -5 1 2 
6224 6 0.893244 0.496236 0.0644937 -5 -2 0 
6884 5 0.0142236 0.516728 0.0508403 -3 2 -1 
7793 6 0.253966 0.5267 0.0137077 -1 -1 1 
8604 5 0.23408 0.537632 0.0314107 3 4 -1 
8426 6 0.387941 0.550968 0.0157718 3 3 1 
6707 5 0.0355396 0.583827 0.0067535 -3 -1 5 
8830 6 0.0779706 0.526768 0.0334503 -2 7 -6 
6159 5 0.596162 0.539613 0.0225927 -1 1 5 
5193 6 0.813494 0.569759 0.0385715 2 -4 1 
5384 5 0.244855 0.556014 0.0284266 0 -2 -2 
6061 6 0.0612829 0.595277 0.00267759 3 8 4 
6056 5 0.695706 0.622636 0.039377 -4 -2 1 
6347 6 0.01399 0.62132 0.0300001 -1 -1 1 
8976 5 0.416092 0.606964 0.0488503 1 1 -2 
5739 6 0.0337946 0.639834 0.0185378 4 -5 3 
5014 6 0.414796 0.633184 0.0331793 1 1 0 
5895 6 0.508903 0.631763 0.0211428 -4 3 0 
8289 6 0.569753 0.631585 0.0531769 -1 -4 -5 
8328 6 0.772546 0.665877 0.0244026 -2 -4 2 
7197 6 0.851095 0.690819 0.0325989 3 0 4 
5678 6 0.282579 0.687579 0.0416249 -2 -1 -3 
8996 5 0.435404 0.697614 0.0288922 6 0 -2 
7095 5 0.237697 0.689622 0.0492605 2 -2 -1 
7401 5 0.802987 0.688641 0.0236931 -5 -2 0 
7343 6 0.369406 0.762422 0.0413774 1 -2 -1 
8358 5 0.61268 0.788195 0.0328655 -1 -1 1 
5973 5 0.526357 0.727164 0.0244536 -2 -4 4 
5926 6 0.71551 0.792798 0.0154029 -4 -2 1 
7025 5 0.224889 0.816329 0.0167271 2 -1 4 
7716 6 0.395442 0.811336 0.0596397 -1 -3 4 
6730 5 0.388672 0.853543 0.0126174 3 3 3 
8813 5 0.30927 0.846847 0.0176462 -2 -1 -2 
7436 6 0.653995 0.880708 0.0322788 0 -1 -2 
8574 6 0.843761 0.900708 0.0327923 2 1 0 
7228 6 0.439343 0.9378 0.0219463 -1 0 1 
6095 6 0.0994452 0.969632 0.0632219 0 4 3 
6380 6 0.541927 0.993537 0.060265 -1 1 2 
6290 6 0.927189 0.973433 0.052369 -1 1 -4 
6189 5 0.916687 0.993585 0.0720292 4 -1 -4 
6229 5 0.793048 0.96089 0.052817 3 -1 -2 
8247 6 0.45989 0.0611353 0.0573011 1 6 2 
8371 6 0.557678 0.0561876 0.0954589 2 3 0 
6899 6 0.509581 0.114829 0.0562546 -6 -3 1 
7258 6 0.935639 0.116727 0.0665772 2 4 1 
5701 5 0.017182 0.154408 0.0747099 -3 0 1 
7629 6 0.214987 0.134505 0.0821329 0 -1 -1 
7562 5 0.282217 0.104976 0.0447769 2 0 -3 
5822 6 0.525161 0.103382 0.0744653 -6 2 -4 
5995 5 0.531923 0.112703 0.0559981 -1 2 4 
5344 6 0.044176 0.204836 0.0517179 8 2 3 
5040 6 0.305842 0.206657 0.0785035 0 3 -2 
6481 6 0.703362 0.186414 0.063923 8 6 -2 
6166 6 0.834233 0.207269 0.0618572 -2 0 1 
8305 6 0.26643 0.207528 0.0825123 1 0 3 
8834 6 0.999162 0.216818 0.0698765 2 -3 3 
5957 6 0.780722 0.274428 0.0612216 2 -1 2 
7014 5 0.77621 0.305822 0.0713038 1 -5 1 
7010 6 0.797963 0.292211 0.0471675 -1 -3 0 
5859 5 0.829678 0.298897 0.021584 -1 3 1 
8911 6 0.0699527 0.289008 0.0716698 2 -1 -2 
5802 5 0.840585 0.299945 0.0583753 -2 -3 4 
6919 5 0.194753 0.306514 0.0733419 1 0 1 
8926 6 0.344086 0.324607 0.0709132 -2 2 -2 
6404 6 0.343106 0.324059 0.0523324 0 -4 1 
7700 6 0.263225 0.357253 0.0310742 1 -1 4 
7136 5 0.511781 0.365043 0.0524197 3 0 0 
8428 5 0.0303974 0.407545 0.0520185 -2 8 3 
5264 6 0.531852 0.423387 0.0646261 -1 0 -2 
5480 6 0.954699 0.381269 0.0576004 1 0 -1 
5833 6 0.0771397 0.395352 0.0642596 2 6 0 
7155 5 0.956438 0.431732 0.0693031 -6 0 1 
6149 6 0.550712 0.463907 0.0349498 -6 -1 0 
6266 6 0.934627 0.465283 0.0236447 0 0 2 
8467 5 0.181247 0.448758 0.0408259 0 0 1 
8600 5 0.355592 0.511672 0.0715856 7 1 8 
7526 6 0.453737 0.455987 0.0609822 4 2 -2 
6816 6 0.792124 0.478432 0.035561 -1 -5 -3 
8126 6 0.24738 0.529596 0.0684554 5 8 -3 
7745 5 0.767874 0.541784 0.0672242 2 -2 1 
7170 6 0.995019 0.549202 0.0176443 1 0 -2 
6113 6 0.195893 0.536456 0.0758388 0 4 3 
7463 6 0.380772 0.539205 0.0224278 -1 0 7 
8029 6 0.683475 0.554832 0.0763286 4 4 -3 
7030 5 0.333359 0.561799 0.0666291 1 1 0 
7888 6 0.382086 0.591434 0.0868109 -1 -2 2 
7802 5 0.496217 0.568379 0.0554683 -3 1 2 
7213 6 0.726333 0.562968 0.0522296 -2 2 0 
6563 6 0.574074 0.556946 0.0660719 -5 1 1 
5177 6 0.631016 0.615278 0.0635292 3 -3 3 
6499 5 0.67423 0.583049 0.0559706 3 0 2 
8777 5 0.28248 0.610708 0.0193805 0 0 4 
6746 5 0.858215 0.584469 0.0832031 6 -1 5 
7565 5 0.201519 0.602963 0.0777632 5 1 3 
8310 6 0.680008 0.611167 0.0253697 0 -2 5 
7820 6 0.726783 0.618854 0.0351577 2 -3 4 
7105 6 0.0685517 0.639312 0.0310569 -1 -3 1 
7246 6 0.174534 0.665562 0.0119179 -1 -3 5 
7163 6 0.194814 0.647767 0.0593726 2 -4 1 
6219 6 0.296613 0.73783 0.0981815 5 0 4 
7891 6 0.262251 0.706429 0.0544646 -1 0 -4 
6889 6 0.139733 0.734558 0.0394284 2 -3 -3 
8545 5 0.341069 0.763225 0.0907874 5 2 6 
7329 5 0.179746 0.763573 0.0935214 3 -1 -3 
6789 6 0.578427 0.786136 0.0308571 0 1 1 
6325 6 0.132004 0.804052 0.0393551 1 0 -2 
7177 5 0.80687 0.825215 0.0454685 2 4 -2 
6517 6 0.305962 0.814941 0.0771583 -1 -1 -1 
6616 6 0.930098 0.882201 0.0580992 3 -1 -3 
6760 5 0.88175 0.873243 0.0889401 -1 -3 1 
7908 6 0.946412 0.884459 0.0706876 0 -2 0 
5322 5 0.0332064 0.947606 0.0450088 -4 0 -4 
8993 5 0.0705054 0.9234 0.0536786 -1 -4 -1 
8001 6 0.512083 0.93902 0.0876602 0 -3 2 
6319 6 0.57023 0.956915 0.052131 7 -1 0 
5187 6 0.209435 0.964863 0.0646363 -1 -7 -6 
8843 5 0.147544 0.991137 0.0101883 -7 -1 -2 
8772 5 0.971226 0.00881443 0.0532949 1 -1 2 
6389 6 0.612754 0.982655 0.0599243 -1 5 1 
8725 5 0.683382 0.997274 0.0880396 0 8 1 
6697 6 0.17999 0.0646331 0.0593289 0 -3 -3 
6885 6 0.190692 0.0433048 0.0612568 -2 1 1 
8286 5 0.259023 0.0159957 0.0883669 2 -1 1 
8526 5 0.615383 0.0367958 0.104514 3 4 1 
6064 6 0.626179 0.0208398 0.106999 4 -1 -1 
7235 6 0.685934 0.0715645 0.0769373 -2 1 0 
6048 6 0.938754 0.0212677 0.0792327 0 3 5 
5032 5 0.952807 0.0395515 0.0825944 2 0 2 
5442 5 0.350842 0.0949569 0.0855264 -2 -3 -2 
8755 5 0.278214 0.131524 0.0315338 1 -2 2 
8386 6 0.127973 0.17306 0.0959187 -3 3 1 
8166 6 0.892694 0.166073 0.0445452 1 -1 -5 
5688 5 0.950149 0.171758 0.0909215 -1 0 2 
5389 6 0.346412 0.206712 0.0622868 2 2 5 
7800 5 0.408721 0.207762 0.0681171 0 5 -1 
5004 5 0.727278 0.253056 0.106423 -2 3 -3 
8179 5 0.859297 0.231664 0.0666419 3 4 -1 
8232 5 0.176014 0.235077 0.0647433 4 -1 -2 
6694 6 0.530039 0.205743 0.0869089 -1 3 -1 
6234 6 0.849067 0.27465 0.0521777 -2 -3 0 
7880 5 0.969157 0.200536 0.101026 -2 2 -6 
5036 6 0.606914 0.319976 0.0974141 3 5 0 
6259 5 0.0748994 0.32965 0.0539867 -2 0 3 
7678 6 0.268908 0.336335 0.0617973 3 -1 -1 
5905 5 0.565892 0.346633 0.0761799 0 -2 -1 
5249 6 0.698596 0.361765 0.0778621 2 1 -2 
5382 6 0.944476 0.339179 0.0757375 0 2 7 
7991 5 0.103208 0.417256 0.0773024 3 5 2 
7734 6 0.850686 0.40542 0.0786196 -2 3 3 
5652 6 0.0779497 0.396828 0.0800076 4 0 0 
5863 6 0.272997 0.40541 0.0880316 -2 0 -3 
6324 6 0.686918 0.464136 0.117366 -3 -1 0 
6160 6 0.0900605 0.490318 0.101261 3 -2 -2 
6243 5 0.369222 0.448423 0.0901061 2 0 5 
6349 6 0.537233 0.464132 0.113687 -5 -2 1 
8475 5 0.62281 0.487845 0.10855 0 3 -1 
8453 6 0.324775 0.49438 0.0485313 3 -1 1 
3623 1 0.585819 0.485125 0.0911661 0 0 0 
3621 1 0.580661 0.485618 0.0856905 0 0 0 
3619 1 0.576502 0.491105 0.0879277 0 0 0 
3618 1 0.577951 0.497098 0.0864384 0 0 0 
3625 1 0.592267 0.488354 0.0886723 0 0 0 
3622 1 0.586641 0.485725 0.0846818 0 0 0 
3624 1 0.586616 0.491061 0.0899699 0 0 0 
6627 6 0.105476 0.484654 0.0920702 3 1 2 
7911 6 0.250951 0.555548 0.125758 0 1 1 
8609 6 0.289635 0.500316 0.0467165 3 -5 0 
5588 6 0.309903 0.5281 0.0482007 0 -1 6 
3617 1 0.575771 0.497069 0.0924595 0 0 0 
3615 1 0.573626 0.503964 0.0939681 0 0 0 
6408 6 0.705076 0.540259 0.0999759 -1 -4 2 
5027 6 0.314382 0.532866 0.0468031 -3 0 1 
7703 5 0.68371 0.533332 0.0570454 7 1 2 
6446 6 0.0929152 0.519904 0.0988697 -4 3 0 
6258 6 0.391295 0.59003 0.0904089 -4 0 1 
6222 6 0.828094 0.50613 0.0503669 -2 -4 -4 
6935 6 0.520208 0.60036 0.0968477 5 2 9 
8866 6 0.910758 0.621968 0.0912648 -2 2 -1 
6008 5 0.120021 0.60367 0.0965821 3 -1 4 
7770 6 0.151847 0.593903 0.074973 4 -2 0 
7712 6 0.997993 0.566753 0.0446326 0 1 1 
6608 6 0.252483 0.611185 0.104245 5 1 3 
8849 5 0.268417 0.658288 0.0640382 4 1 0 
6693 6 0.286151 0.652589 0.0788393 3 2 4 
6348 6 0.194874 0.674473 0.060528 1 2 -3 
7853 5 0.214064 0.633311 0.0725246 -3 -1 2 
5481 6 0.625049 0.690678 0.0757519 -2 -6 -1 
5012 6 0.764151 0.673305 0.0699464 4 1 3 
8486 5 0.986456 0.658203 0.0952542 0 9 3 
6046 6 0.0288772 0.681987 0.117345 1 2 5 
8962 6 0.130946 0.699666 0.0301491 4 1 0 
8807 5 0.921224 0.666453 0.0805147 2 0 5 
8769 5 0.31679 0.742473 0.118491 -4 -1 5 
8977 6 0.829337 0.726564 0.0918986 2 -2 -4 
6531 5 0.669536 0.785936 0.0877404 -1 5 1 
8252 5 0.858977 0.745427 0.10368 2 3 5 
7269 6 0.160043 0.813581 0.0564543 3 0 -3 
7337 5 0.31006 0.746503 0.0890685 -1 -1 6 
8415 6 0.585454 0.781989 0.10693 -4 -3 1 
8833 6 0.368197 0.839277 0.108024 2 -6 0 
6856 6 0.618688 0.856831 0.0733077 1 -1 0 
7484 6 0.750983 0.874953 0.0780445 0 -4 2 
5962 5 0.796722 0.92867 0.0485408 0 1 2 
6818 5 0.995561 0.858229 0.0307821 2 0 5 
7179 5 0.224981 0.886807 0.071126 2 4 2 
6755 5 0.52241 0.862175 0.0903718 5 3 -1 
8970 5 0.537612 0.884625 0.075006 -2 1 1 
5671 5 0.0163319 0.896239 0.0727192 3 -1 -1 
5978 6 0.286686 0.897398 0.0496337 0 3 2 
7253 6 0.865578 0.884963 0.051472 1 -1 -1 
5451 5 0.99621 0.889522 0.0956615 -1 1 0 
6178 6 0.077594 0.964785 0.103191 -1 2 -1 
7048 6 0.247661 0.926896 0.0824256 1 -1 1 
8462 6 0.676494 0.93786 0.111829 -2 4 2 
8312 5 0.863965 0.969359 0.0711805 -4 0 4 
8759 6 0.145791 0.915855 0.0756903 2 -6 3 
8889 6 0.383092 0.982713 0.0910573 2 3 0 
6894 5 0.301132 0.984314 0.053165 0 1 3 
6388 5 0.629315 0.00637744 0.0743716 3 3 -2 
8239 6 0.525059 0.0189089 0.119002 0 -1 -1 
5116 6 0.124408 0.046183 0.0745574 1 -2 1 
7185 5 0.497316 0.0212802 0.0870174 -2 0 -2 
5163 5 0.736803 0.0229245 0.0493354 8 2 3 
8042 6 0.752561 0.0419084 0.0951537 -6 -8 5 
6787 5 0.232694 0.0256923 0.0980605 2 7 4 
8171 6 0.797934 0.10286 0.0971169 2 1 -2 
5873 6 0.184632 0.11477 0.105248 -5 -2 -1 
6578 5 0.760219 0.0988476 0.118027 0 0 2 
6350 5 0.90303 0.0889904 0.159585 1 1 7 
6766 6 0.00731298 0.146405 0.126534 0 4 1 
7619 6 0.439567 0.153633 0.0879962 -1 3 -1 
5250 6 0.66381 0.142466 0.0900023 4 -3 0 
8241 5 0.790081 0.165216 0.104565 -2 1 1 
7941 5 0.52661 0.191704 0.080859 2 -7 1 
8933 5 0.35021 0.227654 0.129013 1 -3 2 
7450 6 0.373994 0.244416 0.114792 -2 -5 -2 
6945 5 0.0240363 0.278716 0.102022 3 1 0 
7454 6 0.221154 0.261053 0.115422 -2 0 3 
7975 5 0.336531 0.240047 0.11141 2 3 0 
5195 6 0.475559 0.253839 0.0780908 -1 3 2 
6785 5 0.528989 0.287448 0.130383 -1 0 6 
7572 5 0.0354775 0.318707 0.0965455 1 -2 -2 
7310 5 0.0901064 0.383862 0.131644 0 -4 -1 
6265 5 0.320925 0.369301 0.0968773 2 1 -4 
5326 6 0.540991 0.333895 0.113111 0 3 -4 
6671 6 0.698802 0.345054 0.130638 0 2 -3 
5463 6 0.699521 0.393003 0.0834275 -1 2 3 
7689 5 0.925875 0.306211 0.111864 -1 1 -4 
5927 5 0.971264 0.371082 0.0556391 -1 0 1 
5370 6 0.997759 0.374681 0.144423 5 0 -2 
6281 5 0.0344377 0.385856 0.145125 3 -4 -2 
7173 5 0.110857 0.404564 0.131684 1 -4 2 
8940 6 0.515551 0.359789 0.106897 2 1 -2 
6371 5 0.827322 0.328203 0.108373 -6 1 3 
8065 6 0.240842 0.382221 0.101709 0 2 2 
6365 6 0.409106 0.422699 0.0813651 1 3 -1 
8254 5 0.696947 0.423207 0.0903417 -5 0 -5 
5790 6 0.314775 0.432775 0.0840522 1 0 5 
8214 6 0.273449 0.497356 0.0903469 -8 -1 1 
8228 6 0.483 0.467741 0.0938445 -2 2 7 
3620 1 0.582043 0.491954 0.0842565 0 0 0 
3627 1 0.592654 0.491131 0.0956576 0 0 0 
3608 1 0.579186 0.516791 0.111182 0 0 0 
3606 1 0.585656 0.519288 0.112471 0 0 0 
3629 1 0.599574 0.492886 0.0980659 0 0 0 
3626 1 0.592858 0.494586 0.0898855 0 0 0 
3628 1 0.59804 0.489404 0.0926912 0 0 0 
3630 1 0.598701 0.497371 0.0937102 0 0 0 
3631 1 0.597942 0.4997 0.100191 0 0 0 
3633 1 0.604781 0.497919 0.102639 0 0 0 
3632 1 0.603578 0.501805 0.0977078 0 0 0 
3634 1 0.609543 0.502407 0.103 0 0 0 
3603 1 0.590557 0.512328 0.104405 0 0 0 
3601 1 0.596424 0.511791 0.099506 0 0 0 
7556 5 0.631812 0.500725 0.116526 -3 -4 0 
8892 6 0.903327 0.496881 0.0604162 3 -1 -2 
7022 6 0.0309827 0.449214 0.094297 2 3 3 
3614 1 0.575513 0.500286 0.0982724 0 0 0 
3611 1 0.574807 0.507723 0.106695 0 0 0 
3612 1 0.578092 0.506125 0.101278 0 0 0 
3613 1 0.571652 0.50473 0.100651 0 0 0 
3616 1 0.579268 0.50199 0.0916736 0 0 0 
3610 1 0.579227 0.511941 0.106029 0 0 0 
3609 1 0.57827 0.510583 0.112474 0 0 0 
3607 1 0.584467 0.513016 0.110469 0 0 0 
3605 1 0.590685 0.516467 0.11024 0 0 0 
3604 1 0.586079 0.517098 0.105183 0 0 0 
3593 1 0.615718 0.514495 0.102042 0 0 0 
3602 1 0.591201 0.515855 0.0993143 0 0 0 
3600 1 0.5974 0.516291 0.094994 0 0 0 
3599 1 0.599508 0.51062 0.0926271 0 0 0 
3597 1 0.606123 0.507721 0.0943106 0 0 0 
3598 1 0.604226 0.513492 0.0957778 0 0 0 
3596 1 0.609921 0.512366 0.0924081 0 0 0 
3595 1 0.612967 0.509286 0.0972457 0 0 0 
3594 1 0.610212 0.515054 0.0992591 0 0 0 
4116 1 0.648819 0.516594 0.115948 0 0 0 
4114 1 0.649777 0.523381 0.118636 0 0 0 
4115 1 0.645688 0.519527 0.121369 0 0 0 
4113 1 0.644691 0.52685 0.119204 0 0 0 
8324 6 0.227002 0.488015 0.120885 2 2 3 
8550 5 0.536986 0.516807 0.0848019 3 -1 0 
3591 1 0.61694 0.517565 0.108594 0 0 0 
3592 1 0.612693 0.519455 0.104429 0 0 0 
3590 1 0.61767 0.524301 0.109107 0 0 0 
3588 1 0.625684 0.524315 0.10843 0 0 0 
3587 1 0.628218 0.524634 0.102693 0 0 0 
3589 1 0.621364 0.522517 0.104264 0 0 0 
3585 1 0.634888 0.521233 0.10124 0 0 0 
3586 1 0.632817 0.523237 0.107029 0 0 0 
3584 1 0.640091 0.523337 0.105138 0 0 0 
3578 1 0.645367 0.543242 0.108167 0 0 0 
3579 1 0.639623 0.541838 0.106088 0 0 0 
3582 1 0.639605 0.530685 0.106786 0 0 0 
3583 1 0.638336 0.527985 0.100671 0 0 0 
3581 1 0.638001 0.535197 0.102652 0 0 0 
3580 1 0.643582 0.536939 0.104688 0 0 0 
3562 1 0.661118 0.545937 0.11627 0 0 0 
3561 1 0.658818 0.540604 0.114025 0 0 0 
3554 1 0.675662 0.538858 0.113813 0 0 0 
3555 1 0.674639 0.540938 0.107764 0 0 0 
3556 1 0.673288 0.54564 0.112102 0 0 0 
3557 1 0.669476 0.547256 0.107157 0 0 0 
3558 1 0.665865 0.548418 0.111735 0 0 0 
3560 1 0.66009 0.544961 0.109319 0 0 0 
3559 1 0.665766 0.542336 0.111089 0 0 0 
5509 5 0.671036 0.553465 0.113488 1 -3 -2 
3549 1 0.68484 0.527423 0.116156 0 0 0 
3553 1 0.674223 0.533833 0.110373 0 0 0 
3551 1 0.681181 0.533091 0.113231 0 0 0 
3552 1 0.675605 0.531983 0.11664 0 0 0 
8915 5 0.177253 0.511643 0.125428 -4 3 2 
5008 5 0.582661 0.538854 0.102248 -1 0 3 
3576 1 0.645681 0.549927 0.111714 0 0 0 
6231 5 0.114073 0.571338 0.0447688 0 3 0 
5699 5 0.410253 0.576945 0.109292 -2 -2 2 
7671 6 0.663493 0.595487 0.0671969 -2 -3 -2 
5415 6 0.699591 0.608365 0.0810003 1 1 -3 
8417 6 0.743391 0.591405 0.0892042 -4 -5 5 
5612 5 0.315837 0.633233 0.128242 -1 -4 -1 
8078 6 0.946023 0.667465 0.089687 3 -3 -2 
8975 5 0.00794742 0.65837 0.107592 1 1 -3 
5309 5 0.717125 0.64632 0.124584 1 2 3 
8265 5 0.23942 0.665457 0.0994451 0 -4 -8 
7860 6 0.886049 0.674 0.0806572 0 -1 1 
8091 6 0.686424 0.717208 0.0917433 -5 -2 1 
6875 5 0.946191 0.66627 0.101313 0 2 1 
8826 6 0.138852 0.714735 0.15035 -3 2 0 
7633 5 0.192072 0.74669 0.127683 4 3 3 
8694 5 0.670959 0.655657 0.0703749 2 -6 1 
5190 6 0.976861 0.797031 0.0853376 3 -3 -1 
8222 6 0.0716642 0.751601 0.0993593 -1 1 0 
6122 6 0.0944134 0.788009 0.121074 -3 2 2 
6869 6 0.392885 0.757054 0.110116 -2 -2 -8 
7567 6 0.840519 0.727841 0.100777 1 -2 1 
8268 6 0.736625 0.759379 0.0952199 3 0 -5 
6742 6 0.877421 0.770587 0.10535 -5 3 2 
7516 6 0.604809 0.794381 0.0976399 -1 -2 -1 
7505 6 0.702945 0.851363 0.0714913 -3 -8 -3 
7764 5 0.151797 0.818629 0.10188 4 1 -2 
7099 6 0.444325 0.82552 0.0941713 1 0 -2 
7737 6 0.432808 0.848929 0.135593 4 -7 -1 
5487 6 0.596162 0.797346 0.111775 0 -2 -2 
5912 6 0.601503 0.86756 0.0807732 1 0 3 
7284 5 0.754749 0.834243 0.0669089 3 -4 7 
5640 6 0.471836 0.821006 0.110782 5 1 0 
6521 6 0.969305 0.850656 0.0923375 3 0 -2 
5212 6 0.290609 0.872524 0.0901889 -3 -1 0 
8544 5 0.569542 0.900754 0.0995571 4 -1 4 
7774 6 0.981907 0.899012 0.0957712 -2 -5 1 
5403 6 0.24437 0.995108 0.0921641 5 -5 -1 
6720 6 0.554461 0.973216 0.082569 0 -5 0 
7462 5 0.14033 0.990593 0.0894335 3 0 -2 
7922 5 0.384437 0.970666 0.0877714 3 -4 0 
7594 6 0.460472 0.972398 0.10836 -1 1 -1 
7125 6 0.560779 0.0266464 0.11071 3 -1 0 
6185 6 0.58564 0.00337638 0.157338 -3 5 2 
6201 6 0.423061 0.0557016 0.108017 -3 5 4 
5406 6 0.400115 0.0581247 0.14134 -3 3 2 
8619 6 0.773866 0.0668508 0.120342 -1 4 2 
8250 6 0.700549 0.079037 0.136707 -5 2 -3 
5507 6 0.409247 0.0984356 0.11235 -2 3 0 
6844 5 0.38406 0.117444 0.145919 0 0 2 
7481 6 0.602613 0.106579 0.100816 1 2 -2 
6289 6 0.0322147 0.167262 0.136536 3 -1 4 
7206 5 0.539255 0.155257 0.142137 -2 1 3 
8109 6 0.60074 0.179492 0.136499 -5 1 -5 
8938 5 0.455653 0.177241 0.108551 1 0 -7 
7181 5 0.669887 0.213648 0.173016 4 -2 -1 
6538 6 0.766556 0.191223 0.098245 -6 -4 1 
8494 6 0.814975 0.192806 0.131831 6 -4 0 
5792 5 0.199971 0.20815 0.138394 -5 -2 4 
5773 5 0.48682 0.208881 0.121708 -3 -1 -3 
6876 5 0.511504 0.239591 0.114614 2 3 -3 
7986 6 0.623729 0.239851 0.144429 1 1 -1 
8585 6 0.662308 0.207732 0.127865 2 2 0 
8011 6 0.866861 0.217319 0.122997 -1 -3 -4 
7428 6 0.927658 0.173787 0.140009 0 4 -2 
7537 5 0.374549 0.273139 0.138882 -6 -5 -1 
8808 6 0.672282 0.250421 0.0995148 -6 6 4 
5019 6 0.378928 0.248575 0.104925 2 -2 -1 
8648 5 0.820746 0.282454 0.121238 -3 0 -1 
7259 6 0.855628 0.249003 0.11447 2 5 1 
6493 5 0.397196 0.292724 0.169564 1 -4 1 
5566 6 0.909247 0.285556 0.112532 -1 0 -3 
6600 6 0.0335215 0.370924 0.132098 -2 5 -3 
6845 5 0.221496 0.292641 0.091938 -2 3 0 
6393 5 0.266478 0.375367 0.148618 5 5 4 
7949 5 0.573825 0.357935 0.109584 -4 -1 -1 
5160 5 0.0229954 0.350165 0.134002 -2 -3 -1 
8080 5 0.0623424 0.394049 0.0910977 3 4 0 
6096 6 0.747172 0.360264 0.112443 -5 2 -1 
8761 6 0.653206 0.412129 0.132319 -1 -4 3 
5287 6 0.492285 0.461655 0.112901 1 4 6 
5765 5 0.540131 0.458567 0.148939 -4 0 -1 
8115 6 0.58223 0.467916 0.137817 2 -1 3 
8636 5 0.668828 0.501712 0.12775 -1 -3 0 
4195 1 0.684307 0.46849 0.134148 0 0 0 
4194 1 0.684048 0.475052 0.135107 0 0 0 
8945 6 0.735258 0.446985 0.136905 2 -2 1 
6167 5 0.295 0.486031 0.132491 -4 4 -2 
3636 1 0.615242 0.49764 0.104276 0 0 0 
3649 1 0.612032 0.498505 0.129701 0 0 0 
3647 1 0.619301 0.498003 0.131086 0 0 0 
3645 1 0.626403 0.497027 0.128835 0 0 0 
7521 6 0.604627 0.505081 0.116773 -3 3 1 
3648 1 0.616323 0.503172 0.128913 0 0 0 
3646 1 0.623055 0.50204 0.127419 0 0 0 
3643 1 0.629782 0.496004 0.121888 0 0 0 
3642 1 0.624918 0.49974 0.119606 0 0 0 
3644 1 0.630049 0.501168 0.125529 0 0 0 
4095 1 0.634011 0.505642 0.133898 0 0 0 
4124 1 0.662335 0.504563 0.132078 0 0 0 
4126 1 0.669811 0.505346 0.134807 0 0 0 
4128 1 0.676455 0.507475 0.136912 0 0 0 
4193 1 0.678078 0.473268 0.133781 0 0 0 
4191 1 0.67393 0.475931 0.128277 0 0 0 
4192 1 0.679957 0.47686 0.129027 0 0 0 
4190 1 0.675179 0.48207 0.126643 0 0 0 
4189 1 0.67458 0.481391 0.133158 0 0 0 
4188 1 0.669177 0.483741 0.13172 0 0 0 
4187 1 0.673262 0.488524 0.130834 0 0 0 
6954 6 0.872139 0.499596 0.143032 0 1 3 
5627 5 0.995768 0.501679 0.11212 -4 0 0 
7707 6 0.116859 0.507448 0.151324 -1 0 2 
6777 6 0.209013 0.505162 0.121591 1 3 -1 
5057 5 0.420391 0.515678 0.0902194 1 -2 -3 
6941 6 0.521185 0.511651 0.127431 -2 3 0 
3635 1 0.610657 0.498331 0.108357 0 0 0 
3637 1 0.617832 0.500819 0.109117 0 0 0 
3650 1 0.610786 0.502859 0.13394 0 0 0 
3638 1 0.621686 0.496029 0.108334 0 0 0 
7027 6 0.572955 0.493738 0.126589 1 1 -1 
3639 1 0.620166 0.497492 0.114838 0 0 0 
3640 1 0.625726 0.501023 0.112471 0 0 0 
3641 1 0.626871 0.495207 0.115492 0 0 0 
4103 1 0.62432 0.515548 0.117022 0 0 0 
4102 1 0.621905 0.519877 0.120824 0 0 0 
4101 1 0.619056 0.514358 0.121949 0 0 0 
4100 1 0.620369 0.517241 0.127744 0 0 0 
4105 1 0.631543 0.514735 0.115219 0 0 0 
4104 1 0.628622 0.520081 0.116286 0 0 0 
4099 1 0.625341 0.514223 0.125418 0 0 0 
4097 1 0.629086 0.508562 0.129089 0 0 0 
4098 1 0.623869 0.511599 0.131016 0 0 0 
4117 1 0.648343 0.512829 0.121335 0 0 0 
4118 1 0.651975 0.509647 0.116632 0 0 0 
4112 1 0.647741 0.527678 0.113538 0 0 0 
4119 1 0.655657 0.510579 0.12198 0 0 0 
4120 1 0.650805 0.506616 0.123396 0 0 0 
3545 1 0.691417 0.52078 0.120608 0 0 0 
4123 1 0.662764 0.505318 0.125723 0 0 0 
4122 1 0.65664 0.506769 0.128172 0 0 0 
4125 1 0.666304 0.509449 0.130788 0 0 0 
4129 1 0.680922 0.508201 0.132877 0 0 0 
4121 1 0.656263 0.502788 0.123274 0 0 0 
3540 1 0.68407 0.521931 0.131788 0 0 0 
3542 1 0.690211 0.522367 0.127889 0 0 0 
3544 1 0.688764 0.516431 0.12455 0 0 0 
3541 1 0.688714 0.517764 0.132441 0 0 0 
3543 1 0.694282 0.51749 0.126898 0 0 0 
3546 1 0.688221 0.516013 0.117673 0 0 0 
3547 1 0.683823 0.520528 0.118831 0 0 0 
4317 1 0.708919 0.521816 0.140977 0 0 0 
4316 1 0.706323 0.519375 0.13582 0 0 0 
4318 1 0.709896 0.515407 0.140875 0 0 0 
4319 1 0.71388 0.519396 0.137411 0 0 0 
4320 1 0.716431 0.517385 0.142768 0 0 0 
4321 1 0.720816 0.516563 0.138233 0 0 0 
3548 1 0.685657 0.521985 0.112671 0 0 0 
4315 1 0.703634 0.524976 0.136266 0 0 0 
4314 1 0.699017 0.520502 0.137882 0 0 0 
4322 1 0.721881 0.512549 0.143215 0 0 0 
4323 1 0.722453 0.509448 0.138092 0 0 0 
4324 1 0.728062 0.512514 0.139436 0 0 0 
4325 1 0.726547 0.513013 0.133057 0 0 0 
4326 1 0.729777 0.518074 0.13476 0 0 0 
4327 1 0.728981 0.518554 0.128156 0 0 0 
3577 1 0.641013 0.545817 0.112006 0 0 0 
4107 1 0.637376 0.518877 0.115052 0 0 0 
4106 1 0.634321 0.517046 0.1202 0 0 0 
3575 1 0.64184 0.552637 0.116005 0 0 0 
3563 1 0.654936 0.54652 0.117484 0 0 0 
3564 1 0.658026 0.541854 0.121251 0 0 0 
4109 1 0.636163 0.525875 0.114108 0 0 0 
4110 1 0.641917 0.524349 0.112433 0 0 0 
4111 1 0.64186 0.530721 0.113922 0 0 0 
4108 1 0.639383 0.522506 0.119288 0 0 0 
5265 5 0.65114 0.550749 0.124711 0 1 3 
3565 1 0.652939 0.543876 0.124716 0 0 0 
3550 1 0.679358 0.526847 0.112762 0 0 0 
4334 1 0.715262 0.532025 0.136108 0 0 0 
4333 1 0.720498 0.529331 0.133352 0 0 0 
4335 1 0.720259 0.535251 0.138134 0 0 0 
4332 1 0.715291 0.52621 0.131204 0 0 0 
5777 6 0.813347 0.523137 0.118451 -4 3 -1 
8655 6 0.0273353 0.57574 0.103389 -2 1 2 
3373 1 0.586286 0.552881 0.127621 0 0 0 
3372 1 0.590052 0.557627 0.127993 0 0 0 
3371 1 0.587307 0.556224 0.133801 0 0 0 
3370 1 0.592636 0.559526 0.134673 0 0 0 
5254 5 0.596804 0.545499 0.132194 -2 2 0 
3374 1 0.592004 0.550444 0.127472 0 0 0 
3376 1 0.59415 0.551981 0.13427 0 0 0 
5662 5 0.660109 0.549963 0.122271 1 -1 1 
3574 1 0.647814 0.55155 0.117967 0 0 0 
3572 1 0.65259 0.556421 0.120155 0 0 0 
3571 1 0.650531 0.558785 0.12582 0 0 0 
3569 1 0.654457 0.554929 0.131263 0 0 0 
3573 1 0.646072 0.556685 0.120689 0 0 0 
3570 1 0.656519 0.556512 0.125496 0 0 0 
3568 1 0.658969 0.550551 0.128947 0 0 0 
3566 1 0.657566 0.543244 0.128896 0 0 0 
3567 1 0.65361 0.547651 0.131036 0 0 0 
4337 1 0.718349 0.542707 0.138229 0 0 0 
4339 1 0.718353 0.548549 0.141955 0 0 0 
8159 6 0.621308 0.556443 0.162569 -1 2 -2 
8590 6 0.832566 0.567983 0.0998931 4 -3 0 
5101 6 0.306095 0.601289 0.118599 -4 1 3 
5071 5 0.210383 0.645125 0.110738 -3 5 1 
5031 6 0.91743 0.622194 0.125367 -4 1 1 
5362 5 0.958728 0.594474 0.167073 7 3 1 
8464 6 0.154268 0.636525 0.137544 -1 0 3 
8249 6 0.260566 0.658675 0.126464 0 -3 0 
8857 5 0.306897 0.662384 0.110969 -1 -1 2 
8370 6 0.247219 0.668097 0.186423 -4 2 -2 
7744 6 0.89649 0.708293 0.106776 0 -1 -1 
6830 6 0.443603 0.713741 0.157311 -2 0 1 
7308 6 0.876049 0.682886 0.103438 -3 -2 -3 
7240 6 0.934652 0.693151 0.121664 2 4 -2 
8369 6 0.504057 0.686873 0.116608 0 2 -2 
5842 5 0.522584 0.771916 0.119434 -3 -2 1 
7518 6 0.973326 0.726178 0.110163 -3 -2 -5 
8665 5 0.179258 0.771386 0.148067 1 2 2 
7653 5 0.62818 0.830287 0.117146 3 -1 -3 
5201 5 0.439483 0.832939 0.122108 3 -3 3 
7849 5 0.600762 0.829182 0.169695 0 0 1 
5786 6 0.657882 0.805421 0.130316 -3 -4 -2 
6595 5 0.0138747 0.819711 0.119936 -2 -4 4 
6402 5 0.170516 0.825769 0.154676 -1 -6 1 
6264 5 0.536915 0.837841 0.146899 0 -1 -1 
8643 6 0.505984 0.836404 0.139313 -2 -2 -1 
7452 6 0.672988 0.869576 0.123905 2 3 -1 
7953 6 0.788095 0.86758 0.123372 4 4 -2 
7729 5 0.480977 0.867788 0.115709 3 -1 -1 
6880 6 0.92743 0.906969 0.136144 1 -2 2 
8553 5 0.14763 0.956203 0.0817238 -4 3 2 
7245 5 0.742205 0.890573 0.117697 1 -1 0 
8510 5 0.793796 0.918556 0.125296 0 -2 -2 
7583 6 0.883754 0.923057 0.101806 -1 0 -1 
6140 5 0.374611 0.929891 0.116309 0 0 3 
7969 6 0.690107 0.930752 0.165577 1 -4 0 
6078 5 0.963243 0.934687 0.159401 -1 5 -1 
5256 6 0.0514705 0.958056 0.115895 -3 0 -2 
5991 6 0.982463 0.982727 0.129436 -1 -2 2 
8478 6 0.784942 0.0257261 0.139895 -1 3 2 
7668 6 0.802197 0.00441149 0.15196 -5 2 -2 
8327 5 0.471741 0.0111058 0.129751 -4 7 5 
7507 5 0.659062 0.0062396 0.157273 2 2 -1 
7164 6 0.780721 0.00299787 0.132638 -3 -2 3 
8525 6 0.0338839 0.999031 0.165246 -1 2 -2 
5199 5 0.469525 0.0654614 0.099473 2 -3 -6 
6496 5 0.0702894 0.0954051 0.180768 3 -1 3 
5408 6 0.0815019 0.103177 0.151427 -2 4 4 
8446 5 0.566207 0.103307 0.17664 -2 -2 6 
5759 6 0.546356 0.161525 0.151566 -3 7 -4 
5086 6 0.940345 0.163996 0.145793 -5 3 7 
7613 5 0.752252 0.169093 0.181733 -4 1 4 
7790 6 0.70597 0.208719 0.160963 1 3 1 
6724 6 0.406599 0.210939 0.15124 4 -1 0 
6725 6 0.733881 0.270671 0.140651 -1 2 -3 
7728 5 0.266336 0.273024 0.161703 3 -1 0 
7857 5 0.315865 0.271131 0.167837 2 -1 5 
7540 6 0.361796 0.345802 0.137299 -1 -6 0 
8063 5 0.458348 0.349258 0.12866 3 2 -1 
6438 6 0.879642 0.353301 0.169507 -3 -1 3 
8832 5 0.301054 0.432592 0.18325 1 -8 3 
8861 6 0.320213 0.374416 0.150241 6 -2 4 
5982 6 0.744874 0.334355 0.201743 1 6 2 
5033 5 0.0538543 0.38677 0.142421 1 -4 0 
7842 5 0.377987 0.404051 0.204414 -4 5 2 