ITEM: TIMESTEP
20000000
ITEM: NUMBER OF ATOMS
9000
ITEM: BOX BOUNDS pp pp pp
-75 75
-75 75
-75 75
ITEM: ATOMS id type xs ys zs ix iy iz 
7079 5 0.0574116 0.994569 0.00851708 4 -1 1 
8369 6 0.25599 0.97686 0.0441312 2 -2 4 
6567 5 0.921177 0.0279701 0.978928 2 -2 -3 
7900 6 0.956015 0.0101056 0.0427846 1 -3 -1 
5122 6 0.152346 0.999642 1.00228 -1 -4 -6 
8617 6 0.324067 0.0654406 0.0360301 6 -3 -7 
6049 6 0.371842 0.0385169 0.0201276 0 2 0 
6703 5 0.699903 0.035703 0.0141589 -1 6 -5 
7920 6 0.971952 0.0515946 0.988587 -4 1 -5 
6339 5 0.317256 0.0512467 0.995141 -2 4 0 
7453 6 0.28201 0.111211 0.0172131 -2 -2 1 
6721 6 0.360567 0.0916062 0.97745 -2 1 0 
8734 6 0.894501 0.0928366 0.0135191 1 -1 -3 
7087 5 0.916588 0.120572 0.0117071 1 -2 -2 
7807 5 0.478459 0.135926 0.0357453 0 -5 2 
8881 5 0.887103 0.137547 0.957128 -2 1 4 
6101 5 0.449672 0.204676 0.00390106 -4 -5 1 
7753 6 0.170082 0.224817 0.986895 2 5 -2 
8971 6 0.488975 0.200355 0.0409831 2 4 -2 
6447 5 0.127011 0.249844 0.0195722 1 -1 -2 
5461 6 0.0621426 0.25742 0.0522773 2 2 0 
8860 6 0.381509 0.321419 0.0267535 -6 -2 -4 
6561 6 0.783822 0.29096 0.0476001 9 -2 4 
8154 5 0.2428 0.332766 0.988041 -1 -8 -1 
5726 5 0.33428 0.335761 0.036427 -2 -1 -1 
8636 5 0.516834 0.326937 0.00771019 -1 0 0 
7456 5 0.535581 0.330641 0.0452035 2 -1 -3 
7540 5 0.23078 0.368163 0.0320159 -5 3 3 
8867 6 0.853869 0.30706 0.00124471 -1 0 1 
8646 5 0.195613 0.401398 0.0120247 1 1 -3 
8540 5 0.676031 0.43687 0.992146 5 0 -4 
7557 5 0.840009 0.405399 0.0354832 4 -2 4 
5830 5 0.8372 0.432081 0.989411 2 -1 0 
7334 5 0.652842 0.420478 0.00748599 -1 -3 0 
8382 6 0.885703 0.446754 0.00383536 -1 1 5 
6129 6 0.086598 0.465512 0.0535818 1 -2 5 
7313 6 0.763891 0.496757 0.0133982 -4 -1 1 
5833 6 0.229834 0.479864 0.977141 -3 5 -5 
5810 6 0.318889 0.450849 0.00894846 5 -2 0 
5253 5 0.264935 0.480404 0.0258393 -3 -1 1 
6395 5 0.851825 0.508319 0.993675 -2 -2 -2 
7755 5 0.218654 0.510651 0.0410938 3 -4 -2 
5818 5 0.349969 0.513405 0.027902 -1 -3 -2 
5594 5 0.943008 0.543241 0.0577609 -5 2 -2 
5425 6 0.290536 0.570673 0.0148792 0 -4 -1 
5605 6 0.520628 0.553464 0.981516 4 -5 -4 
6093 6 0.524053 0.552844 0.991165 -2 3 3 
5766 6 0.565725 0.568294 0.998295 1 3 -2 
8546 6 0.86987 0.562428 -0.000527271 -6 -2 0 
6299 6 0.772516 0.589697 0.0249048 3 2 1 
5722 6 0.808334 0.586404 0.0374083 -1 0 -3 
6610 6 0.100703 0.683212 0.00388054 1 -1 -1 
7698 6 0.144257 0.616637 0.0152209 4 1 2 
6591 5 0.325911 0.701583 0.983101 5 -1 -3 
7487 5 0.383566 0.717949 0.00367257 -3 -1 -1 
8335 6 0.430901 0.655538 0.030167 -5 -1 0 
7345 6 0.420946 0.711748 0.0226254 -1 -3 -3 
7226 5 0.410798 0.710121 0.0199023 1 0 2 
5022 5 0.422513 0.735065 0.0111694 0 0 0 
8909 6 0.446479 0.740525 0.000131321 2 -1 -2 
7882 6 0.850117 0.717793 0.00907389 -2 -1 -2 
7644 6 0.152392 0.745578 0.979529 -1 -4 2 
6960 5 0.89483 0.752729 0.988685 0 -3 6 
7488 6 0.420427 0.761907 0.0125877 -1 -4 -4 
6219 5 0.159528 0.817397 0.0302966 -2 4 1 
5539 6 0.256997 0.819103 -0.000858981 4 0 5 
7781 6 0.497063 0.856711 0.0381729 4 -6 -2 
8801 5 0.415405 0.859031 0.977444 0 0 2 
7663 6 0.647153 0.877694 0.0340522 0 -1 4 
5516 5 0.00666526 0.859144 0.978541 -1 -3 5 
6683 5 0.17679 0.903255 0.0089619 2 2 2 
8445 6 0.314883 0.914602 0.000455571 3 2 -3 
7603 6 0.610172 0.885636 0.960001 -2 4 1 
6928 6 0.964711 0.878018 1.00138 -4 -2 -4 
5479 5 0.452306 0.893787 0.023398 -4 -1 1 
8579 5 0.533542 0.91904 0.0396032 -2 -3 -1 
8069 6 0.724544 0.981586 0.0319751 1 5 2 
7307 5 0.814054 0.925498 0.000928541 -5 -5 -3 
5421 5 0.974333 0.990009 0.0137317 2 -2 2 
5404 5 0.269717 0.0481483 0.0476238 0 -3 -2 
6345 5 0.227642 0.025286 0.0491947 2 8 -4 
5624 6 0.58687 -0.00140046 0.0362775 -6 1 -1 
7992 5 0.62449 0.0128765 0.0685052 0 0 -6 
5508 6 0.752742 0.032072 0.0554028 -3 -2 3 
7292 5 0.800432 0.0483573 0.0642068 1 0 2 
5287 5 0.0633016 0.10539 0.0104091 3 2 -3 
6054 6 0.180792 0.0304064 0.0136557 -1 -1 -2 
8085 5 0.0726088 0.130057 0.074357 2 1 1 
5067 6 0.241308 0.156599 0.0424207 0 1 1 
6224 5 0.893313 0.160063 0.0266992 0 0 5 
7193 5 0.0245595 0.204395 0.0861347 2 3 0 
5358 5 0.138764 0.191141 0.0755373 1 0 -2 
5236 6 0.287291 0.252453 0.0255873 2 -2 1 
6817 6 0.419281 0.246134 0.0232149 -4 0 1 
5167 6 0.842307 0.236582 0.0447147 -3 -1 -1 
7356 5 0.274563 0.241498 0.0391784 3 -5 5 
7998 6 0.576853 0.271148 0.0121801 0 7 2 
6887 5 0.0318118 0.25271 0.997405 1 -9 -4 
6105 5 0.885903 0.249623 0.0325258 -6 1 0 
6336 5 0.940952 0.246911 0.0229521 2 -1 -1 
7861 6 0.947883 0.339985 0.0363365 -1 0 1 
5821 5 0.106689 0.335796 0.0104417 -1 1 -2 
6855 6 0.757783 0.337487 0.0181202 3 3 0 
5014 5 0.538367 0.368898 0.997499 -2 1 2 
7945 6 0.446485 0.39166 0.0249245 4 2 -1 
8059 6 0.472147 0.448993 0.0397154 -3 1 0 
5323 6 0.546503 0.421367 0.0426389 1 -5 5 
7362 5 0.732895 0.415785 0.0282994 -3 1 0 
8921 5 0.531097 0.451074 0.0376025 7 3 1 
8616 5 0.674074 0.45032 0.0482045 0 2 2 
7051 6 0.676781 0.486098 0.0375063 -1 -3 1 
6682 6 0.462453 0.497841 0.0280423 -4 2 1 
6323 6 0.897612 0.498689 0.0532365 -4 -2 4 
8365 6 0.112952 0.585707 0.0341444 -2 3 -3 
7316 5 0.848822 0.579315 0.018609 6 1 2 
6571 6 0.946816 0.555451 0.00844597 3 -2 -3 
6326 6 0.483107 0.615935 0.0662885 0 1 2 
8283 6 0.82028 0.591277 0.0475665 5 -3 0 
8611 6 0.636838 0.665778 0.0497897 1 -1 2 
6453 6 0.8909 0.608839 0.0677398 2 -1 3 
8945 5 0.155257 0.665228 0.0655198 0 0 3 
8672 5 0.602853 0.65724 0.0190738 0 2 -1 
8390 6 0.747123 0.627658 0.0521775 -3 -2 1 
7574 6 0.852916 0.671622 0.0513185 0 0 0 
5654 5 0.210684 0.702634 0.0634697 -2 0 0 
8026 5 0.428477 0.667189 0.0266421 2 2 0 
7053 5 0.0948279 0.70844 0.0750248 -3 3 0 
6878 6 0.92813 0.707311 0.018285 2 0 2 
8417 6 0.123869 0.721602 0.0535308 -3 3 3 
5321 5 0.643864 0.699231 0.00977775 -5 1 -4 
7737 6 0.559179 0.707855 0.0429427 4 -6 5 
8120 6 0.868478 0.747811 0.0438442 1 4 2 
6787 5 0.141878 0.782189 0.986742 1 9 3 
5189 5 0.187902 0.769723 0.0670248 -1 -3 -5 
8375 5 0.271706 0.73168 0.0406258 1 0 -4 
8851 6 0.0794785 0.80847 0.0492884 1 2 4 
6736 6 0.64114 0.804133 0.0428638 0 7 3 
5315 6 0.699238 0.774594 0.0209536 -4 -3 -3 
8060 5 0.76383 0.822271 0.0470243 2 -1 -3 
7891 5 0.924502 0.842437 0.0560028 2 1 0 
8306 6 0.11455 0.846429 0.0380112 -1 -1 -5 
5345 6 0.381072 0.869653 0.0443824 -2 -3 0 
6281 6 0.489139 0.887708 0.0453419 -4 6 -1 
5922 5 0.877242 0.854859 0.0445837 -4 0 -1 
7069 6 0.236482 0.879534 0.0250612 0 -2 -1 
6687 5 0.25815 0.869875 0.0304096 -1 -3 -2 
7672 5 0.250063 0.907308 0.026549 1 0 6 
6024 6 0.515009 0.872027 0.0522339 6 -2 5 
8891 6 0.634411 0.86322 0.0563489 2 -3 -1 
8870 6 0.377031 0.929128 0.0288962 3 1 3 
7329 6 0.471955 0.938111 0.0342555 0 6 3 
6426 5 0.925519 0.891496 0.025747 1 1 7 
7470 5 0.939136 0.89757 -0.000422045 0 4 0 
5861 5 0.249151 0.924159 0.00342668 -1 -1 0 
8372 6 0.388613 0.932415 0.0415216 -1 1 0 
5010 5 0.659353 0.975969 0.0462345 -5 2 -3 
5455 5 0.712894 0.957182 0.0348731 2 1 0 
6715 5 0.838832 0.895216 0.0439854 -3 0 2 
7404 6 0.163585 0.968681 0.0274433 -2 -4 0 
6963 6 0.687077 0.986472 0.0371007 4 1 4 
5850 5 0.045479 0.992188 0.0566316 2 -1 0 
8795 6 0.0589814 0.986157 0.00564155 -1 -2 5 
8292 6 0.828469 0.994286 0.00126029 2 -5 -2 
8118 6 0.921973 0.0304938 0.0202605 -9 2 5 
6212 5 0.479352 0.985702 0.0414978 -2 2 -3 
5249 6 0.0468524 0.0526836 0.0486218 -2 1 -2 
7852 5 0.213961 0.0314691 0.0488537 2 -4 6 
7370 5 0.635434 0.0397893 0.0622978 0 -2 6 
8029 5 0.54464 0.0797635 0.0657564 -1 3 -3 
5438 5 0.230031 0.0671199 0.0613996 -2 -2 0 
6475 5 0.263972 0.070402 0.0636105 2 1 2 
7297 5 0.915721 0.0953244 0.0842966 -3 -1 -1 
8464 6 0.902927 0.128252 0.0329639 -2 -2 2 
5003 6 0.258463 0.159257 0.0378406 -5 -5 -2 
7653 6 0.385735 0.123259 0.0793531 -1 -1 2 
8759 6 0.633048 0.138977 0.083191 5 0 5 
6199 5 0.926134 0.158543 0.00633821 -2 3 -1 
5917 5 0.253914 0.15486 0.0635165 -1 0 -3 
6964 6 0.971958 0.1679 0.0623112 2 -2 -3 
5906 6 0.355389 0.194854 0.0879932 2 2 -1 
6548 5 0.614161 0.219992 0.0916345 0 6 -4 
8715 5 0.7528 0.199254 0.0634197 0 2 -2 
7943 6 0.121432 0.253915 0.0500063 0 -5 2 
8354 6 0.263048 0.246188 0.0482657 1 0 4 
8984 5 0.481234 0.232902 0.076623 1 -3 4 
7791 5 0.424921 0.249786 0.0750972 2 1 3 
8268 5 0.419135 0.239472 0.0485003 4 -1 1 
7083 6 0.546953 0.228645 0.048146 -2 -2 2 
5380 5 0.168193 0.258462 0.0359647 0 4 -2 
7101 5 0.220707 0.260683 0.0368078 -1 3 2 
8416 6 0.590957 0.252774 0.0763235 1 3 0 
7963 5 0.125094 0.269877 0.0510185 2 0 -4 
5527 6 0.133193 0.297778 0.0568281 -4 0 -2 
6931 5 0.749938 0.322305 0.062831 -3 0 5 
8298 6 0.131228 0.359341 0.0407829 1 2 -2 
6097 6 0.304384 0.374867 0.0462105 -1 0 0 
5155 6 0.469484 0.387712 0.0502266 0 3 -2 
8017 6 0.514001 0.339616 0.0637514 1 -2 -2 
5205 5 0.281352 0.401227 0.0799465 -6 -1 -3 
8559 5 0.460638 0.422199 0.0814039 1 2 1 
6570 6 0.850755 0.381725 0.0790852 -1 5 0 
7694 6 0.821772 0.428845 0.0875643 -1 -1 7 
7412 5 0.743732 0.462221 0.0528455 -1 3 1 
7153 5 0.913362 0.453248 0.055349 -2 4 1 
6282 6 0.796335 0.459293 0.0277678 -5 -2 -1 
8126 6 0.501873 0.534212 0.0732809 -1 5 4 
7659 6 -0.00188045 0.526744 0.0591597 0 0 0 
5858 5 0.151456 0.49685 0.0471865 -2 -3 1 
7491 6 0.539783 0.522953 0.0354901 -3 2 -2 
6263 5 0.0952795 0.574273 0.0643251 3 -2 1 
8469 5 0.922441 0.571628 0.0766565 -1 2 1 
7213 6 0.217232 0.608397 0.0397963 1 -1 -4 
8079 6 0.29933 0.582261 0.0783682 -2 0 1 
7633 6 0.108887 0.584358 0.0488561 5 3 2 
8150 6 0.829201 0.64871 0.0716157 1 1 3 
8846 6 0.254521 0.652443 0.0230275 -2 -3 1 
6999 6 0.464327 0.6594 0.0502484 1 -2 0 
7894 6 0.557336 0.659848 0.0602402 -1 5 2 
5877 5 0.605928 0.666714 0.0500029 -2 0 -1 
8570 5 0.167067 0.665123 0.0551229 -1 0 -2 
8218 6 0.6166 0.69163 0.0750845 0 0 2 
8742 5 0.383208 0.752674 0.0301186 -1 -2 -1 
7761 6 0.9582 0.78301 0.0788453 -7 4 -2 
6799 6 0.182868 0.768619 0.074417 1 0 -1 
7197 5 0.203015 0.777102 0.0351849 3 2 1 
5324 5 0.22403 0.780905 0.0732941 -1 1 -4 
5161 5 0.977048 0.80818 0.0722346 -1 -4 -4 
7564 6 0.655408 0.805276 0.0738486 -5 -1 -1 
7099 6 0.0349946 0.802671 0.063485 -2 -1 5 
5392 5 0.443475 0.78776 0.0558132 -1 -3 -8 
7190 5 0.317547 0.871285 0.0438128 4 1 3 
6385 5 0.919616 0.852931 0.0612336 -3 -5 -2 
6039 5 0.295511 0.87498 0.0527077 -3 0 2 
8090 5 0.536342 0.871699 0.0612026 -1 -4 6 
7095 5 0.741021 0.820104 0.048898 3 1 3 
5631 5 0.971495 0.886471 0.0354157 -3 1 3 
8669 5 0.423809 0.886037 0.0363467 4 2 4 
7267 6 0.0354769 0.922235 0.0446962 0 1 -1 
6112 6 0.339084 0.889398 0.0616116 -1 -2 4 
5965 6 0.481083 0.948772 0.0741254 -2 9 -3 
7759 5 0.701708 0.951999 0.999869 -1 3 1 
8614 6 0.163906 0.961755 0.0698794 -4 0 3 
7113 6 0.291734 0.904344 0.039753 -2 -4 0 
8859 6 0.770735 0.950207 0.0603943 4 -2 0 
6779 6 0.765383 0.961315 0.0650747 0 -2 -1 
6456 5 0.625501 0.977745 0.0490426 -4 2 -3 
7849 6 0.928145 0.0252491 0.0629676 -1 6 -1 
8809 5 0.897868 0.0654268 0.0641428 -3 -1 0 
6927 5 0.924453 0.0492235 0.121769 -3 1 0 
7721 5 0.015503 0.0685928 0.0739297 -2 3 0 
6710 6 0.566454 0.081164 0.0923426 2 -1 -5 
6247 5 0.681672 0.0575513 0.0421051 3 2 -5 
5601 6 0.272744 0.133831 0.0919644 -4 -4 -2 
7818 5 0.226325 0.20529 0.0752128 6 -2 -2 
7788 5 0.487602 0.145285 0.0376485 0 -1 -1 
6945 6 0.594468 0.182562 0.0843535 1 -1 -3 
5788 6 0.694588 0.195501 0.0854602 -2 1 7 
5162 5 0.78227 0.150651 0.0730262 5 1 2 
7523 6 0.717603 0.191492 0.0421607 -2 -3 -2 
8309 6 0.923298 0.172474 0.085314 -1 -1 2 
8663 6 0.759766 0.237127 0.0545766 -3 0 3 
5841 5 0.212685 0.281505 0.0470974 -2 -1 2 
6452 6 0.48155 0.287331 0.0649597 3 -1 -1 
8863 6 0.467927 0.245561 0.0972552 -2 0 2 
8521 5 0.931537 0.297332 0.0758958 4 -2 -1 
8907 6 0.43188 0.299087 0.091849 2 2 0 
5572 5 0.446968 0.239601 0.11364 4 5 2 
7413 5 0.518786 0.317688 0.0469743 -1 -2 0 
7084 6 0.878418 0.341104 0.0922868 -2 4 2 
8595 5 0.771353 0.340545 0.0586506 2 0 0 
8209 6 0.8423 0.326904 0.0611542 0 2 1 
8798 5 0.155907 0.397803 0.0992397 1 -4 2 
6541 5 0.440908 0.364291 0.0579482 3 0 0 
5158 6 0.443262 0.403584 0.0947244 -1 -5 2 
7942 6 0.853067 0.37559 0.0957574 2 1 6 
7050 5 0.721365 0.405931 0.0820553 0 5 4 
8700 5 0.26647 0.459587 0.0812194 1 -4 -3 
5589 6 0.632815 0.474556 0.121164 -1 0 6 
6603 5 0.820658 0.44335 0.0809775 -4 -4 2 
8661 5 0.86768 0.449172 0.0705972 3 -1 6 
7041 6 0.472553 0.493721 0.062447 3 1 4 
7949 6 0.755232 0.492417 0.0869873 3 -5 -2 
8448 6 0.271575 0.504352 0.0775662 -2 4 1 
8238 6 0.323861 0.544418 0.0914136 0 -2 -2 
8062 5 0.896966 0.556327 0.0314443 -3 0 -5 
7321 6 0.824376 0.610025 0.0958642 5 -8 2 
6066 6 0.270559 0.620273 0.0542578 -4 0 -4 
7072 5 0.858037 0.637836 0.0480828 0 0 -3 
6728 5 0.419622 0.674587 0.0888703 4 -5 2 
7222 5 0.388584 0.700809 0.0708084 -2 0 3 
6401 6 0.775525 0.657764 0.0570638 1 -3 -1 
5446 5 0.324567 0.693967 0.0828254 2 -1 2 
8262 6 0.729362 0.732512 0.0584199 -2 0 4 
8279 6 0.522716 0.757114 0.120262 -4 -2 1 
7706 5 0.697739 0.762462 0.0801933 3 1 7 
7162 6 0.684781 0.79821 0.0918574 0 9 2 
5269 5 0.987896 0.812866 0.089564 -1 4 0 
8122 6 0.307591 0.768345 0.0818487 1 0 6 
6952 6 0.131123 0.824867 0.104245 3 5 4 
7673 6 0.193718 0.824906 0.0413436 -1 0 1 
6410 6 0.279682 0.829712 0.0852207 0 4 -1 
8649 6 0.141155 0.866027 0.0902942 5 4 -1 
7088 6 0.339058 0.8031 0.0917186 -3 0 2 
8443 6 0.0662072 0.868037 0.105452 3 -1 0 
8560 6 0.192762 0.885868 0.0813994 0 -2 -3 
5079 6 0.2931 0.890926 0.0670804 0 -3 3 
7367 6 0.46817 0.939503 0.0822954 -4 3 -3 
5419 5 0.539464 0.955086 0.0666253 -4 -3 -1 
8046 6 0.63912 0.930558 0.0901382 2 0 -2 
6832 6 0.773292 0.888588 0.0819124 1 9 1 
7539 5 0.0559552 0.935286 0.0773356 -2 1 0 
6938 6 0.750286 0.952664 0.0462653 2 -6 1 
6421 6 0.973917 0.961939 0.0422947 6 -3 -1 
8783 6 0.353988 0.987177 0.082765 1 -4 -1 
7102 6 0.776793 0.994062 0.0888924 2 1 -3 
6755 6 0.860259 0.992981 0.0485542 1 -2 -2 
5472 5 0.604421 0.0376881 0.102286 -3 4 3 
6044 5 0.0716289 0.0378692 0.121572 0 3 -1 
8642 5 0.298471 0.0542725 0.120345 -5 6 0 
5030 6 0.981128 0.0822077 0.126938 3 -4 0 
7955 6 0.183053 0.108447 0.105965 3 2 0 
5099 6 0.382295 0.100811 0.0850159 1 2 8 
8947 6 0.0750568 0.148391 0.0971537 -4 -6 -2 
8533 6 0.216195 0.138007 0.107483 3 -1 1 
7119 6 0.581706 0.12334 0.109412 3 0 0 
7393 6 0.104045 0.206141 0.0792479 -3 1 4 
7219 6 0.160288 0.203839 0.096876 0 6 -2 
5311 6 0.378924 0.17903 0.117978 0 5 3 
8896 5 0.507839 0.237875 0.0919321 -2 -2 -4 
5874 6 0.483157 0.258543 0.121618 5 -2 0 
5952 6 0.851138 0.312167 0.122437 3 -1 0 
8807 6 0.0982969 0.334167 0.117666 2 -3 -1 
8995 6 0.989268 0.287914 0.104454 0 2 0 
6718 6 0.904832 0.318841 0.109563 0 1 1 
6114 5 0.444058 0.33977 0.13085 -4 -4 -7 
5522 6 0.511922 0.392153 0.130711 4 2 2 
6493 6 0.601523 0.405956 0.0962246 7 2 -3 
5720 6 0.853708 0.372194 0.106988 -2 6 0 
7641 6 0.358733 0.371554 0.129363 -1 -2 0 
8914 6 0.538582 0.449451 0.088642 -2 -2 0 
6659 6 0.551938 0.442228 0.154368 -4 2 2 
5082 6 0.806015 0.425653 0.113329 -4 2 0 
8576 6 0.115511 0.481268 0.0930727 0 -3 -1 
5597 6 0.199562 0.465269 0.0872858 0 1 -2 
8974 5 0.239527 0.438847 0.0997652 -1 -3 2 
5979 5 0.209745 0.470323 0.101095 2 2 2 
8428 5 0.267034 0.468885 0.0877739 3 -1 1 
5517 6 0.573958 0.455645 0.135336 -1 2 2 
6765 6 0.82741 0.478364 0.0931278 0 6 -6 
7166 5 0.23633 0.514965 0.113838 -3 -2 2 
8424 6 0.270505 0.560102 0.0795879 4 -2 -1 
6058 5 0.634381 0.589457 0.130681 0 2 0 
6429 5 0.814039 0.532594 0.0863671 -6 6 2 
6745 6 0.196704 0.589439 0.10836 -1 -4 -2 
6869 6 0.116043 0.617881 0.0838429 -1 -6 5 
6602 6 0.403692 0.64336 0.146598 -4 1 3 
5616 5 0.636676 0.619519 0.0632978 1 1 -1 
7951 5 0.956044 0.638383 0.107285 -2 -1 5 
8890 6 0.0352133 0.638268 0.0616885 2 -1 3 
5617 6 0.31719 0.67469 0.134133 0 0 -2 
7457 6 0.819541 0.625532 0.0929819 3 2 -3 
6653 6 0.97836 0.671315 0.0918329 -1 -4 4 
6693 5 0.36357 0.715955 0.144444 2 7 2 
8170 5 0.638323 0.685927 0.10494 -1 -1 0 
5635 5 0.718072 0.697318 0.0910299 1 0 1 
7363 6 0.782179 0.700358 0.0677597 -3 -3 0 
7004 6 0.314915 0.690454 0.121181 2 -3 2 
5866 6 0.656195 0.720252 0.117757 1 -2 7 
6448 6 0.660795 0.718563 0.0958592 -1 1 1 
7061 5 0.00279599 0.773406 0.107031 0 -5 0 
6387 5 0.0502234 0.748819 0.0931353 -1 -1 -3 
6107 6 0.115409 0.749922 0.138519 1 9 1 
8310 5 0.337504 0.73949 0.117144 -2 -4 2 
7701 5 0.379373 0.742333 0.112865 -2 1 1 
6077 5 0.871201 0.757251 0.128019 0 -1 0 
7873 5 0.0430841 0.820244 0.113999 -2 2 3 
7350 5 0.255864 0.79694 0.0956906 1 0 1 
8083 6 0.344941 0.812794 0.0959715 1 7 3 
8237 6 0.11354 0.783261 0.109046 -4 2 -1 
8893 6 0.539947 0.84236 0.110489 3 -1 -1 
8741 6 0.27953 0.877006 0.131873 5 2 0 
7635 6 0.332283 0.872169 0.0869422 5 -4 0 
5177 5 0.548644 0.87539 0.0905873 -3 1 -3 
6173 5 0.0443187 0.924821 0.0821496 2 3 0 
6025 5 0.420894 0.93192 0.111825 0 -2 1 
8541 6 0.485491 0.987319 0.0826445 2 -5 1 
7100 6 0.630006 0.978162 0.0706269 -4 1 5 
6186 5 0.886143 0.986864 0.122483 3 -2 -4 
8518 6 0.94724 0.975887 0.109953 -2 -5 -4 
7968 5 0.393554 0.996105 0.127484 -2 0 3 
8951 6 0.228124 0.986245 0.154301 0 1 -7 
6503 5 0.950708 0.0286262 0.139107 -2 -3 2 
7279 5 0.27742 0.0705629 0.095261 -1 2 5 
6625 5 0.327851 0.0444602 0.150927 1 4 0 
6983 6 0.47829 0.0607198 0.134166 -2 -2 -2 
6997 6 0.757122 0.083111 0.130323 0 5 -3 
6590 5 0.773424 0.104026 0.0949177 1 1 -4 
7368 6 0.341835 0.102482 0.156901 -2 4 -5 
6091 5 0.795666 0.129945 0.126855 -3 0 0 
8438 5 0.855744 0.129002 0.131138 2 1 3 
5176 6 0.145097 0.128862 0.117573 -1 0 -2 
5335 5 0.750953 0.149845 0.102493 0 11 9 
5811 5 0.996548 0.168278 0.102728 2 0 -3 
6977 6 0.960481 0.165274 0.13861 2 -3 6 
6550 5 0.198941 0.132845 0.122365 -4 5 -1 
8876 5 0.188498 0.143403 0.142237 3 2 -2 
7424 5 0.722569 0.174584 0.105572 -1 2 1 
6192 5 0.976239 0.161711 0.124106 -2 -6 1 
8288 6 0.677334 0.161262 0.132209 0 4 -4 
6507 5 0.716244 0.216397 0.127201 1 5 1 
5976 5 0.499364 0.229414 0.124664 0 -4 -2 
8542 6 0.623599 0.207455 0.13265 -1 2 -7 
5331 5 0.964035 0.219135 0.114184 1 2 -3 
7011 6 0.969294 0.210273 0.129147 -1 -2 1 
8702 5 0.272229 0.226681 0.108151 2 4 1 
8439 5 0.355078 0.212395 0.0919578 0 -3 2 
8455 6 0.834782 0.316806 0.117036 3 -1 6 
7913 6 0.472183 0.358759 0.122643 1 1 -1 
6411 5 0.532773 0.353922 0.126128 3 2 -1 
5300 6 0.543499 0.326361 0.107115 -1 2 0 
5108 6 0.743863 0.351745 0.12126 4 -2 -3 
7137 5 0.876416 0.374691 0.138523 -2 3 -1 
7134 5 0.905353 0.423255 0.116901 2 2 -3 
8997 5 0.232349 0.447914 0.128787 3 1 1 
7118 6 0.0468107 0.463104 0.097818 0 3 3 
8639 6 0.430155 0.457736 0.119487 -1 6 -4 
8187 5 0.424971 0.445871 0.110067 -1 6 -2 
8691 6 0.467089 0.444966 0.148214 -4 1 -7 
5373 5 0.39428 0.497299 0.11764 5 1 0 
7096 6 0.42008 0.490283 0.166997 -2 0 -1 
5864 5 0.654448 0.457108 0.138956 -2 -2 8 
6485 6 0.79142 0.531612 0.14593 -4 -1 4 
7922 5 0.729787 0.51085 0.138066 -2 -5 1 
7081 6 0.0273258 0.541317 0.0941155 3 0 3 
6739 5 0.882819 0.523596 0.12652 2 3 -2 
5276 6 0.983025 0.562329 0.142339 0 -3 -1 
7652 5 0.341965 0.571454 0.117598 5 5 1 
6651 5 0.759734 0.582514 0.116354 -2 -1 2 
7005 6 0.914357 0.612643 0.136918 1 -2 -1 
8961 6 0.406842 0.586036 0.124506 -1 0 2 
6508 6 0.420716 0.645422 0.137917 2 5 -1 
5672 5 0.681184 0.600296 0.105002 -1 5 -1 
7146 5 0.864856 0.610334 0.109282 7 -1 -3 
7410 5 0.0602121 0.621421 0.110881 5 -1 7 
6086 6 0.350648 0.701775 0.150443 3 5 -4 
8648 6 0.444856 0.638872 0.129248 -1 4 5 
6770 5 0.667251 0.628309 0.118071 2 3 5 
7478 6 0.110508 0.668181 0.126707 1 -1 3 
8133 5 0.405362 0.648104 0.132195 -5 -2 -3 
6273 6 0.657968 0.669467 0.148201 -1 0 1 
5789 5 0.596769 0.671037 0.118124 0 -1 1 
7133 6 0.138544 0.707043 0.156901 -3 -1 2 
7613 6 0.337173 0.720853 0.136873 -3 -3 -2 
8934 6 0.303245 0.695885 0.137857 -2 0 1 
8873 5 0.433629 0.709448 0.145006 -3 1 1 
5475 5 0.481563 0.770462 0.114863 -5 0 -3 
7743 6 0.392807 0.766606 0.0742404 -2 -5 -2 
5732 5 0.895663 0.779465 0.127389 0 -2 -3 
7513 6 0.048142 0.78686 0.129489 0 -3 0 
5660 5 0.776069 0.782176 0.119465 0 -2 6 
5509 6 0.810727 0.805272 0.141461 -1 -5 0 
8307 5 0.0128972 0.80747 0.122941 -5 -1 -1 
5303 6 0.0744992 0.815991 0.115421 1 3 0 
6624 6 0.0794091 0.860058 0.130185 0 7 6 
8115 5 0.332023 0.855516 0.0997373 -8 -1 -1 
5696 6 0.655869 0.887137 0.172082 -2 -4 -1 
6308 6 0.920525 0.905367 0.143675 2 -1 3 
8407 6 0.0710119 0.91205 0.112695 -1 -4 4 
6823 6 0.618391 0.892963 0.155504 -2 2 -3 
5070 6 0.134595 0.936596 0.0982644 1 2 -4 
6894 6 0.990986 0.00919745 0.101711 0 0 1 
5436 6 0.141957 0.0545778 0.125394 3 0 -2 
6350 6 0.942184 0.994188 0.153894 5 1 1 
8796 5 0.566374 0.0455517 0.108766 3 6 2 
7490 5 0.628756 0.0463581 0.14649 0 1 4 
8825 5 0.299652 0.0320028 0.115081 4 2 0 
5805 5 0.56283 0.00118606 0.170592 1 1 2 
5112 6 0.0400597 0.107548 0.142104 1 -1 5 
8180 6 0.924879 0.0838689 0.122028 3 2 -3 
5090 6 0.0384145 0.0755167 0.173875 4 -1 5 
5960 6 0.315122 0.0998531 0.130327 -1 2 0 
6859 6 0.90616 0.176544 0.118269 -4 1 -1 
8918 5 0.168375 0.130783 0.170952 -5 -1 -1 
6786 5 0.551085 0.167205 0.17539 2 1 3 
8803 6 0.286222 0.141063 0.151364 2 1 1 
8208 6 0.361952 0.160583 0.164169 -3 0 5 
7991 5 0.653667 0.188643 0.192662 -6 3 6 
7374 6 0.455954 0.206649 0.136771 -1 1 1 
5357 6 0.63864 0.231736 0.140457 1 -2 1 
6258 5 0.843084 0.260575 0.132411 0 3 -7 
6569 6 0.0746331 0.319169 0.150401 3 6 -3 
6354 5 0.402864 0.361668 0.15618 -1 -1 -2 
5317 5 0.966788 0.414444 0.13861 4 0 -2 
6748 6 0.78941 0.474876 0.152956 0 -2 -1 
7745 6 0.945253 0.426211 0.145232 1 -1 2 
5661 5 0.386286 0.510612 0.169511 0 -3 -1 
5187 5 0.286019 0.510162 0.147959 2 1 2 
8933 5 0.541846 0.508011 0.19323 1 2 -2 
5545 6 0.223042 0.584091 0.197651 2 4 -1 
7382 5 0.586724 0.590212 0.140131 1 -5 6 
6357 6 0.273255 0.602272 0.170347 -3 -4 1 
8721 5 0.695641 0.598736 0.191119 -1 -3 4 
8785 6 0.912473 0.58439 0.146575 -6 -1 -4 
6383 5 0.00673481 0.613435 0.11637 3 2 1 
5842 6 0.140221 0.588555 0.172895 3 -2 0 
7869 5 0.695655 0.660812 0.158898 2 1 1 
6037 5 0.715981 0.676394 0.140763 -1 -3 -7 
7336 5 0.821063 0.702977 0.155772 -4 0 0 
8845 6 0.0650987 0.706797 0.140821 6 1 5 
7159 6 0.230353 0.663852 0.161011 6 1 -3 
8112 6 0.549994 0.689105 0.143688 -2 -3 3 
8829 5 0.919984 0.695113 0.182865 -4 -1 3 
6712 6 0.0264746 0.708914 0.169934 -4 2 3 
8653 6 0.249355 0.71409 0.182148 -3 3 -2 
8139 6 0.355536 0.825704 0.15865 -2 -1 1 
5136 6 0.726384 0.807445 0.184837 -2 -4 3 
7242 5 0.1636 0.838892 0.196247 0 -4 0 
6488 6 0.328362 0.85084 0.143354 -1 1 1 
7057 6 0.128558 0.85715 0.136948 3 0 0 
8590 5 0.717819 0.852164 0.182604 -1 -3 1 
7122 6 0.509724 0.878656 0.162852 2 -3 0 
7305 6 0.658189 0.896061 0.164346 -2 0 -6 
5364 5 0.702734 0.872198 0.164555 1 5 -2 
7494 5 0.745631 0.881565 0.129776 4 2 3 
5245 6 0.49154 0.902979 0.167032 -1 0 -3 
8547 6 0.937541 0.929003 0.115093 -1 -2 -1 
6412 5 0.0917621 0.970527 0.136065 2 -3 4 
5520 5 0.411074 0.983923 0.133402 -2 -2 -1 
6797 6 0.443105 0.922406 0.164527 -1 -1 1 
5477 5 0.511699 0.951842 0.159416 -2 -5 2 
7826 5 0.877071 0.949956 0.167759 -2 2 0 
5955 6 0.97514 0.931421 0.155755 -2 0 -7 
6055 5 0.483659 0.958236 0.10296 1 -2 -1 
5648 5 0.641036 0.966447 0.161643 1 3 -2 
5290 5 0.931299 0.956892 0.198265 0 3 2 
6879 5 0.267043 0.978961 0.125813 6 1 5 
7842 5 0.36893 0.992334 0.158458 0 0 3 
7012 6 0.504624 0.994463 0.150736 3 3 2 
7598 5 0.496533 0.97291 0.140522 -1 0 -1 
7029 6 0.417923 0.0183472 0.153288 2 -3 4 
6543 5 0.975649 0.0391182 0.12118 -4 -2 -1 
6079 6 0.0233186 0.0570654 0.193431 -5 -1 4 
8483 5 0.417637 0.0504204 0.184766 2 -1 -4 
7620 6 0.541754 0.0301062 0.170555 -4 0 -2 
6539 6 0.670116 0.994625 0.160374 -1 -3 -3 
8258 5 0.805904 0.0760944 0.181833 -1 -4 3 
6907 6 0.0571996 0.069978 0.184741 -6 -1 -1 
5987 5 0.1276 0.0770739 0.178228 -1 3 4 
6671 6 0.497845 0.0566627 0.169902 0 1 3 
6909 5 0.761281 0.0917146 0.18458 -7 6 1 
5180 6 0.988657 0.0880348 0.14208 -6 1 1 
6826 6 0.16818 0.0949031 0.214683 -3 -1 1 
6754 5 0.241346 0.118231 0.206043 -1 2 0 
8103 5 0.496847 0.135944 0.211809 3 -2 6 
5990 5 0.662347 0.149268 0.190226 -3 2 0 
5729 6 0.847363 0.151659 0.202852 -6 3 -4 
6422 5 0.260765 0.167074 0.182522 1 -1 0 
7333 5 0.863719 0.211627 0.177973 1 -2 -5 
8351 6 0.708982 0.217203 0.189587 1 0 5 
7443 5 0.957452 0.196057 0.193331 1 2 2 
6113 5 0.487032 0.244773 0.166004 0 -3 -1 
8957 5 0.688008 0.261709 0.145459 -1 3 0 
5780 5 0.771468 0.228771 0.12223 -4 2 0 
8318 6 0.0781365 0.262064 0.158744 -4 0 1 
7559 6 0.625609 0.272062 0.138948 -1 1 1 
8712 6 0.850185 0.283816 0.15113 2 -1 4 
6023 5 0.299217 0.2934 0.18318 3 1 2 
8613 5 0.353083 0.253766 0.179228 1 -1 -4 
6996 6 0.789053 0.281103 0.155808 0 1 1 
6332 6 0.992132 0.270562 0.136496 -1 2 -1 
6231 6 0.227197 0.272954 0.170035 5 1 -1 
5024 5 0.278851 0.300723 0.187474 2 0 2 
6544 6 0.865186 0.320428 0.174726 0 1 4 
5715 5 0.247759 0.325533 0.161971 -2 -3 -1 
5548 6 0.950057 0.344228 0.153245 2 1 -2 
6166 6 0.0337893 0.344283 0.212517 1 1 0 
6355 6 0.498388 0.371341 0.192755 -1 4 -1 
7770 5 0.882363 0.344584 0.169678 -3 -6 0 
5697 5 0.0958405 0.401727 0.157876 -1 3 -1 
5825 6 0.203245 0.350944 0.155694 0 4 6 
6226 6 0.0242248 0.368709 0.159494 2 4 0 
7266 5 0.134042 0.395211 0.17172 1 2 0 
7773 6 0.316768 0.397219 0.185545 0 3 -2 
7806 5 0.251935 0.450294 0.143475 1 -4 -1 
8105 6 0.505893 0.423895 0.139272 2 -1 -1 
5820 5 0.638233 0.427614 0.146313 2 1 1 
6255 6 0.636265 0.447886 0.180103 0 0 2 
5529 5 0.188888 0.50332 0.140416 0 0 6 
6304 6 0.23379 0.475536 0.163542 -1 1 3 
8162 6 0.327381 0.474678 0.178629 -2 4 2 
7700 5 0.438254 0.497335 0.172038 -6 -1 4 
5637 5 0.519253 0.428214 0.169125 2 -2 -2 
7787 6 0.922696 0.476363 0.180795 -4 -1 -2 
6068 5 0.320537 0.518007 0.173814 -1 -2 -2 
5801 6 0.966194 0.537344 0.170558 3 4 2 
8033 6 0.366516 0.554414 0.131121 5 -2 5 
7979 6 0.459869 0.624768 0.192334 5 1 3 
7756 6 0.576237 0.621762 0.213438 3 0 1 
5553 5 0.757072 0.572128 0.147346 -7 1 -6 
8396 5 0.811296 0.575819 0.209299 0 -2 5 
7341 6 0.71306 0.580146 0.157756 1 -2 -1 
8137 5 0.723813 0.590944 0.170583 2 2 -1 
7552 6 0.459071 0.643215 0.185573 6 1 1 
8317 5 0.879242 0.646967 0.186456 2 3 -1 
6297 6 0.0972115 0.675359 0.163836 5 0 -2 
7970 6 0.843261 0.652947 0.148906 -1 -3 0 
5757 5 0.803068 0.641582 0.18514 -4 4 2 
7579 6 0.386014 0.677416 0.163949 1 -2 2 
5388 5 0.419751 0.713961 0.163504 3 0 1 
7850 5 0.111066 0.709712 0.149125 0 -3 -1 
6352 5 0.123795 0.730317 0.166433 5 3 0 
7527 6 0.545489 0.796367 0.150328 0 -3 0 
8618 5 0.618573 0.754282 0.173492 -3 -1 0 
8641 5 0.961404 0.768526 0.166169 0 -4 -6 
7036 6 0.559467 0.785553 0.13345 3 3 0 
6678 6 0.717831 0.764176 0.168089 0 0 -2 
6358 5 0.807552 0.829654 0.155609 2 5 0 
7114 5 0.472192 0.832621 0.200603 -4 -2 -3 
5023 6 0.86915 0.862609 0.19536 0 -3 -2 
7287 6 0.0649316 0.885932 0.136861 2 -2 0 
8086 6 0.237651 0.895327 0.149555 -4 0 1 
5135 5 0.766185 0.875811 0.163809 3 -2 1 
5622 6 0.75339 0.894123 0.169913 -1 -4 3 
6804 5 0.5164 0.897235 0.157903 -1 -1 -5 
6595 5 0.327637 0.905845 0.180073 3 -1 -3 
7720 6 0.133434 0.966367 0.159758 1 -3 0 
6272 5 0.922973 0.974467 0.163372 -1 -3 0 
5888 5 0.448324 0.951866 0.15227 1 1 -2 
7678 6 0.972234 0.989966 0.145 1 2 6 
7917 5 0.756204 0.019829 0.218929 2 3 4 
5307 6 0.813734 0.00727802 0.228605 2 -2 -1 
7015 5 0.616002 0.0512014 0.202693 1 -2 1 
5892 5 0.516112 0.0772746 0.220766 -2 1 -3 
6942 5 0.844633 0.064058 0.188488 -1 1 2 
5642 5 0.460514 0.107529 0.180308 0 0 0 
5602 5 0.699673 0.0728681 0.233512 2 -1 -3 
8232 5 0.749002 0.0609845 0.221424 -9 -6 5 
8458 6 0.388356 0.0975901 0.168064 1 -1 -2 
6249 6 0.203602 0.110074 0.192592 -3 1 3 
8441 6 0.614405 0.14398 0.182576 2 0 1 
8622 6 0.0161706 0.14907 0.188342 -3 0 -3 
5481 5 0.921836 0.156341 0.186861 -6 2 3 
5503 6 0.265048 0.144762 0.187278 7 2 -3 
8856 6 0.362503 0.151198 0.216988 -3 4 1 
6072 5 0.410441 0.143653 0.229772 -1 -2 1 
5596 6 0.92615 0.228144 0.207372 0 2 4 
7870 5 0.663545 0.200885 0.18201 2 3 0 
8522 5 0.911514 0.240155 0.212933 -2 2 -5 
5880 5 0.39319 0.253701 0.181231 0 5 -2 
6232 6 0.734517 0.245019 0.197617 -2 -2 2 
5328 5 0.74406 0.267352 0.192693 -5 3 -2 
8655 6 0.138022 0.242636 0.174138 0 -6 3 
5989 5 0.663024 0.293756 0.196672 -1 4 -2 
6109 6 0.70207 0.303483 0.196465 0 0 4 
5075 5 0.179828 0.34415 0.196693 4 2 -1 
7274 6 0.26469 0.332617 0.233731 -3 2 -1 
6252 6 0.40522 0.34638 0.203586 1 2 1 
5911 6 0.0633395 0.419243 0.202122 -3 -2 0 
5558 6 0.206108 0.37953 0.219982 1 4 -2 
7164 6 0.348927 0.373274 0.160226 1 5 4 
7019 5 0.418541 0.361812 0.22181 0 0 1 
8556 6 0.797028 0.427623 0.208036 -1 4 2 
5933 5 0.148783 0.412917 0.197974 3 1 2 
7815 5 0.839189 0.440997 0.177407 3 6 -3 
7207 6 0.0978414 0.426289 0.211121 -7 -3 -2 
7123 6 0.592371 0.479498 0.195137 -4 2 0 
7752 6 0.260718 0.465884 0.151604 0 0 -4 
7669 6 0.549941 0.460614 0.184722 -1 -1 8 
5485 6 0.706829 0.437817 0.206212 0 -2 -5 
6910 6 0.900212 0.471436 0.197198 2 3 -4 
7541 6 0.546785 0.495037 0.171912 0 4 5 
6716 6 0.0563818 0.48985 0.215846 7 2 1 
7425 5 0.59551 0.532208 0.162501 -1 0 4 
5831 5 0.757962 0.468051 0.184384 -2 1 -7 
8787 5 0.0169995 0.502855 0.167144 1 -1 2 
8924 5 0.136957 0.529433 0.179807 4 0 2 
6896 5 0.356152 0.512289 0.196572 2 0 -1 
5237 5 0.839099 0.547255 0.209674 -1 6 3 
8709 6 0.802166 0.508687 0.191892 -3 -1 3 
7230 6 0.914014 0.56379 0.21511 -2 -1 -1 
8939 5 0.421505 0.661702 0.212134 -1 -4 -2 
7465 6 0.0240793 0.664441 0.204998 -1 0 -1 
6183 5 0.132495 0.660142 0.199573 0 -2 1 
6424 6 0.676754 0.668224 0.188108 -2 0 2 
6157 6 0.438869 0.662709 0.202276 -2 3 2 
5556 5 0.817442 0.679448 0.201931 2 3 2 
5071 6 0.0847582 0.708065 0.184599 4 -5 -3 
5741 5 0.698204 0.729397 0.16078 1 -3 -2 
6455 6 0.59851 0.755031 0.171943 2 -1 4 
7439 6 0.721563 0.725739 0.23616 0 -2 3 
8434 5 0.324833 0.798977 0.16199 -4 3 5 
5937 5 0.80413 0.760686 0.142715 3 0 -4 
7642 5 0.663242 0.785712 0.20415 -2 -3 0 
8199 6 0.983843 0.801214 0.181716 -3 0 -1 
5942 6 0.355041 0.829268 0.175773 0 0 4 
5055 6 0.669362 0.828864 0.191144 0 -5 2 
8057 5 0.775048 0.84508 0.163228 1 -5 0 
5973 5 0.899746 0.801842 0.171664 0 5 -3 
5752 6 0.0201847 0.864147 0.157013 -5 -3 0 
5935 6 0.136185 0.877696 0.171369 0 3 -2 