ITEM: TIMESTEP
20000000
ITEM: NUMBER OF ATOMS
9000
ITEM: BOX BOUNDS pp pp pp
-75 75
-75 75
-75 75
ITEM: ATOMS id type xs ys zs ix iy iz 
6685 5 0.089434 0.0258791 0.00269753 1 -1 -3 
7675 6 0.376144 0.0448731 0.00407716 2 0 1 
6011 5 0.712801 0.0813706 0.989748 4 7 -7 
6574 6 0.561347 0.0983397 0.990708 3 2 -1 
8836 6 0.763459 0.139213 0.0285718 -2 2 0 
8480 5 0.13599 0.122309 0.00985515 0 5 2 
6206 6 0.264149 0.140265 0.979388 0 1 1 
8281 5 0.531128 0.170248 0.0164077 -3 0 1 
6991 5 0.685957 0.124499 0.055462 -3 -5 -4 
5863 6 0.338514 0.172624 0.986672 1 4 -3 
7776 5 0.745669 0.133539 0.00852746 -2 1 -3 
6757 5 0.837142 0.212668 0.0317694 0 -3 -5 
5665 6 0.877528 0.21643 0.991382 2 4 0 
7141 6 0.446313 0.214812 0.976425 2 3 1 
7337 5 0.536637 0.218233 0.0242581 2 5 1 
8093 6 0.511588 0.242809 0.969736 -4 -1 1 
6169 6 0.834324 0.184306 0.97501 -1 -3 -1 
6901 6 0.131009 0.276619 0.0104148 -2 4 0 
5979 5 0.131143 0.266473 0.997918 2 -1 4 
8506 6 0.188006 0.244933 0.0317277 3 0 2 
5338 6 0.56615 0.313788 -0.00246685 -5 -5 0 
5465 5 0.758641 0.271703 0.0198899 1 2 0 
6897 5 0.857136 0.302442 0.014389 1 -1 2 
6421 6 0.437567 0.338193 0.0299492 1 1 -2 
8075 6 0.503442 0.289573 0.985059 3 -3 -5 
5172 6 0.834571 0.357084 0.0261314 -2 3 1 
6370 6 0.93906 0.31657 1.00136 -3 -1 1 
6579 6 0.377331 0.377389 0.0209178 -1 7 0 
8611 6 0.434007 0.370165 0.982413 1 3 -2 
5646 5 0.603144 0.39727 0.00477682 4 -2 -2 
6395 5 0.0253349 0.393559 0.0185715 2 -2 1 
5349 6 0.306453 0.364449 0.0322588 5 1 -2 
8033 5 0.412622 0.383969 0.0219947 -3 -1 2 
6582 5 0.825709 0.413613 0.0307023 0 -5 2 
6475 6 0.277439 0.393415 0.0221148 3 2 2 
6166 5 0.901035 0.421351 0.0528571 -3 -3 3 
6767 5 0.479845 0.440069 0.0228671 1 0 4 
5461 6 0.562145 0.438312 0.974754 -2 1 0 
6392 6 0.949592 0.4111 0.0426437 2 1 -1 
6926 5 0.344028 0.503864 0.992927 0 2 4 
8668 6 0.504983 0.471527 0.0103804 -1 1 0 
8977 5 0.804807 0.454991 0.0369957 0 -1 3 
5781 6 0.398204 0.490896 0.0260547 2 0 2 
6645 6 0.0211835 0.504623 0.00857155 2 1 0 
7401 6 0.829237 0.530194 0.988648 3 -1 5 
5648 6 0.621291 0.609021 0.96204 -3 1 -5 
8558 6 0.686804 0.53443 0.00660371 -2 0 -8 
5838 6 0.10521 0.527124 0.0190528 3 5 1 
8152 6 0.903396 0.589621 0.0134852 -1 2 1 
8525 5 0.201143 0.588999 0.0465707 0 1 -3 
8078 5 0.264947 0.588753 0.995137 -4 0 0 
7320 6 0.176591 0.663969 0.993256 3 -4 -2 
6778 5 0.300602 0.645874 0.0223521 -2 6 2 
5137 6 0.72386 0.593953 0.0300085 -1 -1 -3 
6646 6 0.502657 0.695804 0.984529 0 0 3 
5104 5 0.580811 0.674636 0.0536786 0 6 0 
8932 5 0.945524 0.663583 0.989094 0 0 -4 
6814 6 0.165043 0.675213 0.994317 -6 1 0 
5952 6 0.572023 0.702706 0.00813251 -3 0 3 
6610 6 0.840201 0.702742 0.0449495 -3 2 8 
7283 5 0.697425 0.686817 0.0437337 -4 1 1 
7224 6 0.149609 0.753124 0.0291073 0 -3 7 
7052 5 0.00767571 0.739326 0.986223 1 -2 3 
8917 6 0.429352 0.757202 0.0417223 8 -1 -2 
6534 5 0.447063 0.75049 0.997148 0 -1 -1 
5903 5 0.12984 0.785175 0.039003 -2 2 0 
5986 6 0.38803 0.827508 0.0143723 -1 -3 5 
8263 5 0.0219571 0.78355 0.997159 -1 3 0 
6044 6 0.408563 0.83077 0.0323373 -5 -1 3 
6651 6 0.244923 0.865348 0.984584 4 -2 -10 
7745 5 0.0249144 0.906014 0.0133444 4 3 -4 
7056 5 0.483205 0.88497 0.0448816 0 -3 1 
8539 5 0.628149 0.90193 0.0417399 -5 -3 3 
5537 5 0.605687 0.897644 0.0387919 4 3 4 
8182 5 0.40036 0.92371 0.986047 2 -5 1 
7853 5 0.109186 0.0141504 0.0213986 1 0 0 
5576 5 0.555014 0.00456397 0.00197843 1 4 -1 
7014 5 0.669098 0.952348 0.0160328 -1 -1 1 
5094 6 0.0578709 0.946895 0.0554532 3 -3 -1 
5041 5 0.0633873 0.0166283 0.996674 -2 -1 -5 
7108 6 0.69357 0.989207 0.0183906 1 -1 -2 
7115 6 0.683593 0.0187462 0.041606 3 3 1 
7643 6 0.911883 0.00620849 0.978147 -3 2 0 
8598 5 0.601448 0.0359002 0.0499586 -2 -4 4 
5927 6 0.968756 0.0344771 0.0388992 -3 -1 2 
7570 6 0.489671 0.0712775 0.00356862 1 -2 2 
5910 6 0.570728 0.0848645 0.0516811 0 0 2 
7623 5 0.829208 0.0727477 0.0157611 0 2 -1 
6045 5 0.976742 0.10204 0.0341689 -5 -2 -1 
5901 6 0.487527 0.120338 0.0446172 -3 2 -5 
5466 6 0.0443092 0.127718 0.0167462 -2 -4 0 
5415 6 0.152075 0.165421 0.0236967 0 -2 3 
5012 5 0.466459 0.133295 0.0464467 4 -1 0 
8131 5 0.136022 0.168961 0.0582715 3 5 5 
6406 5 0.50381 0.165778 0.987109 2 -1 1 
6391 6 0.7033 0.19551 0.0443685 0 0 9 
8919 6 0.996939 0.218204 0.0217897 2 -2 0 
7622 5 0.87214 0.180548 0.0440602 -3 -1 1 
6184 6 0.0220314 0.263021 0.093063 -2 -2 4 
7162 5 0.506226 0.211878 0.0219536 1 2 -3 
7061 6 0.613362 0.261265 0.0566379 0 0 0 
5708 6 0.766802 0.221684 0.0748595 -3 -4 -6 
8301 5 0.462419 0.231121 0.0420186 3 3 -2 
6438 5 0.305139 0.322362 0.00310713 0 7 0 
8471 5 0.750599 0.223347 0.0398272 -2 -2 2 
8247 5 0.987132 0.276343 0.032939 -1 2 -3 
6715 6 0.126523 0.294174 0.0628348 -2 2 -2 
6636 6 0.166612 0.329751 0.0746171 -3 3 2 
8146 6 0.206654 0.309992 0.0283318 -4 -2 -2 
8460 5 0.283385 0.28381 0.0312597 -3 -2 1 
7279 5 0.223664 0.296197 0.0161307 -4 -1 7 
6665 6 0.908464 0.332044 0.0537557 -2 6 8 
5768 6 0.117895 0.397475 0.0650963 -1 0 2 
6560 5 0.278771 0.371957 0.0120689 4 2 3 
8290 6 0.869698 0.342743 0.0318578 3 -1 2 
6561 5 0.248748 0.414106 0.0121317 -4 1 -3 
8176 6 0.352346 0.40657 0.034775 -2 0 4 
6801 5 0.822679 0.402283 0.00655004 -1 -2 6 
6803 5 0.0666046 0.405013 0.0801435 6 -1 2 
6077 5 0.191262 0.41372 0.0249533 1 -1 3 
8521 5 0.987194 0.437634 0.0570867 -2 -3 -1 
5275 5 0.656209 0.47288 0.0450043 1 2 -1 
8609 5 0.721129 0.458041 0.0374631 0 -2 3 
7542 5 0.920729 0.459923 0.00829937 -1 -3 -4 
6264 6 0.570943 0.493341 0.01756 3 8 1 
8381 6 0.590591 0.463165 0.0519351 -3 -1 4 
5698 6 0.857229 0.532486 0.000964809 -1 2 -1 
7177 6 0.532183 0.516809 0.0110366 -3 -1 3 
6008 6 0.211662 0.528595 0.00062236 -1 1 1 
8187 5 0.159663 0.611547 0.0190792 -1 -1 1 
5817 5 0.811572 0.632633 0.0566207 -4 1 5 
7954 6 0.289785 0.631431 1.00004 -1 -2 0 
5340 6 0.0323021 0.665256 0.0314249 0 3 -1 
5128 5 0.0214852 0.687477 0.0527341 2 -2 1 
5948 5 0.381748 0.661952 0.0546684 2 1 -4 
6804 5 0.425673 0.698588 0.0679002 -1 -4 1 
5324 6 0.177445 0.677868 0.992552 4 0 4 
7646 6 0.359433 0.684986 0.038076 -2 2 -5 
7023 5 0.432409 0.726603 0.0674448 2 2 1 
8292 6 0.537937 0.736802 0.0284373 1 2 1 
7791 5 0.187378 0.695136 0.0384774 1 -3 -2 
8164 5 0.61227 0.696303 0.05353 -3 -8 -2 
8044 6 0.708829 0.714871 0.0266467 4 4 -1 
6599 6 0.00672762 0.720865 0.00408942 0 4 1 
7783 6 0.276004 0.71749 0.0458083 -3 4 2 
7084 6 0.235448 0.787802 0.0615277 0 -4 -1 
7933 6 0.633398 0.754901 0.0304264 -2 -1 4 
7975 6 0.344313 0.804744 0.0103289 -1 1 2 
6819 5 0.33321 0.804369 0.0467211 6 2 -1 
7795 5 0.62801 0.750499 0.0377073 -3 -1 -1 
6279 5 0.699901 0.790995 0.0169886 0 3 0 
6431 5 0.143614 0.832372 0.99625 -1 -4 0 
5528 5 0.742065 0.808941 0.0644667 3 2 -3 
8881 5 0.950265 0.802243 0.0466935 -3 1 6 
8839 5 0.208022 0.837935 0.0290009 2 -5 -2 
6150 6 0.289119 0.875157 0.00867112 -6 0 6 
6187 6 0.443488 0.912695 0.0308562 2 2 2 
8594 6 0.958185 0.893487 0.0506824 -6 -2 -1 
7484 5 0.4891 0.975859 0.0359454 0 -2 -2 
5303 6 0.955383 0.961697 0.0470549 -1 -3 -1 
6765 6 0.112538 0.941 0.0355353 -1 -3 -2 
8776 6 0.104311 0.947538 0.0558341 3 1 -3 
7301 5 0.398285 0.993153 0.986903 2 4 0 
5298 5 0.540451 0.998694 0.0392841 -5 -5 -2 
6036 5 0.403634 0.0426129 0.0321696 2 -2 3 
7812 6 0.940116 0.0201821 0.0381819 2 -1 3 
7866 5 0.351849 0.0752761 0.0640098 1 1 -2 
6098 6 0.368287 0.0550096 0.0610064 3 0 4 
8625 5 0.347533 0.0809526 0.046904 2 0 0 
6330 6 0.546632 0.0936789 0.0896196 -3 0 1 
7677 5 0.674048 0.077821 0.0491847 -4 -1 0 
5491 6 0.824085 0.0790038 0.0396022 1 4 -1 
8918 6 0.367905 0.150831 0.04948 -1 -1 -1 
5930 5 0.423495 0.163351 0.0383996 4 0 2 
5577 6 0.419331 0.155608 0.0950875 3 1 3 
8336 6 0.46466 0.132272 0.0795003 2 5 -3 
5370 6 0.266521 0.233199 0.0837895 0 -4 4 
8741 5 0.590078 0.202726 0.0596833 1 2 2 
8236 6 0.892694 0.16379 0.0538977 -1 2 -1 
7109 6 0.451556 0.230023 0.0389247 -2 -2 0 
5735 6 0.534101 0.230916 0.078898 4 0 -3 
6043 5 0.71387 0.206084 0.0528303 -1 -6 2 
7708 6 0.0899064 0.281435 0.047859 -2 3 2 
5384 6 0.272124 0.283958 0.0963682 2 0 -3 
7551 5 0.442459 0.293714 0.0580558 0 1 0 
7265 5 0.730423 0.311414 0.0550786 -7 0 1 
6039 6 0.650364 0.333143 0.0598321 -4 -1 0 
6412 5 0.688455 0.319195 0.0459145 -3 2 4 
5079 5 0.349564 0.384201 0.0628977 -1 1 -1 
7923 5 0.478995 0.375868 0.0648451 -2 0 5 
6638 6 0.255237 0.447111 0.0457386 0 1 3 
6672 6 0.968264 0.419666 0.063977 0 -2 1 
6119 6 0.691421 0.462532 0.0137675 5 1 1 
8445 6 0.0536845 0.50457 0.0388988 5 0 -6 
8124 6 0.196269 0.528666 0.0580238 -2 3 -3 
5805 6 0.195351 0.550913 0.0628538 0 0 1 
6403 5 0.623423 0.540013 0.0352311 -3 -3 7 
8636 5 0.0761666 0.591173 0.0166415 4 1 0 
5928 6 0.469006 0.559663 0.0421587 -2 0 -1 
5938 5 0.829933 0.541474 0.0784083 -1 2 6 
7413 6 0.86725 0.556974 0.0360858 4 1 -3 
6325 5 0.986108 0.553142 0.0661105 -4 3 4 
8593 6 0.160397 0.541774 0.0500872 3 -1 -1 
7133 6 0.200224 0.564394 0.087187 -4 7 3 
8602 5 0.212579 0.593769 0.0851925 0 -6 2 
6934 5 0.554239 0.58433 0.0757139 -2 -1 1 
5215 5 0.640459 0.574589 0.0469557 -1 2 -3 
5488 6 0.190475 0.611045 0.0367851 -3 -1 2 
5923 5 0.104018 0.601756 0.0651737 0 -5 -1 
6626 6 0.180646 0.641707 0.0754325 0 -1 -2 
8777 5 0.5876 0.675494 0.0377089 -4 4 3 
5647 5 0.697243 0.634318 0.0630569 -4 -6 6 
6535 6 0.028875 0.649068 0.0478642 3 -2 -3 
5988 5 0.491067 0.675737 0.0569209 0 -3 -2 
6209 5 0.662542 0.691618 0.0572388 -3 0 0 
5344 5 0.829892 0.667027 0.0490325 1 -8 -1 
8824 6 0.13584 0.731134 0.047987 1 0 2 
7289 5 0.64621 0.731444 0.0864387 1 -2 3 
8450 5 0.717976 0.701124 0.0615368 1 0 0 
8745 6 0.412053 0.726256 0.0534138 0 3 1 
6222 5 0.958032 0.730881 0.0821774 -2 1 -5 
7668 6 0.2976 0.773424 0.0329424 -1 0 -4 
8678 5 0.889159 0.744849 0.0601788 4 -4 3 
5036 5 0.25245 0.792199 0.0391821 2 -2 -1 
8297 5 0.537568 0.783343 0.043816 4 6 -3 
6514 6 0.615307 0.814749 0.0689969 -1 -5 -2 
8728 6 0.138061 0.784652 0.0684311 0 1 6 
5414 5 0.325917 0.852385 0.0517839 3 -1 -2 
8537 6 0.863722 0.821562 0.0869242 -3 2 -4 
8693 6 0.0959672 0.889027 0.0530404 0 -3 0 
6408 5 0.813517 0.861536 0.0361987 -2 1 -2 
6946 5 0.907148 0.896493 0.0946524 0 2 1 
7478 5 0.147254 0.883928 0.0205992 2 -1 -5 
6480 6 0.265156 0.877917 0.0759244 3 -1 -3 
7896 6 0.611294 0.890044 0.0295533 -1 -3 3 
8600 5 0.512804 0.953333 0.0575399 2 4 2 
8227 5 0.0570792 0.962448 0.061387 3 0 7 
8121 5 0.165327 0.927858 0.0500952 -1 -1 -1 
8726 6 0.324603 0.919817 0.0240885 -6 1 0 
5769 6 0.579783 0.995553 0.0700737 -1 2 0 
5968 6 0.613085 0.971656 0.0855625 2 6 -2 
8737 5 0.903324 0.0211972 0.03906 -1 -2 1 
7314 5 0.0829745 0.0388383 0.1045 0 2 2 
7007 5 0.323201 0.0611036 0.0813214 -3 6 -1 
6756 5 0.67467 0.036148 0.0971781 0 -1 -2 
5231 6 0.916926 0.0703065 0.0886317 -2 1 -2 
7618 6 0.00880469 0.0659577 0.0790541 -1 1 3 
6082 6 0.888674 0.0815035 0.111441 -3 -1 0 
5180 6 0.546245 0.146017 0.107642 2 -2 -3 
7728 5 0.798752 0.0972741 0.0927174 -4 -2 0 
5278 5 0.914865 0.0988438 0.0997103 0 1 1 
8407 6 0.384064 0.154587 0.0785742 -1 -4 -4 
5755 6 0.527928 0.154826 0.073774 -4 -5 3 
6747 6 0.998266 0.199754 0.0665179 1 3 2 
7527 5 0.68886 0.20527 0.0746387 -2 -1 3 
6781 6 0.785579 0.180438 0.0978284 -3 1 0 
7232 6 0.505977 0.227102 0.0919069 2 -1 -1 
8261 5 0.996613 0.230352 0.0829967 0 1 2 
6276 6 0.807742 0.210474 0.0775828 0 -2 2 
5758 6 0.748677 0.259178 0.0659045 -2 1 -1 
6343 6 0.374609 0.289317 0.0654603 -2 3 -1 
7996 6 0.45884 0.259826 0.0923801 0 0 0 
5343 6 0.509846 0.324925 0.0685515 -1 4 -3 
5909 6 0.466942 0.306133 0.0949584 3 3 2 
7066 6 0.949457 0.306331 0.0908838 -1 -1 1 
8167 5 0.736636 0.310769 0.110395 0 2 -1 
8444 5 0.00949484 0.353888 0.105378 2 -3 -1 
5365 6 0.147236 0.369367 0.0352948 -2 -1 2 
8999 6 0.959416 0.371713 0.0831273 0 -2 6 
7632 5 0.252192 0.364451 0.060609 0 7 -3 
7578 6 0.230681 0.368664 0.123328 -2 1 2 
7828 6 0.777019 0.451189 0.0280951 -1 -4 3 
5210 6 0.224195 0.448921 0.0744572 0 -5 -1 
6323 5 0.373375 0.4988 0.0934067 2 1 2 
8862 6 0.40554 0.471153 0.0907658 2 -4 -1 
7566 5 0.580876 0.471314 0.0781 -1 3 -4 
6468 5 0.01221 0.471029 0.0638967 0 -3 -4 
5868 5 0.346948 0.514348 0.0396699 1 -1 -2 
6717 6 0.375649 0.494359 0.101104 0 0 -4 
6682 6 0.945235 0.514173 0.131455 0 1 1 
5788 6 0.0157416 0.501 0.0917149 3 1 0 
8684 5 0.985915 0.513522 0.0831379 1 -1 0 
5232 6 0.29808 0.540678 0.108298 -4 -3 1 
7432 6 0.154252 0.612446 0.0996201 0 3 1 
8076 6 0.795251 0.58318 0.0938134 0 -1 -1 
5570 5 0.419072 0.654745 0.0895054 6 -4 2 
7711 5 0.112684 0.678231 0.0601976 0 1 0 
7147 5 0.346535 0.643338 0.0544974 4 0 4 
6316 5 0.81318 0.704484 0.0840545 -2 3 -3 
7698 6 0.972965 0.65666 0.0759288 -4 3 0 
5272 6 0.351562 0.67067 0.0932783 -2 1 -2 
5489 6 0.980973 0.711455 0.110488 -2 3 3 
5864 5 0.831297 0.743444 0.118859 -1 4 6 
7537 6 0.974124 0.759292 0.060257 -1 -1 0 
8809 6 0.0371308 0.766552 0.0993035 3 0 3 
8448 6 0.382904 0.76906 0.0856916 0 -2 2 
7525 6 0.184072 0.776139 0.0704477 -2 -3 -4 
8892 6 0.226173 0.84968 0.110421 7 -3 1 
5099 6 0.720598 0.87806 0.0707409 5 -3 -4 
8398 6 0.610644 0.858888 0.109692 -3 1 -2 
5667 6 0.762812 0.864021 0.0984494 -3 4 5 
8630 6 0.765193 0.867643 0.104566 0 1 2 
7063 5 0.83375 0.898267 0.0878284 1 1 -1 
7020 6 0.899882 0.888815 0.0617834 1 -5 6 
7034 5 0.994385 0.913816 0.0588773 -1 0 2 
7466 6 0.106799 0.892921 0.0642257 0 1 -3 
5183 5 0.276809 0.873031 0.0725503 -2 -1 -1 
6856 5 0.326398 0.927177 0.0297623 4 -1 -3 
8331 5 0.0312566 0.9266 0.0750148 -1 -1 0 
6474 5 0.189161 0.951346 0.118034 5 1 2 
7947 5 0.218442 0.936982 0.127619 -1 -4 -6 
5213 5 0.340436 0.956285 0.0852164 4 -2 -4 
8118 6 0.444484 0.95482 0.103858 1 0 -1 
8605 6 0.519393 0.983409 0.0696219 -3 5 -1 
6041 5 0.00529175 0.972101 0.121249 5 1 2 
5484 6 0.291377 0.968535 0.0492699 -3 -4 1 
7534 6 0.255914 0.981521 0.110039 5 2 -6 
5399 6 0.172358 0.0264716 0.0913536 3 -1 0 
7962 6 0.361645 0.0383288 0.119418 1 -4 -2 
7792 5 0.513871 0.0121073 0.140905 1 5 4 
5850 6 0.113806 0.0440842 0.11074 0 3 2 
7613 5 0.33299 0.0404568 0.139414 1 3 0 
7915 5 0.0905131 0.105176 0.0916862 2 0 1 
8780 5 0.26456 0.137498 0.125849 -1 -4 -2 
6099 5 0.416282 0.0890655 0.078597 -1 1 4 
5325 5 0.687971 0.0909503 0.0811244 -8 0 -6 
6861 5 0.780348 0.100461 0.10719 0 3 0 
5573 5 0.0162509 0.178706 0.116699 0 -2 4 
6583 6 0.333656 0.157262 0.0520295 4 -1 2 
7815 5 0.942182 0.143291 0.140075 -4 -1 2 
5065 5 0.980442 0.160953 0.113437 5 -1 -2 
6463 6 0.923835 0.162732 0.108464 -1 -3 -2 
8323 5 0.11427 0.195941 0.0700181 0 -3 -5 
5453 6 0.284715 0.171759 0.0817801 3 0 1 
5653 6 0.283428 0.213463 0.113876 1 -1 -1 
7840 5 0.89501 0.209809 0.107895 2 2 0 
5795 6 0.284491 0.203205 0.180012 4 1 -5 
8961 5 0.915926 0.186 0.119896 -1 2 1 
5269 5 0.72947 0.247379 0.122788 -9 -2 1 
5725 6 0.867625 0.254058 0.0913105 -2 6 -2 
7523 5 0.987143 0.259075 0.0667103 0 5 -1 
7873 5 0.0165876 0.354981 0.112434 0 2 -6 
6612 6 0.311026 0.346729 0.108544 -2 1 -2 
5219 5 0.550116 0.293452 0.0830685 0 1 3 
7271 5 0.715607 0.32099 0.104582 2 3 3 
7810 6 0.39708 0.371564 0.11457 4 1 2 
6230 5 0.215796 0.361466 0.118502 1 1 2 
7470 6 0.618862 0.351049 0.103267 1 0 6 
5457 6 0.90125 0.363385 0.0988518 -1 5 1 
6761 5 0.921855 0.377555 0.130004 3 1 3 
5683 5 0.292007 0.418303 0.095127 -1 -3 -3 
5506 6 0.620693 0.360363 0.088925 -4 0 -2 
8790 6 0.679414 0.354981 0.0424897 -3 3 -1 
5441 6 0.750839 0.415504 0.105644 -1 0 4 
7418 5 0.280436 0.392357 0.110256 1 -3 0 
7220 5 0.495849 0.457155 0.110767 3 1 -2 
5884 6 0.894863 0.51961 0.0929576 2 2 -2 
7865 6 0.0328378 0.49485 0.12029 5 -3 1 
7789 5 0.108942 0.498656 0.125309 -1 2 -2 
8541 6 0.716686 0.511772 0.0670913 -3 7 3 
6573 6 0.452077 0.542783 0.116001 -6 1 1 
8042 6 0.372565 0.558761 0.145835 2 -1 0 
6815 6 0.397915 0.51877 0.100883 -1 -4 3 
5813 5 0.932794 0.579582 0.0934747 -6 1 4 
7722 6 0.982808 0.651639 0.103973 2 0 -6 
6771 6 0.16855 0.659707 0.0729148 0 3 1 
7354 5 0.764922 0.654816 0.116314 -2 -4 -2 
6423 5 0.459167 0.635705 0.105011 -5 3 7 
6256 5 0.894459 0.63384 0.130949 -2 2 -3 
6623 6 0.66618 0.719176 0.171306 1 -4 4 
7315 5 0.171864 0.702378 0.0888277 -1 5 7 
8756 5 0.188024 0.723736 0.121992 2 -2 6 
6363 5 0.0482089 0.719354 0.0793512 -4 1 1 
6030 6 0.488581 0.713771 0.087665 2 -2 2 
8508 5 0.493808 0.715735 0.116591 -4 -5 2 
8586 5 0.547978 0.7286 0.126896 -3 3 7 
8168 6 0.22893 0.714375 0.0956423 1 0 5 
6269 6 0.342386 0.769358 0.129985 5 5 3 
6000 5 0.752161 0.722731 0.103867 2 -1 0 
5731 6 0.851982 0.777365 0.093887 1 -3 0 
6572 5 0.981992 0.752075 0.122554 -1 -4 3 
8730 5 0.282271 0.756963 0.0857048 -2 -5 0 
5906 6 0.716428 0.777004 0.054181 -2 -1 4 
8216 6 0.0895134 0.847175 0.124764 -3 -3 0 
8688 6 0.138965 0.842172 0.0888184 1 0 4 
7904 5 0.62324 0.832957 0.100821 -5 -2 -1 
6394 6 0.808592 0.855891 0.104125 -1 0 2 
6848 6 0.346168 0.856519 0.0950276 5 0 5 
5590 6 0.705951 0.862994 0.110685 2 5 1 
6314 6 0.222792 0.946285 0.0968079 0 -2 0 
5158 6 0.269609 0.912436 0.11391 -3 3 -2 
8359 5 0.493469 0.93621 0.116458 -3 -2 -1 
7690 5 0.920926 0.952915 0.0988714 7 -1 1 
6439 6 0.45394 0.925226 0.10745 0 4 1 
6528 5 0.779205 0.933856 0.127247 -3 -2 3 
8041 6 0.137891 0.983014 0.0853298 0 -1 2 
8441 6 0.617846 0.993646 0.0979664 0 -5 -3 
5332 5 0.828422 0.987099 0.0802366 0 -5 1 
7379 5 0.249148 0.0194987 0.155559 4 -5 4 
7364 5 0.363746 0.997942 0.123462 3 -3 5 
5185 5 0.368685 0.0360902 0.155621 -3 3 1 
6494 5 0.65616 0.0624505 0.145004 -2 2 -4 
8935 5 0.879403 0.0797326 0.110025 7 -5 -1 
8115 6 0.86548 0.0743354 0.0825224 1 3 -4 
6864 6 0.161234 0.0935462 0.10256 -1 -3 4 
7907 5 0.485721 0.0949291 0.103071 -2 3 1 
5922 6 0.530381 0.129218 0.142439 0 3 2 
6482 6 0.962543 0.16914 0.127004 -2 -1 5 
7986 5 0.161801 0.126996 0.134267 1 1 3 
6464 5 0.814278 0.143262 0.162923 -2 4 3 
7054 6 0.851901 0.122884 0.151207 3 -7 5 
7417 6 0.176973 0.170027 0.128172 4 5 1 
8313 6 0.304906 0.121913 0.0978295 -2 -2 3 
7529 5 0.475127 0.202217 0.09391 -7 0 1 
6773 6 0.306343 0.187485 0.144845 1 -2 -1 
5149 5 0.152015 0.224172 0.139067 -3 -3 6 
5088 6 0.296046 0.234062 0.111276 -2 5 -1 
8811 6 0.478119 0.238501 0.12758 3 3 7 
5500 5 0.617182 0.284208 0.127689 -4 2 0 
8008 5 0.820044 0.163951 0.134321 2 3 3 
6602 5 0.0328049 0.254599 0.105612 2 4 -2 
6366 5 0.118602 0.281817 0.133579 -3 0 -2 
5771 5 0.61862 0.264355 0.109773 1 -4 4 
6470 6 0.703673 0.242788 0.13346 -2 0 -2 
7158 5 0.946203 0.239533 0.121065 -2 6 8 
5464 5 0.404952 0.292564 0.109093 4 4 6 
7193 6 0.59565 0.335205 0.139632 -5 0 -1 
6277 5 0.216827 0.335637 0.108187 -2 -2 1 
7848 5 0.969313 0.344774 0.120789 -1 0 -2 
8063 5 0.668679 0.348868 0.166241 -1 4 1 
8831 6 0.758469 0.383693 0.135241 0 -3 5 
7088 5 0.837018 0.339004 0.123338 2 -4 1 
5376 6 0.125939 0.396794 0.131834 4 -3 2 
7002 6 0.188314 0.415328 0.144082 -2 2 1 
6433 6 0.153882 0.374279 0.163485 0 -2 0 
6907 5 0.288273 0.399587 0.140967 -2 1 2 
6564 6 0.555664 0.371023 0.129985 -4 3 -2 
8827 6 0.972413 0.422085 0.116932 -2 -3 -2 
8591 5 0.108739 0.401094 0.142825 6 -5 2 
6732 6 0.188169 0.413596 0.0996984 0 -3 -1 
7505 6 0.614946 0.404765 0.0992768 -2 -2 -9 
7380 5 0.687937 0.393293 0.150704 1 -1 1 
5995 5 0.85281 0.480006 0.0943712 -3 -2 -1 
7481 5 0.57959 0.495718 0.0962402 1 2 -2 
5974 6 0.830313 0.506492 0.1239 2 0 -5 
6754 6 0.7795 0.538105 0.154088 4 -1 -3 
7249 6 0.856559 0.48178 0.117141 4 4 3 
5493 5 0.0510989 0.547576 0.103145 -4 2 -2 
5860 5 0.739141 0.561869 0.111661 2 -5 2 
7634 6 0.977008 0.557151 0.0852858 -1 -2 3 
6315 6 0.392902 0.566397 0.100765 -2 -5 -4 
6305 6 0.387475 0.532009 0.1134 -4 0 -4 
6414 5 0.975955 0.574803 0.117401 2 2 -4 
6603 6 0.333912 0.611293 0.0889028 1 0 8 
8249 6 0.934135 0.578583 0.114928 -1 2 2 
5513 6 0.933227 0.608561 0.126774 -3 3 0 
8420 5 0.0424313 0.646359 0.105042 -1 -2 -2 
5305 6 0.0255366 0.614931 0.0830727 0 0 0 
6635 6 0.120269 0.578748 0.138094 -2 2 0 
5963 6 0.226995 0.625173 0.074902 5 1 -1 
7015 6 0.283537 0.612475 0.167194 0 -1 -1 
8596 5 0.0601666 0.656343 0.110624 4 3 -2 
6500 6 0.572612 0.608485 0.0996957 -5 0 4 
5705 5 0.634305 0.629376 0.0908544 1 -3 4 
5238 6 0.857408 0.642491 0.109229 0 0 -3 
8363 6 0.20284 0.703707 0.149451 5 -4 2 
6974 5 0.976029 0.715666 0.155055 -1 -1 -5 
8324 6 0.647703 0.668225 0.161895 0 0 5 
6147 6 0.889286 0.689567 0.139666 3 1 2 
6994 6 0.158822 0.728748 0.163667 2 -6 0 
7335 6 0.501621 0.746066 0.121983 1 3 0 
7124 6 0.679877 0.766569 0.105602 -3 2 4 
5828 5 0.99352 0.772273 0.186728 5 -6 -3 
8631 6 0.645784 0.775489 0.16375 -1 2 1 
5191 5 0.792837 0.821954 0.111671 -3 -7 4 
5242 6 0.0432429 0.793247 0.0930728 8 3 -5 
7068 5 0.744437 0.803743 0.128147 1 3 -2 
8270 6 0.0222739 0.828188 0.147695 3 3 0 
8805 5 0.0550256 0.83953 0.12955 4 0 1 
6941 5 0.384622 0.874464 0.105756 -1 3 -3 
7808 5 0.588435 0.884841 0.128174 -5 0 0 
6010 5 0.711408 0.862028 0.161149 0 1 0 
5659 5 0.921239 0.85584 0.0962182 -3 2 0 
7191 6 0.436636 0.922964 0.120273 -3 -6 0 
5607 5 0.711311 0.869213 0.105399 0 1 -5 
6080 6 0.270857 0.939704 0.167916 -3 -1 1 
7921 6 0.33939 0.957979 0.135621 0 -4 -1 
6226 5 0.282551 0.97331 0.106569 0 5 0 
8787 6 0.391241 0.942122 0.117031 -2 6 10 
8368 6 0.67163 0.970276 0.107486 -5 0 5 
8317 6 0.664683 0.00228555 0.0874613 1 -2 -1 
6630 6 0.808475 0.00993123 0.140651 0 1 2 
6289 5 0.395275 0.0197509 0.152391 3 1 -1 
5794 5 0.352418 0.0449313 0.134596 3 3 -4 
6444 6 0.581994 0.0436071 0.145759 -6 1 -2 
5557 6 0.000271965 0.0708728 0.138427 3 1 1 
7914 6 0.123526 0.127243 0.155245 1 2 -2 
8238 6 0.366757 0.159541 0.178527 -4 -4 4 
8027 5 0.288713 0.17189 0.161681 -1 1 0 
8337 6 0.287915 0.18552 0.194253 4 -3 -3 
6281 6 0.520159 0.188524 0.145877 -5 2 5 
5199 6 0.61765 0.188356 0.122826 0 -1 1 
8388 5 0.171836 0.263166 0.190025 2 0 -7 
7720 5 0.282904 0.233624 0.123803 -3 2 3 
6170 6 0.296767 0.21111 0.129582 2 0 -1 
6089 6 0.894273 0.193502 0.133598 3 3 -2 
5734 5 0.833945 0.239956 0.124644 0 3 6 
5297 6 0.888684 0.228961 0.154517 -1 0 1 
7649 6 0.00939226 0.299322 0.175147 3 0 2 
7718 5 0.449044 0.295027 0.151782 1 4 1 
6216 6 0.441556 0.291118 0.119008 2 -3 -2 
6588 5 0.897799 0.257531 0.157627 -4 1 4 
8903 5 0.687923 0.306046 0.131449 0 3 4 
5662 5 0.768088 0.29753 0.150102 -1 3 1 
7455 5 0.295671 0.330569 0.148987 -3 2 4 
8189 5 0.077618 0.330775 0.14353 1 -1 4 
5706 5 0.551551 0.337493 0.156103 -1 1 2 
6275 6 0.692181 0.34166 0.159618 3 0 0 
7669 6 0.813249 0.361813 0.156699 -1 -5 -2 
5053 6 0.978796 0.36276 0.126146 -3 0 6 
7807 5 0.180178 0.357418 0.202665 -3 2 0 
8385 5 0.387079 0.347754 0.159989 -2 -4 1 
6541 6 0.144623 0.415704 0.159062 1 -6 -1 
6018 6 0.582779 0.40035 0.144109 4 3 0 
5159 6 0.91143 0.382839 0.121557 -3 2 3 
8197 5 0.017742 0.412341 0.132651 0 3 -2 
8319 5 0.159817 0.396815 0.156489 5 -3 5 
8426 5 0.340728 0.442464 0.137432 1 -4 3 
8979 6 0.399393 0.438219 0.132086 6 3 4 
8271 6 0.51793 0.447006 0.145665 -1 -2 -1 
8551 5 0.208548 0.481392 0.158597 -3 0 -1 
7199 5 0.916978 0.481982 0.147312 1 2 4 
6326 5 0.051494 0.488279 0.153679 1 0 1 
5764 5 0.485385 0.4809 0.116914 -1 1 4 
6852 5 0.982545 0.527484 0.168493 -2 -1 2 
6881 6 0.168569 0.514036 0.130555 -4 0 -4 
7375 5 0.18871 0.547791 0.147099 5 -4 -8 
7650 6 0.080627 0.515911 0.182813 7 2 -1 
8128 6 0.280124 0.531649 0.125205 -2 1 0 
5956 5 0.559247 0.507401 0.156238 -2 -3 1 
5584 5 0.953853 0.538133 0.148845 3 0 0 
7095 5 0.306671 0.572531 0.122679 -1 2 -1 
5718 5 0.00715704 0.628718 0.128207 -3 2 2 
8091 6 0.0716239 0.598685 0.150335 -1 -3 -4 
5733 6 0.282572 0.610813 0.192729 0 -2 5 
5679 6 0.295504 0.587598 0.122675 5 4 -3 
7223 6 0.204702 0.649262 0.155862 0 1 -7 
5184 6 0.250886 0.632059 0.123058 0 4 -1 
7973 5 0.833026 0.655936 0.166804 0 -2 0 
5102 5 0.118723 0.626978 0.138768 -4 -3 -2 
5001 6 0.84232 0.681391 0.120899 2 -1 2 
8484 5 0.893235 0.665858 0.182627 2 6 3 
8658 6 0.982014 0.675084 0.149912 2 -1 1 
7586 5 0.862207 0.685252 0.142076 2 -3 1 
7631 5 0.857876 0.683981 0.149977 2 -1 0 
6633 6 0.166949 0.708381 0.159621 0 1 2 
5782 5 0.171225 0.694701 0.131014 0 -3 1 
6558 6 0.611129 0.747664 0.118807 1 2 4 
7920 5 0.831296 0.728227 0.141328 -5 5 -2 
5433 6 0.292354 0.783592 0.116571 0 0 1 
6103 6 0.709388 0.764041 0.170831 2 0 -1 
5314 6 0.868434 0.790602 0.161984 -2 -2 -1 
5999 6 0.11639 0.791401 0.175684 3 -3 1 
6220 5 0.235288 0.723221 0.140401 2 -1 -3 
8483 5 0.54616 0.793129 0.14519 2 -3 2 
8459 5 0.911606 0.764975 0.189876 0 -6 -1 
8357 5 0.582072 0.853356 0.133863 3 3 0 
7055 5 0.804207 0.825761 0.142749 0 -10 -2 
7094 5 0.861611 0.856805 0.140235 2 0 1 
8377 5 0.152081 0.79703 0.112638 0 1 -1 
7157 5 0.436937 0.807611 0.148028 2 -4 1 
8219 6 0.66366 0.839034 0.12263 -7 -2 4 
6175 5 0.644931 0.838406 0.104506 -2 -2 -4 
8663 6 0.958634 0.835788 0.120402 3 -1 -4 
8409 5 0.142887 0.838339 0.153105 0 -4 -3 
8727 6 0.209103 0.897195 0.129385 -4 0 -1 
7027 6 0.474715 0.890614 0.146383 0 2 -1 
5756 5 0.0176703 0.872239 0.122951 -5 2 2 
5477 6 0.41256 0.851477 0.123932 -2 0 0 
7847 6 0.484306 0.885201 0.135083 0 1 5 
6369 6 0.61544 0.877837 0.174956 -2 -2 -2 
5194 6 0.854426 0.908577 0.161246 2 -4 -1 
6639 6 0.393449 0.0167998 0.135522 -6 0 1 
7392 5 0.198825 0.997759 0.122062 0 -1 4 
6073 5 0.414192 0.00538023 0.152873 -1 6 -2 
8252 5 0.481907 0.994474 0.138235 -2 6 4 
8923 5 0.570349 0.0191498 0.170618 0 1 -1 
7409 6 0.79902 0.977193 0.156757 3 -5 3 
6368 6 0.334849 0.0650016 0.152321 -4 3 -2 
5310 5 0.59207 0.0450696 0.166089 1 -1 0 
8123 6 0.0983058 0.112539 0.159141 7 -2 0 
7343 6 0.375103 0.045558 0.188046 -5 -2 2 
5008 6 0.960949 0.104658 0.177316 1 1 0 
5881 6 0.402388 0.146719 0.191697 -2 -1 1 
8966 6 0.598879 0.159606 0.199182 6 -3 -3 
5277 6 0.497059 0.181993 0.141386 -5 -1 -4 
7503 6 0.639963 0.165679 0.200227 0 -4 -2 
8725 6 0.765546 0.138896 0.185403 4 -2 -3 
6146 6 0.0909302 0.216922 0.174414 1 0 -5 
8374 5 0.383303 0.235031 0.148653 -1 3 1 
8229 6 0.822804 0.229791 0.139501 -2 -1 0 
8155 6 0.0455689 0.222747 0.182128 1 2 0 
8618 5 0.16254 0.230346 0.176141 -2 2 0 
7918 6 0.117726 0.303367 0.207086 0 0 0 
8946 5 0.549944 0.227185 0.166834 -1 7 6 
8230 6 0.912472 0.209866 0.154163 0 -2 1 
6962 5 0.349639 0.247169 0.14372 0 7 -1 
5944 5 0.569397 0.274372 0.177215 4 -1 1 
8571 6 0.711506 0.26283 0.15995 0 -3 -1 
5560 6 0.0300502 0.285876 0.20154 -1 9 -2 
7142 5 0.423701 0.309872 0.153489 -4 1 0 
8734 5 0.454364 0.289261 0.172348 1 -4 7 
5870 6 0.461587 0.308607 0.157316 2 -1 -3 
5523 6 0.737977 0.34175 0.155375 0 2 2 
6321 5 0.113259 0.353687 0.144381 -6 0 2 
6459 5 0.585817 0.341285 0.157137 1 -5 -1 
6485 5 0.885454 0.361406 0.190242 -1 1 2 
6460 6 0.796562 0.388726 0.195308 1 -3 5 
6355 5 0.278308 0.424364 0.156545 -3 5 -3 
6783 6 0.303326 0.437588 0.183716 -3 -1 3 
5262 5 0.435119 0.430562 0.17319 -3 -2 1 
5985 5 0.487087 0.447655 0.141972 6 1 0 
7153 6 0.223011 0.481031 0.174616 1 -2 -7 
5553 6 0.734733 0.465578 0.188609 0 3 0 
8584 6 0.536708 0.497351 0.179679 2 10 0 
6850 6 0.596178 0.506643 0.194601 2 4 0 
7328 6 0.725717 0.503591 0.22053 1 2 2 
7419 6 0.82677 0.538787 0.166645 -2 4 3 
7403 6 0.913164 0.549714 0.158135 -4 -6 4 
6233 5 0.932565 0.526216 0.194334 -2 -1 3 
6462 5 0.0990023 0.538846 0.140816 3 -3 1 
6173 5 0.458248 0.56031 0.162186 -2 -1 5 
7407 6 0.638338 0.555659 0.181889 -2 -3 0 
5855 6 0.809495 0.583274 0.192991 -1 3 2 
6550 5 0.247007 0.571903 0.194857 -1 3 5 
7396 5 0.760507 0.568184 0.176135 -3 6 -4 
8771 5 0.587061 0.586255 0.148735 3 3 -1 
6331 5 0.60492 0.596765 0.178013 1 1 -5 
6902 5 0.670985 0.601078 0.162188 -1 -1 2 
5526 6 0.429957 0.607143 0.162695 -1 -4 -1 
5878 5 0.412495 0.662481 0.152612 0 3 5 
8753 5 0.182044 0.681749 0.175894 0 -2 4 
8415 6 0.762272 0.65043 0.202063 -3 -1 -13 
5119 6 0.475607 0.731483 0.19501 3 -2 3 
8522 6 0.572785 0.647535 0.18199 -2 1 2 
6461 5 0.720533 0.724782 0.167529 -2 6 5 
7950 6 0.613616 0.721329 0.224533 1 2 4 
7580 6 0.971865 0.717155 0.203949 0 1 2 
7774 6 0.536552 0.744916 0.162504 1 -1 -2 
6070 6 0.0371537 0.79999 0.209176 -2 2 3 
6896 5 0.495604 0.800135 0.126123 2 5 -2 
7236 6 0.347523 0.807728 0.18711 -2 3 0 
6235 5 0.128326 0.814583 0.185276 4 4 0 
7953 6 0.10853 0.863892 0.175522 0 2 2 
5940 5 0.632481 0.873016 0.164911 3 -1 4 
5049 6 0.445487 0.874975 0.174367 1 -4 0 
5848 5 0.244138 0.905688 0.161498 0 1 0 
7592 6 0.870544 0.911025 0.161432 -1 1 -1 
8951 6 0.162873 0.916329 0.165939 -3 0 -4 
5352 5 0.629404 0.915732 0.149142 6 -3 -3 
6555 5 0.378415 0.977777 0.203189 5 2 1 
5585 5 0.772167 0.903289 0.180222 1 -2 1 
5971 5 0.864185 0.946917 0.193091 -4 -4 1 
6487 5 0.70613 0.970688 0.167463 2 0 1 
7044 5 0.756542 0.954856 0.194178 -2 0 1 
8453 6 0.028422 0.00917288 0.175905 2 -1 0 
8358 6 0.192546 0.0117102 0.158374 -1 -1 -1 
6917 5 0.378193 0.988777 0.181986 -3 -2 1 
8973 6 0.653573 0.976481 0.122636 1 -1 -1 
7691 6 0.947797 0.000364613 0.178869 2 2 -2 
8209 6 0.4844 0.0105944 0.228047 -1 2 -1 
8507 5 0.84709 0.00527766 0.206613 1 -5 0 
6137 6 0.96127 0.0186557 0.181592 -2 1 1 
5358 5 0.598276 0.0253842 0.191127 2 -3 3 
6551 5 0.607347 0.0499048 0.255378 -2 1 -2 
6835 6 0.424282 0.0770366 0.169617 0 2 2 
5379 6 0.659148 0.121924 0.203597 3 5 -4 
7799 5 0.905259 0.115463 0.197109 -8 -1 1 
8585 6 0.20657 0.134933 0.201985 4 3 0 
5937 6 0.0452292 0.136241 0.21766 3 -3 -2 
8634 6 0.0700833 0.130184 0.154694 2 1 4 
7016 5 0.20245 0.118375 0.188705 2 4 0 
7519 6 0.218568 0.168301 0.179873 1 -3 -2 
5519 5 0.463848 0.211461 0.183765 -2 4 -3 
5967 5 0.605386 0.164233 0.196952 1 3 3 
8434 5 0.274286 0.20387 0.211052 -5 2 0 
7936 6 0.00707687 0.213868 0.168401 0 1 -4 
7661 6 0.962952 0.264415 0.189571 -1 -3 -1 
5116 6 0.959301 0.251701 0.194658 -3 4 4 
8413 6 0.0448179 0.259987 0.200894 -4 -6 2 
7545 5 0.227097 0.259707 0.225983 0 -1 -2 
7980 5 0.805134 0.25688 0.246997 -9 -3 2 
8769 5 0.855855 0.285407 0.188458 2 3 0 
5334 6 0.0314223 0.276213 0.182353 0 -4 8 
5495 6 0.187897 0.305416 0.176237 2 0 2 
7678 6 0.897039 0.290417 0.197022 2 0 -3 
6425 6 0.893237 0.332337 0.215617 -1 -2 2 
7045 5 0.0279681 0.391661 0.171408 -5 0 -5 
5497 5 0.882219 0.338942 0.18587 3 0 0 
8962 5 0.502486 0.34015 0.16276 4 2 -3 
6258 6 0.522516 0.445091 0.198018 0 -1 3 