ITEM: TIMESTEP
20000000
ITEM: NUMBER OF ATOMS
9000
ITEM: BOX BOUNDS pp pp pp
-75 75
-75 75
-75 75
ITEM: ATOMS id type xs ys zs ix iy iz 
7283 5 0.853089 0.987565 0.997586 -2 -2 2 
7549 5 0.0187589 0.0340054 0.0369172 -2 -6 1 
7480 6 0.375687 0.0231283 0.00504992 1 0 0 
5158 5 0.0167235 0.00251943 0.00118367 -2 2 3 
5392 6 0.136758 0.0694174 0.982616 6 0 1 
5292 6 0.602281 0.00891063 0.990773 4 1 -2 
5321 6 0.737131 0.0350176 0.996399 4 -2 2 
8110 6 0.890804 0.0555335 0.040918 2 1 -2 
6129 5 0.0585541 0.0641293 0.00923563 2 5 4 
7794 6 0.54534 0.0858658 0.0164212 1 -1 -4 
8408 6 0.667905 0.080737 0.973796 -2 -1 -1 
8583 6 0.894614 0.061056 0.0231951 -1 -1 -1 
6426 5 0.30202 0.0935742 0.0134052 -1 9 2 
5923 5 0.876214 0.0569125 0.0401425 0 -3 3 
8342 5 0.196888 0.0925296 0.0249991 -6 1 -2 
7435 5 0.385051 0.142428 0.0488403 2 -2 -2 
8329 5 0.843311 0.152717 0.996672 0 3 -7 
6981 6 0.0294199 0.145344 0.0062109 -1 -3 0 
5758 5 0.0190607 0.192289 0.0539518 1 -1 -3 
6392 5 0.173292 0.212996 0.01684 2 2 1 
6652 6 0.624852 0.196028 -0.000177282 -2 -1 0 
7715 6 0.643278 0.192473 0.00341189 -4 3 0 
7380 6 0.074966 0.23835 0.00475062 0 -4 1 
7858 5 0.746793 0.221502 0.024428 1 -1 -1 
6614 6 0.987242 0.235038 0.0125811 -1 1 -1 
7183 5 0.0129255 0.239499 0.0427116 7 -5 4 
6387 6 0.307553 0.245065 0.025954 0 0 1 
8989 5 0.336303 0.26222 0.0124517 1 -4 6 
8378 5 0.43223 0.27573 0.99297 -1 4 -3 
5817 5 0.458832 0.240507 0.00297177 0 -2 1 
5399 5 0.468715 0.247953 0.0132005 3 -2 -1 
8217 5 0.859671 0.263557 0.0190347 -2 -4 2 
8228 6 0.272705 0.283313 0.0211411 0 2 3 
5831 5 0.945136 0.270884 0.0370885 1 4 2 
8183 6 0.642834 0.319054 0.00959874 2 -1 2 
5883 6 0.647891 0.332841 0.0028932 1 3 -3 
8302 5 0.882762 0.335959 0.0382247 2 2 5 
6280 6 0.987105 0.30041 0.0227846 2 -3 1 
7564 6 0.528841 0.359467 0.045929 -6 1 1 
5097 6 0.922761 0.311874 0.980385 -5 -1 -3 
6864 5 0.107228 0.356711 0.0298524 0 -6 -1 
8103 5 0.647684 0.373968 0.96481 1 0 -1 
6830 6 0.396952 0.350212 0.0302466 1 1 3 
8403 5 0.0321226 0.371491 0.0342252 -6 4 -3 
7834 6 0.941854 0.383326 0.0152663 2 2 3 
5727 5 0.932681 0.43525 0.0394379 0 1 4 
7626 5 0.857891 0.415686 0.0487792 4 6 4 
7815 6 0.828781 0.432867 0.0204664 -1 1 -2 
6420 5 0.656082 0.484465 0.0129498 5 4 6 
7279 6 0.826258 0.492918 0.0374567 -2 0 0 
7395 6 0.916108 0.465729 0.0220315 5 -5 -6 
6697 5 0.59095 0.480697 0.0153564 -3 4 2 
7552 5 0.730581 0.493928 0.978914 3 4 2 
7184 5 0.135102 0.542937 0.0240059 0 1 1 
8193 6 0.163632 0.543053 0.00135747 -3 3 -1 
6660 5 0.0186109 0.584964 0.020226 3 -3 7 
6230 5 0.51568 0.568039 0.977402 6 4 -1 
7506 6 0.576843 0.524108 0.0346504 -2 2 -1 
6266 5 0.334092 0.593147 0.988802 0 -4 0 
5753 6 0.548351 0.626567 0.0201021 -4 -3 -1 
5767 6 0.664197 0.608185 0.0338521 1 -4 1 
8232 6 0.376505 0.661598 0.00155599 -1 4 4 
6550 5 0.854948 0.599083 0.0661822 0 -1 4 
8545 5 0.975685 0.650347 0.0155026 1 2 -2 
5326 5 0.106883 0.641348 0.00475315 0 -3 -3 
5362 5 0.161932 0.616696 0.98778 -3 -3 1 
7422 5 0.948723 0.645227 0.00177192 -4 1 4 
7932 5 0.428802 0.666793 0.0445111 0 -3 -3 
6198 5 0.272635 0.685908 0.0103069 0 7 0 
7903 5 0.255219 0.724534 0.996152 -5 3 1 
6252 6 0.400252 0.700993 0.99493 -1 3 3 
5613 5 0.148304 0.674681 0.0368969 6 -1 -1 
8820 5 0.515986 0.669897 0.028359 4 -4 5 
8244 6 0.526753 0.663735 0.0011373 4 -2 0 
8087 6 0.0979618 0.743077 0.998696 2 -6 0 
6125 5 0.464368 0.740241 0.0420582 -1 4 5 
6833 5 0.267447 0.789055 0.0434453 -2 1 -4 
5225 5 0.466914 0.72743 0.0315749 -1 -4 2 
7799 6 0.236359 0.794901 0.0233964 3 2 1 
7557 6 0.687948 0.804296 0.0125194 5 -2 0 
7561 6 0.102069 0.827698 0.989246 0 1 5 
5989 5 0.696014 0.857936 0.983439 -3 0 0 
7730 5 0.782899 0.834109 0.998092 2 1 -3 
5324 5 0.125479 0.857522 0.0129511 -6 -3 -1 
7879 5 0.86797 0.895752 0.0048045 1 2 0 
6106 6 0.130698 0.91254 0.960964 1 4 -3 
5851 5 0.183029 0.88101 0.0427313 4 1 1 
6381 5 0.231101 0.920393 0.946833 3 -2 -4 
6263 6 0.30585 0.912411 0.0148828 -2 0 -2 
5041 5 0.0997211 0.918093 0.0221479 -5 2 -3 
8985 6 0.278783 0.907322 0.985474 -5 3 4 
7151 6 0.300073 0.924063 0.995694 -1 -2 -3 
6859 6 0.48632 0.90732 0.0162771 3 -2 -3 
6885 6 0.688525 0.944429 0.0588814 4 0 2 
6200 5 0.349912 0.94312 2.23555e-05 4 -5 -1 
7671 5 0.867935 0.96334 0.0357638 3 6 -7 
5182 5 0.0998248 0.00440469 0.0185258 5 -4 1 
7745 6 0.020197 0.996708 0.0277425 5 2 -5 
7216 6 0.646262 0.00611805 0.0173368 7 1 -3 
8565 6 0.346667 0.064083 0.0277303 -3 -2 4 
8200 6 0.373022 0.102249 0.00503216 -1 -3 -4 
6089 6 0.842659 0.0770294 0.0297206 -6 2 5 
6753 5 0.0491854 0.126972 0.0458974 1 0 3 
5992 6 0.0158331 0.12529 0.0655577 -1 6 2 
5389 5 0.91945 0.124358 0.028625 -2 -3 0 
8096 5 0.033028 0.165591 0.0540643 0 4 -2 
8270 5 0.414251 0.156541 0.0126779 1 0 -1 
6372 6 0.219754 0.205855 0.0426028 -2 -3 2 
7606 6 0.623942 0.213051 0.0611803 0 5 1 
5122 5 0.625877 0.17079 0.0368858 -2 4 -1 
6948 6 0.46538 0.183961 0.0270116 5 3 0 
7496 5 0.297477 0.273666 0.0391316 3 -2 -2 
5791 5 0.580109 0.276391 0.0200342 3 5 2 
5600 6 0.648905 0.224661 0.0210903 2 6 -1 
7320 5 0.757478 0.238651 0.0072981 2 0 0 
8459 6 0.93423 0.271515 0.988656 0 -1 3 
8568 6 0.289778 0.304114 0.0366527 -1 2 -6 
6402 6 0.691941 0.32257 0.0395512 -6 0 -3 
6817 5 0.076072 0.346227 0.0214423 -5 1 -4 
8710 5 0.27284 0.386237 0.0293849 0 2 1 
8501 6 0.484981 0.36674 0.0252872 -1 -2 0 
7816 6 0.736917 0.350295 0.0198964 2 4 0 
8245 5 0.213899 0.407638 0.0439723 5 -5 0 
8890 6 0.671057 0.391123 0.0500458 0 3 1 
5540 6 0.855881 0.378718 0.0231903 -4 -1 -1 
8438 5 0.423588 0.399125 0.00616912 0 -1 -3 
5529 6 0.883948 0.422655 0.0464422 -3 -1 -3 
5394 6 0.712124 0.441838 0.99664 3 1 -7 
7948 6 0.744967 0.46427 0.0361228 -1 -5 -2 
5460 6 0.514024 0.460959 0.0408011 -2 -1 -1 
7335 6 0.98497 0.470072 0.0124642 2 1 2 
5208 5 0.139814 0.491268 0.0371918 -2 -4 -1 
8170 5 0.30248 0.538653 0.0352714 1 -2 2 
5741 6 0.58209 0.535807 0.0441107 -2 0 1 
6267 5 0.816677 0.491356 0.00698374 -4 -5 3 
6130 5 0.871791 0.498255 0.0328742 -1 4 3 
6524 5 0.988595 0.530985 0.00807929 1 -7 1 
8774 6 0.765232 0.525757 0.00603055 -1 3 3 
7074 6 0.747505 0.560012 0.0529282 2 1 -3 
5602 5 0.396774 0.546728 0.0191567 3 5 7 
6133 5 0.67507 0.56384 0.0356928 -1 1 0 
8675 6 0.271123 0.623005 0.0513313 5 5 3 
5363 6 0.881622 0.608958 0.029169 4 1 -4 
6474 6 0.0687491 0.635632 0.0751067 1 1 -1 
5349 5 0.215803 0.618624 0.0219172 0 1 1 
7586 5 0.653586 0.612357 0.0627848 -1 -1 1 
7835 6 0.83912 0.659997 0.0669087 0 1 -2 
5365 6 0.160066 0.707051 0.0208751 1 -1 -1 
8064 6 0.896666 0.69935 0.0495516 -4 0 0 
8895 6 0.372175 0.676903 0.0342805 0 -4 5 
5331 5 0.510712 0.665084 0.031352 2 2 4 
7170 5 0.489638 0.75227 0.991152 0 1 1 
5884 6 0.269027 0.750378 0.022445 -2 1 0 
6904 5 0.392816 0.757988 0.0464198 2 -3 1 
6796 6 0.372302 0.79639 0.0240196 2 2 3 
7503 6 0.0632361 0.748242 0.0441276 3 0 3 
5497 5 0.401522 0.802546 0.0116132 -3 0 2 
8621 6 0.505279 0.806769 0.0226049 -7 0 1 
8920 6 0.622473 0.828841 0.0427604 5 3 0 
7381 5 0.93904 0.828476 0.0473073 1 -1 3 
5637 5 0.196104 0.829066 0.0606813 2 0 3 
7543 6 0.334298 0.844511 0.0424219 -6 3 3 
5693 5 0.98762 0.834463 0.993997 -4 2 -3 
6757 6 0.154624 0.85024 0.995154 -3 -2 -6 
7103 5 0.26401 0.8406 0.0742886 -1 1 4 
7661 6 0.458929 0.86877 0.0739078 -1 -1 -3 
7243 6 0.520634 0.879749 0.0382636 3 4 1 
7205 6 0.663327 0.859042 0.00809936 -6 1 -6 
6223 5 0.0543746 0.901358 0.0232433 -2 -2 4 
8222 6 0.880816 0.929719 0.992487 -1 -4 -1 
6203 5 0.261891 0.9317 0.0220024 1 -2 5 
6051 6 0.478545 0.914791 0.043997 2 -1 -1 
5709 6 0.697236 0.907743 0.0196981 0 -2 0 
6791 5 0.324992 0.984479 0.0669894 1 -5 1 
8907 5 0.678569 0.922657 0.0371948 2 0 2 
6175 6 0.777908 0.96822 0.080209 -1 3 3 
5032 6 0.513158 0.00513656 0.058283 1 -1 0 
6504 5 0.767258 0.966157 0.0542943 3 -2 1 
8900 6 0.223215 0.99335 0.0765021 -1 5 -1 
7576 5 0.218852 0.0460926 0.0913531 5 5 -4 
6151 6 0.718923 0.0312592 0.0766337 1 1 1 
7269 5 0.805351 0.0225718 0.0217787 0 2 2 
6888 6 0.916816 0.0178183 0.0443022 -4 2 0 
8352 6 0.90989 0.0294984 0.0343479 0 0 3 
7465 5 0.946137 0.00384625 0.0596688 -3 1 -4 
5171 5 0.232464 0.0596649 0.0518909 0 3 0 
6489 6 0.601929 0.0229725 0.0332351 0 -3 -3 
6451 5 0.185223 0.0900069 0.0160681 4 -2 2 
6291 5 0.416687 0.0783716 0.0430893 -2 5 2 
5988 6 0.257211 0.109149 0.0305078 1 4 -3 
8854 6 0.255924 0.142717 0.0880917 1 3 0 
8107 6 0.530282 0.127003 0.029321 0 -1 0 
6987 5 0.487492 0.131797 0.0805439 1 -2 -3 
5844 5 0.697016 0.13946 0.054503 -1 -2 0 
6767 5 0.358861 0.175599 0.0892634 0 1 3 
7086 6 0.659969 0.196278 0.0102348 0 -1 -5 
7930 5 0.261695 0.196627 0.0792885 0 0 2 
5704 5 0.469944 0.206688 0.056283 2 3 1 
5017 5 0.845085 0.209187 0.0747683 -2 3 2 
8637 5 0.00216866 0.227463 0.0618838 4 1 1 
6972 5 0.0297595 0.24636 0.0858611 1 -1 2 
6978 6 0.574362 0.223087 0.0480427 -6 3 2 
5500 5 0.574445 0.258653 0.0520684 -2 2 -2 
5243 6 0.106132 0.273469 0.0607404 -7 5 2 
7521 6 0.111818 0.283619 0.0538875 -2 -1 2 
6383 6 0.481513 0.254732 0.0983274 -2 0 4 
8522 6 0.307006 0.359828 0.0734014 7 -1 -3 
8560 6 0.389042 0.338271 0.0975519 2 0 0 
7029 6 0.54436 0.370193 0.0366528 2 5 0 
7537 6 0.392095 0.361636 0.0861926 2 -3 -1 
5311 5 0.974139 0.360309 0.0551839 -3 0 2 
8618 5 0.00410491 0.358735 0.0765419 0 -3 1 
7010 6 0.51225 0.367131 0.0360822 0 2 0 
7466 5 0.570071 0.369325 0.0585937 -1 -2 -4 
5173 6 0.230678 0.370765 0.0586187 -5 1 0 
5449 6 0.877852 0.379934 0.0753548 -1 -4 -5 
6469 5 0.693044 0.433641 0.0357323 -4 4 -2 
6464 6 0.954458 0.418662 0.0699557 -2 -3 1 
5775 6 0.268231 0.446061 0.0497798 2 4 -1 
7544 6 0.253308 0.419565 0.0444355 -6 -2 -4 
8527 6 0.549881 0.45891 0.0458668 3 -1 5 
7857 6 0.297355 0.460502 0.102818 0 0 -3 
7558 5 0.429818 0.469855 0.0339659 2 1 2 
8737 6 0.0775677 0.545574 0.00642411 0 -3 1 
6772 5 0.472506 0.500185 0.0707634 -1 1 4 
8453 6 0.390037 0.50279 0.0374507 -3 -1 2 
6580 6 0.901509 0.522422 0.069483 1 4 1 
6741 6 0.264921 0.525218 0.0597348 3 -3 2 
6953 6 0.44056 0.574204 0.0297289 -3 4 -1 
6789 6 0.390244 0.607113 0.0833246 2 1 3 
7280 6 0.715369 0.567816 0.0561616 -1 -5 -3 
6159 5 0.0632373 0.607495 0.04498 -1 0 0 
6238 6 0.224295 0.596907 0.0806355 -4 0 -1 
7769 5 0.276177 0.578915 0.0488376 4 1 3 
6177 6 0.419972 0.582893 0.070206 0 0 -5 
7672 5 0.521937 0.641991 0.0556809 4 0 0 
5832 6 0.650476 0.565513 0.0189167 -3 0 -2 
7164 5 0.651354 0.614531 0.0809752 3 -3 -1 
8910 5 0.697546 0.581993 0.0160638 6 2 2 
8008 5 0.280115 0.662505 0.0932227 -6 3 4 
7660 6 0.418881 0.68168 0.0364921 0 3 -2 
8562 5 0.0221893 0.629616 0.0413911 0 2 2 
6872 6 0.792649 0.694279 0.0665265 -3 0 0 
6352 5 0.985806 0.67664 0.052869 -1 0 5 
6235 6 0.520587 0.711926 0.0612979 0 3 3 
7566 6 0.00115498 0.720012 0.0709131 -1 3 1 
7032 5 0.11961 0.759408 0.0638392 -2 0 1 
6085 5 0.159774 0.786665 0.082749 -1 -7 0 
7445 5 0.369556 0.789229 0.049455 0 2 -1 
7709 5 0.631355 0.798189 0.0699258 -3 -2 4 
5855 5 0.326809 0.821008 0.0431423 2 -4 6 
6088 6 0.446939 0.819108 0.0673818 0 -1 0 
8589 6 0.992153 0.806998 0.0487047 1 1 6 
5661 6 0.07694 0.87401 0.0343099 7 -4 1 
8488 5 0.756149 0.817352 0.0606794 1 -2 3 
6980 5 0.886667 0.867013 0.0174307 1 3 2 
6121 6 0.81605 0.872914 0.0773476 -2 -3 -3 
6374 5 0.941573 0.839792 0.0589888 2 0 0 
8868 6 0.537745 0.899405 0.0657672 -4 1 -3 
7613 6 0.915586 0.934172 0.0566586 2 -5 9 
8553 6 0.153944 0.965622 0.0763401 1 0 5 
7650 6 0.85061 0.970723 0.0461376 3 0 2 
8584 5 0.783345 0.993062 0.0529757 -4 -1 -6 
5562 5 0.592094 0.015372 0.0926878 -2 -2 1 
7063 5 0.280402 0.0611601 0.0769669 1 2 6 
8670 6 0.87496 0.057917 0.125422 -2 0 -3 
5212 6 0.351342 0.098832 0.0840419 -5 -1 -2 
7811 6 0.354613 0.135733 0.0766947 2 0 0 
6739 6 0.59521 0.104589 0.0560483 2 1 4 
8144 6 0.182884 0.224465 0.0913139 2 0 0 
5518 6 0.255086 0.197129 0.0669345 3 0 -1 
6887 5 0.467743 0.205639 0.0942236 -2 1 2 
5940 5 0.408116 0.185405 0.0813834 0 -5 0 
7968 5 0.314325 0.21994 0.0706636 1 3 -3 
6680 6 0.506113 0.210857 0.136402 2 4 1 
6677 5 0.862546 0.217018 0.0816665 -1 4 3 
7294 6 0.502219 0.219742 0.0732949 0 1 4 
5091 6 0.0978791 0.236016 0.041315 2 1 0 
6277 5 0.138975 0.262483 0.109034 1 -1 3 
7485 5 0.929464 0.258644 0.0692132 -4 1 5 
7332 5 0.0260605 0.284154 0.0992783 5 -3 -1 
8266 5 0.296292 0.271954 0.0750117 -1 2 0 
7341 6 0.577778 0.268403 0.0828848 -2 4 1 
8284 6 0.907852 0.348979 0.0452252 0 -1 2 
8938 5 0.307548 0.337449 0.0902802 3 0 1 
5101 5 0.648841 0.336707 0.11513 0 -3 0 
8777 6 0.715443 0.288685 0.100697 -4 2 3 
8575 5 0.82843 0.310674 0.0962562 -1 -2 0 
5658 6 0.505598 0.337756 0.0721882 0 0 2 
7990 6 0.295488 0.349825 0.0945609 1 6 -3 
5513 6 0.343576 0.350132 0.0746686 -5 1 4 
5124 5 0.787708 0.349973 0.122555 3 -2 1 
6340 5 0.996844 0.376518 0.0394977 1 0 1 
5739 5 0.695264 0.333143 0.117109 -1 2 -1 
7085 5 0.0179777 0.366389 0.0551465 0 -4 -1 
6348 5 0.199837 0.437654 0.122837 2 0 0 
8557 6 0.215806 0.386212 0.105188 4 -1 7 
5994 6 0.317159 0.350768 0.0599391 0 2 1 
6794 6 0.340503 0.3961 0.0655458 -2 -4 2 
8841 6 0.0524704 0.449521 0.0992335 3 -2 -1 
7927 5 0.480878 0.47829 0.0889995 -4 2 -3 
5025 6 0.644193 0.443853 0.0380249 2 -1 -1 
6034 5 0.80372 0.497317 0.0843168 -4 -2 3 
7034 6 0.974463 0.471958 0.0578974 2 1 1 
5794 5 0.193772 0.477328 0.10259 0 6 1 
8831 5 0.713741 0.479686 0.0996342 2 -2 1 
6010 5 0.845862 0.479807 0.110089 0 3 3 
5234 5 0.0321648 0.540649 0.0724946 4 1 0 
8429 5 0.949919 0.542025 0.0466902 -4 1 -1 
8511 5 0.868333 0.587372 0.0955592 -1 -1 -2 
6984 6 0.758772 0.657315 0.0442283 0 0 1 
6573 5 0.899663 0.655955 0.0907934 2 0 1 
6732 5 0.494883 0.635257 0.0917912 -9 -2 2 
6529 6 0.562371 0.647433 0.0842038 -3 -3 6 
6544 6 0.677455 0.705199 0.0719055 3 -1 -1 
8007 5 0.684123 0.666803 0.0963418 -1 1 1 
6548 6 0.0781216 0.729673 0.039132 -5 -1 3 
5398 5 0.0797172 0.727079 0.0604892 1 2 0 
5641 6 0.184254 0.689398 0.0494812 -2 -5 -3 
8957 6 0.0308681 0.768987 0.0801452 -2 0 6 
5415 6 0.413589 0.793032 0.0928361 3 -2 -1 
7251 6 0.224447 0.815893 0.0837701 1 0 0 
6371 5 0.683968 0.844935 0.106566 -2 -1 3 
5247 5 0.759487 0.821734 0.0698257 3 -1 2 
5342 5 0.055509 0.867001 0.0551357 8 -4 -4 
5508 6 0.0643492 0.870278 0.0589615 0 0 -3 
6800 6 0.657753 0.946549 0.0462857 -4 1 1 
5057 5 0.909054 0.907557 0.0552997 4 10 2 
6599 6 0.241368 0.985899 0.0595174 0 3 -3 
7324 5 0.451664 0.973451 0.0588709 -8 -1 3 
7873 6 0.088122 0.0517139 0.130965 -3 6 -2 
5426 5 0.594651 0.0817411 0.128914 -2 0 2 
8393 6 0.773899 0.967726 0.120624 -5 -6 4 
8447 6 0.362484 0.0837263 0.107932 1 0 3 
7673 6 0.91477 0.0328914 0.106814 -2 5 -4 
5150 6 0.236778 0.0667423 0.104992 -3 1 -3 
6023 5 0.642837 0.0801505 0.0623799 2 -2 -5 
6228 6 0.727377 0.104236 0.091904 -2 2 0 
7245 5 0.510084 0.108389 0.100568 -1 1 0 
5993 6 0.568005 0.0535909 0.0862825 2 -1 -4 
7167 5 0.512664 0.132422 0.105256 -4 2 -3 
8303 5 0.750445 0.102077 0.131554 -2 0 -1 
6325 5 0.0699259 0.12674 0.133273 -1 -2 3 
5374 5 0.477686 0.111443 0.0907565 -5 3 0 
7703 5 0.439141 0.1149 0.0868052 5 -4 0 
7746 5 0.869735 0.134434 0.118824 0 -3 3 
7386 5 0.0487216 0.151233 0.110356 3 -2 -4 
8251 5 0.473873 0.12705 0.108672 1 0 3 
8876 6 0.2581 0.187523 0.0836433 -2 1 -2 
6704 6 0.885947 0.214598 0.0892286 -4 2 1 
5999 6 0.0585623 0.261771 0.0939959 -1 2 -3 
5723 6 0.0627119 0.180521 0.137224 -1 1 -2 
6988 5 0.220375 0.246853 0.0908015 4 -5 1 
7659 6 0.849645 0.221694 0.115763 2 0 -3 
7625 5 0.941518 0.234451 0.0849811 -1 -1 1 
8278 5 -0.00112239 0.259564 0.109212 1 3 -1 
5393 5 0.224608 0.256996 0.100141 4 3 5 
6336 5 0.749277 0.29164 0.0784902 0 5 4 
6943 6 0.285622 0.259708 0.0892279 1 5 0 
8044 5 0.0409669 0.314577 0.0946918 1 -5 -3 
7584 5 0.534739 0.247359 0.0917008 3 -1 0 
8247 5 0.080128 0.342689 0.128717 0 3 3 
7222 5 0.207699 0.315982 0.0580624 0 -1 2 
7845 6 0.519338 0.308116 0.159974 1 2 5 
6049 5 0.594593 0.318926 0.0857179 -2 1 2 
8508 6 0.617104 0.31468 0.0929379 1 -5 2 
8271 6 0.019577 0.352922 0.103198 1 -2 -3 
7801 5 0.305908 0.363237 0.100057 1 1 5 
6171 6 0.446866 0.376475 0.10858 -4 -3 -4 
5660 6 0.516263 0.373796 0.114275 3 1 0 
5039 6 0.598964 0.331684 0.138323 -7 7 0 
7652 6 0.636682 0.370594 0.102715 4 -5 -2 
8382 6 0.812974 0.350988 0.0698712 7 -3 3 
5830 5 0.961354 0.366825 0.103918 3 6 -2 
8331 6 0.834425 0.416109 0.0975691 -3 2 1 
8106 6 0.34157 0.412488 0.0551975 0 -1 2 
6927 6 0.248371 0.451542 0.11407 1 2 -4 
6857 5 0.839482 0.448835 0.0908181 -6 4 2 
5681 6 0.208162 0.503189 0.102609 4 -1 3 
5478 6 0.749336 0.475549 0.114026 1 0 3 
5899 5 0.486953 0.518924 0.0927363 2 5 2 
5204 5 0.03049 0.529254 0.119012 -4 1 -3 
8509 6 0.696518 0.630618 0.0854291 3 -5 1 
7697 5 0.101767 0.634477 0.0791714 6 5 0 
6035 6 0.496063 0.621359 0.0919863 3 -3 2 
7573 6 0.977841 0.615694 0.110314 -3 -1 0 
5289 6 0.751407 0.643116 0.0942112 -1 -2 9 
5544 6 0.0255869 0.671333 0.106223 -2 -2 -2 
7705 6 0.126308 0.67701 0.10081 0 -6 0 
6611 6 0.23942 0.681183 0.080387 -2 3 -3 
8120 5 0.599185 0.683941 0.0977483 -5 -4 1 
8897 6 0.697985 0.703007 0.110301 -5 1 1 
7339 5 0.664747 0.704739 0.0889481 -2 1 2 
6211 6 0.777848 0.717296 0.130923 -2 -1 -2 
6545 5 0.257694 0.766715 0.135669 2 3 -4 
7678 5 0.839901 0.727967 0.133428 -1 0 3 
5065 6 0.0275417 0.753799 0.0742947 1 -4 4 
7065 5 0.929015 0.751782 0.0933645 2 -4 2 
5719 6 0.557496 0.759318 0.0732026 -4 1 2 
5614 6 0.572672 0.822549 0.105197 -1 -1 2 
8147 6 0.806173 0.782404 0.0950227 5 0 4 
8252 6 0.933584 0.800386 0.0773823 1 -5 1 
7160 5 0.43563 0.801738 0.104009 1 -2 6 
5766 5 0.53536 0.785768 0.0925465 1 2 2 
5582 6 0.659189 0.807661 0.108898 3 -1 -4 
8012 6 0.669285 0.763035 0.10186 -1 -1 0 
7159 5 0.744602 0.808539 0.119375 -3 1 1 
7031 5 0.319084 0.848715 0.081068 0 -2 0 
5453 5 0.547764 0.840793 0.121132 -1 0 2 
5691 6 7.1557e-05 0.81122 0.102532 3 -1 5 
7256 6 0.261451 0.851825 0.102634 -4 1 1 
6851 6 0.455861 0.862584 0.102569 -3 -4 1 
7768 6 0.449715 0.852482 0.0854714 -4 -3 1 
7293 6 0.50791 0.842758 0.087126 1 1 0 
7831 6 0.72726 0.801085 0.0952766 1 -1 -1 
7889 5 0.921859 0.851081 0.101735 0 -1 -3 
7667 5 0.47568 0.876063 0.123863 4 -1 -1 
7910 6 0.656128 0.902269 0.079245 -3 -7 3 
7431 6 0.0730554 0.933188 0.116613 -3 0 0 
6764 6 0.468554 0.922015 0.0936763 0 -4 1 
8666 6 0.516076 0.936735 0.0853412 -1 -2 -3 
5446 5 0.0998138 0.957762 0.102218 -7 -2 -2 
7600 5 0.422329 0.945152 0.0740435 7 1 -1 
5471 6 0.372774 0.975168 0.0878875 -3 1 1 
6915 5 0.498292 0.988234 0.108977 -1 -2 7 
5278 6 0.831924 0.992196 0.103954 2 -2 0 
6620 5 0.288534 0.991978 0.125185 1 -1 -5 
8932 6 0.439707 0.962559 0.0666138 -3 -1 -2 
5665 6 0.446064 0.964294 0.0582805 -3 0 1 
7291 6 0.100289 0.964882 0.131075 5 -5 -2 
7078 6 0.326959 0.990435 0.118223 1 -1 1 
5816 6 0.663994 0.0347188 0.113787 0 2 1 
5857 6 0.183151 -0.00117403 0.126147 -1 0 1 
6778 6 0.242671 0.0303002 0.111689 1 4 -2 
7919 5 0.99558 0.0335373 0.113525 -1 0 0 
6118 6 0.790925 0.110373 0.112066 0 4 -9 
5814 5 0.840566 0.149837 0.114011 0 2 2 
8209 6 0.407998 0.0566748 0.116569 2 -2 0 
7399 6 0.688723 0.0999336 0.120753 -2 0 -1 
8225 6 0.173399 0.122232 0.0939635 5 -2 -2 
7345 5 0.596531 0.13076 0.118203 1 3 3 
6909 6 0.302516 0.152864 0.129691 -1 4 0 
7967 6 0.531602 0.132091 0.133849 4 2 -1 
5141 6 0.709309 0.126071 0.148026 -1 -1 4 
6516 6 0.675987 0.15273 0.0965952 -2 1 1 
7908 6 0.79908 0.139065 0.125351 7 2 0 
6290 6 0.881758 0.211706 0.0992066 2 2 -2 
7130 6 0.375747 0.16785 0.151485 1 0 2 
8564 5 0.887151 0.214822 0.118001 -1 0 -2 
8520 5 0.574674 0.230481 0.167442 2 -2 -3 
6716 5 0.669414 0.221011 0.120325 1 3 4 
8349 6 0.760996 0.245716 0.0885246 2 -6 3 
5066 5 0.36571 0.28617 0.0971847 -5 1 1 
6275 5 0.560088 0.275071 0.148533 -2 -4 1 
7823 5 0.0806559 0.30089 0.165484 3 6 -1 
7582 5 0.26093 0.265306 0.104026 -2 2 4 
8752 5 0.348153 0.290496 0.161271 -2 -6 1 
5714 5 0.221295 0.241518 0.114136 -1 4 -1 
8649 6 0.958371 0.276544 0.107318 4 2 -6 
5356 5 0.136165 0.323118 0.167212 1 -2 1 
6630 5 0.197272 0.387189 0.111436 -5 0 3 
5024 5 0.289765 0.375949 0.140852 -1 2 2 
6145 6 0.501389 0.326836 0.106883 -1 2 0 
7855 5 0.665071 0.343466 0.160786 2 -4 0 
6404 6 0.632116 0.365444 0.126504 1 3 3 
8441 5 0.952097 0.328259 0.113479 -4 -2 -8 
8643 5 0.978949 0.365676 0.119198 9 -2 3 
8314 6 0.788253 0.399546 0.118203 3 2 1 
5787 6 0.240102 0.414976 0.155378 0 0 5 
7317 5 0.360527 0.394241 0.121269 1 -2 -3 
8572 5 0.971576 0.426813 0.125213 3 -2 3 
8392 5 0.198592 0.422926 0.0817475 2 1 2 
8208 6 0.205728 0.445921 0.0903481 4 4 1 
7729 5 0.410184 0.494838 0.110875 1 1 1 
6973 6 0.685719 0.455117 0.113263 -5 1 -3 
5088 6 0.925054 0.455591 0.111647 -1 3 1 
7453 5 0.631024 0.47574 0.144734 -7 -2 5 
7451 5 0.721169 0.508816 0.0996653 4 -2 2 
7396 5 0.889723 0.500468 0.141864 -4 1 -1 
5256 6 0.03823 0.505582 0.115625 -1 -4 -1 
5509 6 0.530685 0.511628 0.131492 1 8 -1 
5104 6 0.780027 0.516552 0.108449 3 0 1 
6956 5 0.844893 0.535555 0.156298 0 0 3 
6602 5 0.37914 0.510016 0.140321 1 -3 4 
6187 5 0.844939 0.541529 0.104138 1 -1 -3 
5350 5 0.152638 0.541184 0.135447 -1 -1 -5 
5383 6 0.533371 0.544398 0.067337 1 2 -3 
5759 5 0.758118 0.584793 0.124853 4 -2 1 
5477 6 0.775059 0.57333 0.115474 -4 0 4 
5713 6 0.0554616 0.579783 0.102892 -1 -1 -4 
8685 6 0.858418 0.594187 0.126815 -1 1 2 
8911 5 0.746308 0.594331 0.141412 2 -1 -1 
7271 5 0.900832 0.616944 0.0836112 -4 0 2 
7247 6 0.965001 0.65185 0.151757 -3 -1 -3 
7307 6 0.318679 0.699809 0.0562317 -3 0 2 
8286 5 0.622308 0.696696 0.115786 0 0 -1 
6342 6 0.052497 0.658963 0.146501 3 0 4 
7997 5 0.815666 0.683031 0.109887 -1 3 -1 
6488 6 0.874621 0.723759 0.0961916 -1 4 4 
5976 6 0.873282 0.689316 0.112865 4 -2 8 
6284 5 0.0954989 0.661244 0.119906 8 -4 -2 
7370 6 0.0485091 0.75555 0.106507 -1 0 4 
8952 5 0.698672 0.769844 0.0871402 2 1 1 
6086 5 0.934245 0.764482 0.173039 3 3 1 
8460 5 0.821727 0.793493 0.105865 -1 -1 3 
8118 6 0.481898 0.800898 0.119263 0 -2 2 
8355 6 0.551808 0.787171 0.130402 -3 -7 -1 
7716 6 0.753158 0.811176 0.126676 0 3 5 
5629 5 0.103928 0.841227 0.177851 2 -2 2 
7087 6 0.200014 0.789548 0.112626 2 1 2 
8345 6 0.794293 0.826952 0.0920269 -2 4 -2 
8326 5 0.166857 0.908522 0.0901314 7 1 1 
5536 5 0.459841 0.896661 0.101701 1 -3 2 
6478 5 0.874186 0.923268 0.126295 1 -2 -1 
8635 6 0.78744 0.875794 0.114606 -1 -3 -2 
8011 5 0.00918082 0.975154 0.130666 2 -5 1 
5004 5 0.876663 0.93552 0.150827 3 -1 0 
7992 5 0.0302573 0.0170731 0.155313 6 2 2 
5656 6 0.460472 0.0150162 0.151062 3 1 3 
5975 6 0.554269 0.016149 0.114416 1 2 0 
8210 5 0.269915 0.0697844 0.124004 1 -2 2 
5329 5 0.647193 0.0559175 0.137197 0 -1 1 
7095 6 0.255577 0.0820099 0.176457 4 1 4 
7045 6 0.0269081 0.126553 0.167682 -1 4 3 
7058 5 0.457251 0.119347 0.180049 7 4 1 
7776 6 0.941535 0.136134 0.180182 1 -4 -1 
6490 5 0.290261 0.156415 0.107222 3 -2 3 
5902 5 0.147661 0.193356 0.13689 0 -2 0 
7743 5 0.172556 0.190859 0.142757 -1 1 1 
7758 6 0.507371 0.183049 0.0944791 2 -3 5 
5056 5 0.469036 0.200709 0.157076 1 0 3 
6390 5 0.62929 0.19995 0.141356 7 -2 4 
7590 5 0.550411 0.227384 0.15962 -1 -4 -1 
8966 6 0.533629 0.22556 0.128294 0 1 -1 
5315 5 0.750137 0.231976 0.135911 -3 2 2 
8692 6 0.798372 0.216139 0.13613 -4 -3 -3 
6905 6 0.415208 0.306677 0.165189 -1 -4 0 
5314 6 0.468653 0.304489 0.146508 -1 -1 0 
7718 5 0.0101176 0.286851 0.140888 1 -3 1 
5819 6 0.316253 0.292853 0.0953888 -4 -2 4 
5420 5 0.620611 0.325666 0.171231 2 -3 -1 
7454 5 0.835382 0.321408 0.16118 2 -3 -2 
5152 6 0.95242 0.321762 0.161378 5 3 -1 
8369 6 0.973641 0.370918 0.132407 2 1 -1 
7501 6 0.0487071 0.400373 0.147385 3 1 -1 
8161 5 0.323329 0.399139 0.131466 -3 2 2 
7974 5 0.598582 0.426712 0.141913 2 1 1 
8431 5 0.748897 0.420889 0.176654 1 2 4 
7808 5 0.371588 0.453942 0.151969 3 0 -3 
7761 5 0.450781 0.402756 0.14713 3 -1 -8 
5244 6 0.0880268 0.460008 0.0867902 -4 2 -1 
8124 5 0.134798 0.470889 0.156997 4 0 1 
6452 5 0.711987 0.444831 0.118496 2 1 -4 
5960 5 0.9868 0.501491 0.174595 -4 0 6 
8487 5 0.0337336 0.485807 0.177743 4 -3 -2 
6421 6 0.340297 0.523667 0.135836 -6 1 -2 
5499 6 0.605967 0.497884 0.179238 2 5 2 
5297 5 0.398079 0.583415 0.133117 2 3 -2 
6992 6 0.539318 0.575225 0.133495 -3 1 -7 
7149 6 0.525318 0.570158 0.131632 1 1 -3 
6831 5 0.240419 0.55247 0.139934 5 0 -1 
6094 5 0.66925 0.548352 0.170203 5 -3 -5 
6179 6 0.731913 0.58678 0.146928 -1 1 -3 
7912 6 0.00778748 0.660064 0.134237 1 1 3 
6698 6 0.103981 0.668061 0.133857 0 0 0 
8160 5 0.491592 0.646015 0.104383 -1 -1 0 
8434 5 0.997227 0.680275 0.156076 -1 -1 -2 
7282 5 0.125712 0.709751 0.179845 -4 4 1 
7097 6 0.597106 0.709046 0.149777 -1 1 -2 
8372 6 0.499992 0.72947 0.155658 3 0 1 
7654 5 0.572222 0.71716 0.190532 0 2 5 
6586 6 0.238117 0.737087 0.135999 -2 1 -1 
8328 5 0.431853 0.762706 0.114736 -2 2 0 
6901 6 0.531747 0.776489 0.179971 0 2 4 
6999 5 0.554401 0.762059 0.118938 -3 -1 -1 
6138 6 0.957506 0.765723 0.136174 -3 0 -4 
5648 5 0.289913 0.803494 0.136768 1 -3 8 
5059 6 0.109009 0.786501 0.144918 0 -7 4 
5822 6 0.275382 0.757222 0.123052 2 8 4 
6031 6 0.554591 0.803171 0.146376 -3 0 2 
7972 5 0.726285 0.791776 0.138261 -3 3 4 
8743 5 0.442152 0.832827 0.118861 -1 -1 6 
7346 5 0.476271 0.83615 0.116437 1 -1 -2 
6694 5 0.906714 0.863038 0.113961 -2 -3 -1 
5163 6 0.927662 0.850728 0.136778 -3 0 2 
5488 6 0.964168 0.786455 0.164447 2 -6 -4 
6242 6 0.0876224 0.900483 0.16457 -3 -2 0 
5687 6 0.477654 0.863582 0.143633 -7 -5 4 
7884 6 0.797015 0.8366 0.145527 -5 -4 0 
8207 5 0.730348 0.864577 0.105788 -3 2 4 
6950 5 0.942347 0.87958 0.159601 3 3 2 
5526 6 0.998725 0.958108 0.168339 3 -1 1 
7331 6 0.0822015 0.997747 0.162476 -2 -2 -2 
7721 5 0.0964424 0.946595 0.158211 1 -2 2 
8874 5 0.433198 0.954174 0.15698 -1 -1 1 
8462 5 0.124741 0.975849 0.148755 2 0 -2 
8994 5 0.856597 0.976586 0.183492 3 2 -1 
7152 6 0.965109 0.00339794 0.145818 0 -2 0 
6143 6 0.0831797 0.0376993 0.145488 0 4 1 
8435 5 0.727313 0.993167 0.14579 -3 -5 0 
5108 6 0.450574 0.0459471 0.164841 3 2 -3 
7848 6 0.750504 0.0218755 0.208751 2 1 0 
5667 5 0.143601 0.083075 0.150568 -2 -2 -4 
8944 5 0.164726 0.0653101 0.143599 2 -1 -1 
8783 5 0.625253 0.082854 0.163209 -3 -5 -6 
7541 6 0.722172 0.0538125 0.177531 -5 -3 6 
5688 6 0.87207 0.0895479 0.215548 -1 2 -6 
6214 6 0.206981 0.160042 0.171 3 -3 1 
5673 6 0.0891988 0.166273 0.13262 3 5 -2 
5401 5 0.748314 0.18058 0.198205 -1 3 2 
6804 6 0.0267415 0.187542 0.176628 0 2 1 
5595 5 0.590997 0.167767 0.188295 -4 1 2 
6040 5 0.0872593 0.193332 0.187899 -1 -2 3 
8535 5 0.0471094 0.232866 0.197274 -3 -7 -2 
7635 5 0.286822 0.219802 0.184099 -2 7 1 
7513 5 0.439996 0.233167 0.16313 2 -2 5 
8769 5 0.186137 0.250416 0.148227 -1 -2 6 
8741 6 0.58575 0.244203 0.150047 -1 1 2 
8035 6 0.671741 0.213033 0.160575 -1 1 0 
7112 6 0.995431 0.211759 0.1972 -5 0 -1 
5484 6 0.970342 0.240755 0.186669 -5 6 4 
6446 5 0.471447 0.298524 0.202352 -4 -3 -3 
8687 6 0.241733 0.32164 0.157712 2 -1 1 
6749 5 0.103465 0.293882 0.147133 1 4 -3 
6227 6 0.848355 0.312269 0.18646 0 -1 3 
5696 5 0.592715 0.367665 0.132072 -1 -1 -4 
7958 6 0.0508051 0.412494 0.172198 2 5 -1 
7177 6 0.76226 0.416677 0.170062 5 -4 0 
7027 6 0.998402 0.374715 0.145522 -2 -6 0 
7479 5 0.122118 0.381638 0.171654 0 -5 0 
7514 6 0.451255 0.429022 0.170812 -2 2 3 
6985 5 0.981111 0.374578 0.181295 -1 3 -7 
6018 6 0.273747 0.421317 0.179351 -3 -5 0 
7516 6 0.674539 0.481694 0.170803 -2 -3 -1 
7944 6 0.886206 0.428169 0.136979 1 5 -1 
6572 5 0.0637045 0.44656 0.180784 -2 2 3 
6099 5 0.552403 0.490835 0.155774 -3 1 -1 
7007 6 0.741122 0.479921 0.144346 1 -1 2 
7734 5 0.789592 0.433335 0.14567 -5 0 1 
7023 5 0.111012 0.507626 0.135933 2 7 -2 
6913 6 0.205177 0.489842 0.176768 1 0 3 
5826 6 0.525237 0.494584 0.180328 0 -4 -6 
6835 6 0.222273 0.536692 0.150948 -1 -3 3 
6892 5 0.0269163 0.525225 0.14039 2 5 3 
8878 5 0.061002 0.556717 0.19376 -2 4 -2 
7867 6 0.0310512 0.550004 0.181947 2 2 2 
8528 6 0.225623 0.550147 0.136085 3 -5 -2 
6477 6 0.150579 0.659364 0.18395 -6 2 3 
6274 6 0.237425 0.671389 0.194541 0 1 3 
8055 5 0.336834 0.658499 0.19082 2 -2 1 
5081 5 0.919465 0.606607 0.182342 2 2 2 
6623 5 0.0725149 0.61415 0.175703 -3 1 0 
5598 5 0.123629 0.710114 0.136935 0 -3 1 
5675 5 0.0079579 0.701716 0.135841 -2 2 4 
7409 5 0.212909 0.698555 0.186274 4 -1 -1 
7885 5 0.547648 0.679761 0.150001 8 -3 -2 
7452 6 0.519979 0.663624 0.16985 -5 1 4 
5981 5 0.939211 0.685575 0.151874 -1 4 1 
8799 6 0.359572 0.715035 0.174606 0 0 0 
5869 5 0.766742 0.709543 0.164741 6 0 -1 
6621 5 0.0751566 0.752232 0.155438 1 2 -1 
6038 6 0.143368 0.758484 0.145019 1 -4 4 
8410 5 0.149543 0.765061 0.202082 3 0 -2 
7383 6 0.730369 0.757257 0.171893 1 1 2 
5119 6 0.758899 0.759666 0.210601 1 6 -5 
6501 5 0.836729 0.770727 0.188676 0 -1 -3 
7527 5 0.178208 0.768816 0.189603 5 1 1 
6373 6 0.265702 0.834794 0.149793 -7 2 4 
6635 5 0.392396 0.855619 0.213703 -2 -1 4 
7668 5 0.0242053 0.82296 0.18029 3 2 0 
8653 5 0.034978 0.825983 0.135847 -5 -5 -3 
7122 5 0.00847779 0.825495 0.178155 2 0 -2 
7546 5 0.940286 0.923995 0.169858 -1 0 2 
8905 5 0.159474 0.897573 0.16849 3 -1 0 
8996 5 0.577309 0.89355 0.153369 -1 -2 -2 
6647 6 0.804853 0.916041 0.178116 2 -4 4 
7563 5 0.627931 0.95837 0.155894 1 -1 2 
8373 6 0.217773 0.939374 0.162475 -1 -5 1 
6959 5 0.342285 0.98969 0.170857 4 1 -1 
7429 5 0.408665 0.96939 0.174065 1 -2 3 
8731 6 0.72249 0.948107 0.147655 -1 2 -2 
8206 6 0.755349 0.00170758 0.195267 2 3 -4 
6547 6 0.213405 0.0149777 0.222177 -2 2 -4 
6970 6 0.297171 0.0676792 0.157242 -4 3 -1 
5997 5 0.536902 0.0747136 0.1652 -3 -4 0 
6467 6 0.558403 0.0543049 0.23546 -3 1 0 
7510 5 0.490361 0.126853 0.168325 -3 -3 0 
7455 6 0.534933 0.13365 0.172533 -3 0 5 
7956 5 0.666899 0.149248 0.190115 1 -4 0 
5316 6 0.172672 0.163802 0.192237 -2 -7 -2 
8625 5 0.67627 0.152797 0.193233 -3 0 -2 
8585 6 0.728005 0.146651 0.211502 1 0 2 
7344 6 0.80605 0.157636 0.21298 0 -2 1 
6945 6 0.0307892 0.18249 0.195192 -1 2 2 
6968 6 0.47057 0.181629 0.165306 -4 2 3 
7006 5 0.120363 0.234162 0.199284 2 -1 2 
6210 5 0.22056 0.216602 0.203317 2 -1 2 
5827 5 0.273648 0.214587 0.181197 0 0 -3 
5172 5 0.468817 0.217067 0.17424 2 4 -2 
5701 5 0.975291 0.271987 0.206672 3 -3 -2 