ITEM: TIMESTEP
20000000
ITEM: NUMBER OF ATOMS
9000
ITEM: BOX BOUNDS pp pp pp
-75 75
-75 75
-75 75
ITEM: ATOMS id type xs ys zs ix iy iz 
7112 6 0.310187 0.0208947 0.0420677 -2 -4 2 
8244 6 0.384987 0.988406 0.0120186 -2 0 -1 
7152 5 0.272705 0.0308233 0.0347547 3 6 0 
5680 5 0.174692 0.0622956 0.0165775 5 -2 -2 
5610 5 0.319515 0.0661357 0.0288771 -2 1 -2 
8670 6 0.458032 0.0597032 0.00306206 4 0 5 
6507 5 0.0914182 0.0508113 0.0126374 1 -5 2 
8882 5 0.697598 0.0849507 0.0345924 4 -1 -1 
6032 5 0.0442055 0.156692 0.0224552 6 -5 4 
7438 6 0.749157 0.147838 0.0189485 0 2 -2 
7237 5 0.801868 0.103716 0.0329371 2 1 0 
7589 6 0.318147 0.19701 0.0499749 2 0 -3 
8950 6 0.997072 0.187916 0.018492 1 0 -1 
8242 5 0.644201 0.182374 -0.000558337 0 -1 -2 
5735 6 0.951119 0.150412 1.00117 -3 1 -2 
7648 5 0.197748 0.194714 0.988119 3 6 0 
5666 6 0.631773 0.189577 0.0220401 -3 3 2 
7458 5 0.980476 0.195903 0.0586894 -6 7 3 
6474 6 0.422063 0.176543 0.99292 3 2 1 
7329 6 0.717445 0.219517 0.00760116 0 0 -3 
6916 6 0.278937 0.283949 0.00425132 -2 2 1 
7803 5 0.677165 0.270727 0.00237633 -2 -3 2 
7953 5 0.012476 0.286023 0.996834 2 3 -3 
5058 5 0.0391651 0.309955 0.0448634 3 3 2 
5713 6 0.0801822 0.35347 0.0382378 -2 2 2 
7228 6 0.155814 0.301546 0.0211545 6 2 -7 
5124 6 0.500964 0.318529 0.0120072 -1 -1 2 
5507 5 0.578625 0.342172 0.988439 3 -1 0 
6330 6 0.134121 0.393837 0.00670602 3 2 -3 
5740 5 0.684682 0.377122 0.0183483 -3 0 -1 
5292 5 0.772263 0.357378 0.0320717 0 -2 -3 
8904 6 0.811965 0.36243 0.994493 1 1 -3 
5776 6 0.235946 0.390079 0.999243 6 4 -6 
6365 6 0.237906 0.413369 0.986812 -1 2 -6 
8461 6 0.468439 0.373826 0.0576929 3 3 2 
8291 6 0.0511893 0.386264 0.0323489 2 4 -1 
5322 5 0.401122 0.358656 0.979152 -6 3 -1 
8177 6 0.0875762 0.426483 0.00800615 -1 -5 0 
8068 5 0.097414 0.438478 0.0476427 4 -5 -1 
5237 5 0.338261 0.449837 0.993302 -3 1 0 
8884 6 0.779176 0.427753 0.00776465 4 6 -2 
6924 5 0.967569 0.452744 0.983718 -4 0 2 
8690 6 0.156682 0.444084 0.0166584 0 2 4 
5850 6 0.93228 0.501537 0.976044 3 -1 3 
8737 5 0.101135 0.471753 0.00884528 -1 0 -3 
7330 6 0.440828 0.581191 0.997001 -1 4 -5 
6004 6 0.28169 0.565963 0.00791146 -2 -1 0 
5232 5 0.311243 0.57602 0.0271705 -5 -1 -4 
7874 6 0.750161 0.581321 0.0375164 -2 1 -2 
6724 5 0.181986 0.620708 0.98829 -2 4 0 
6265 6 0.899061 0.596026 0.00236681 0 1 7 
8842 6 0.319277 0.628308 0.993188 3 -3 -3 
8712 5 0.827398 0.628743 0.0107173 -2 2 -1 
8433 6 0.783739 0.677698 0.00162618 3 -2 0 
6086 6 0.890787 0.628891 0.977996 -4 -3 -1 
7487 6 0.662943 0.640529 0.0591455 -1 4 -6 
7289 6 0.772153 0.632597 0.022629 1 -2 -3 
8923 5 0.797128 0.647313 0.00210846 2 2 0 
7867 6 0.43568 0.716115 0.0178539 -1 -8 -1 
5807 5 0.583732 0.721467 0.99045 1 -2 -1 
8517 5 0.303334 0.749645 0.99356 -2 -3 3 
7599 5 0.339396 0.714091 0.0013116 0 -4 1 
6297 6 0.045852 0.756674 0.0342566 5 0 3 
5501 6 0.369626 0.781951 0.0361145 1 2 -4 
5940 6 0.451563 0.796579 0.991945 1 -3 -1 
6164 6 0.449046 0.774614 0.0263142 -1 3 5 
7479 5 0.496683 0.851697 0.990055 0 2 -1 
6920 6 0.468692 0.838873 0.00773005 0 -3 6 
7696 6 0.559236 0.881615 0.0322053 3 8 5 
7893 6 0.858602 0.861262 0.0480406 -1 1 1 
5524 6 0.128443 0.892585 0.00829081 -3 -2 -2 
7270 5 0.175364 0.834801 0.9908 5 2 2 
8892 5 0.340729 0.879205 0.0108214 4 -4 0 
7657 6 0.625584 0.866546 0.0213454 4 -3 -1 
5239 6 0.660912 0.903728 0.987958 1 3 5 
8956 5 0.0617814 0.909417 0.025992 0 -7 -1 
8423 6 0.350104 0.925993 0.00281997 -3 1 1 
7776 6 0.499014 0.911371 0.0410269 -4 3 1 
8290 6 0.775625 0.894398 0.040597 0 -6 -3 
8252 5 0.0483662 0.954148 0.0146335 1 -3 3 
6958 5 0.72493 0.937629 0.039123 6 0 -1 
7408 5 0.700208 0.967496 0.012064 -2 0 1 
7555 5 0.939434 0.970707 0.00630591 1 -3 -4 
5916 6 0.499515 0.0172378 0.00542686 0 -4 5 
8219 5 0.97654 0.991409 0.0263867 6 2 0 
7126 5 0.0610877 0.0082381 0.0293299 3 0 0 
6970 6 0.78679 0.989333 0.9789 -5 0 -5 
7978 5 0.258983 0.0219937 0.0229413 1 -1 0 
5142 6 0.205745 0.0412267 0.0211181 1 1 -1 
8612 5 0.0271689 0.0255468 0.0495075 -3 4 3 
7114 6 0.189141 0.106475 0.0138247 6 6 1 
8375 6 0.29546 0.0873297 0.000417332 -3 1 -5 
5538 6 0.393203 0.078474 0.0138992 1 1 1 
5506 5 0.466613 0.118521 0.0217909 3 -1 -2 
6738 6 0.545507 0.128884 0.0302309 3 3 0 
6204 6 0.358825 0.149587 0.015544 -2 1 -2 
8249 5 0.730047 0.13771 0.0670312 2 -2 -1 
7522 5 0.0513313 0.142421 0.050188 -2 1 -3 
5011 6 0.493687 0.177499 0.0317029 -3 3 1 
5284 6 0.565405 0.113183 0.0579466 -1 0 1 
8374 5 0.71627 0.158811 0.0325744 1 -2 -1 
7434 5 0.173352 0.154301 0.0274114 2 -1 3 
5644 6 0.631407 0.182767 0.0546966 1 4 1 
8016 6 0.876381 0.196714 0.0272597 1 1 -2 
5797 5 0.316927 0.187275 0.0317883 7 -2 -2 
6887 5 0.0820546 0.188046 0.0336507 2 2 9 
5874 6 0.863402 0.220167 0.023654 -3 0 5 
6316 6 0.384826 0.23504 0.043188 -1 3 -3 
6035 6 0.838517 0.252844 0.0315549 2 -2 -2 
6597 5 0.91938 0.247207 0.00775815 5 -2 -3 
8506 5 0.473665 0.30795 0.0266304 1 -2 -1 
6064 5 0.813729 0.257919 0.992684 1 0 -3 
5831 6 0.643767 0.318195 0.0245377 1 2 -1 
7815 6 0.992649 0.365898 0.055236 -1 -2 0 
7349 5 0.0421371 0.326155 0.0307604 2 2 2 
8711 5 0.761524 0.321086 0.0322839 0 1 0 
5007 6 0.836669 0.382038 0.0472052 0 2 0 
6868 5 0.24084 0.350215 0.018819 -2 1 -1 
5189 6 0.439489 0.353691 0.0207001 1 -1 1 
7001 5 0.510794 0.373628 0.0237859 2 -1 0 
6209 6 0.0431896 0.407098 0.000840271 0 -4 -4 
8041 5 0.466707 0.377458 0.0226534 -4 1 2 
8067 5 0.602486 0.473752 0.0231006 3 -3 -6 
5943 6 0.12701 0.492576 0.0509674 4 2 -1 
8236 5 0.279097 0.484348 0.0350125 3 0 0 
7207 5 0.512738 0.462276 0.999286 1 -3 0 
8893 6 0.583907 0.497118 0.0358614 1 3 -3 
7230 6 0.955531 0.498257 0.998763 0 2 0 
6973 6 0.103514 0.484389 0.0401298 3 0 0 
7798 5 0.612456 0.508727 0.0743672 -6 -4 -3 
7020 6 0.813794 0.540686 0.0116436 2 -5 -1 
8080 5 0.345572 0.509093 1.00028 -3 2 -1 
5903 5 0.456988 0.558652 0.0604151 -1 4 -1 
8764 6 0.776953 0.545903 0.0395721 1 -2 1 
6582 5 0.201696 0.561963 0.0055098 -3 0 -2 
5799 6 0.825897 0.548488 0.0634916 0 2 2 
6604 5 0.414472 0.579265 1.00032 1 -1 -5 
8852 6 0.722752 0.59132 0.986244 5 2 -3 
7222 5 0.92831 0.580582 0.0330013 0 -1 2 
8187 6 0.00963012 0.62394 0.0464488 3 -1 -2 
6686 6 0.786055 0.617413 0.0185774 -2 2 -1 
7668 5 0.912653 0.629986 0.0107667 -3 -1 -3 
5643 5 0.102701 0.700528 0.0466368 0 -5 2 
6222 6 0.301581 0.668906 0.0236767 3 4 6 
6595 5 0.574306 0.683137 0.0244715 1 -2 1 
7176 5 0.596986 0.657036 0.0881132 -1 0 -1 
6921 5 0.962365 0.646426 0.0904608 -1 -3 2 
8533 5 0.943461 0.736933 0.0282848 0 2 0 
5244 6 0.13698 0.746955 0.0299041 3 0 -3 
7818 6 0.958231 0.774115 0.0251023 -2 0 -3 
5299 5 0.443284 0.789716 0.0669482 -4 -4 6 
5274 5 0.675504 0.785599 0.064958 -2 -2 4 
6007 5 0.813674 0.785008 0.0264988 -2 1 5 
7724 5 0.374491 0.809425 0.0434225 -3 -1 6 
8139 6 0.46817 0.826552 0.051017 -5 3 1 
6852 6 0.670583 0.773613 0.0356316 -2 -3 -1 
8237 5 0.739931 0.794303 0.0230632 -4 1 0 
8281 5 0.202646 0.860344 0.0552041 3 3 4 
6908 6 0.797077 0.862048 0.0133137 -2 -2 -3 
6669 6 0.891699 0.881727 0.0208242 3 0 -5 
8703 5 0.456552 0.907459 0.0292441 -1 -4 0 
6807 5 0.878048 0.903775 0.013248 1 -5 1 
6001 5 0.120582 0.902784 0.993746 4 1 -6 
8631 5 0.120632 0.918136 0.0547228 0 1 0 
6802 5 0.379635 0.928364 0.976619 -2 2 -5 
7205 6 0.762238 0.868535 0.0177014 -1 1 -2 
8611 6 0.0874746 0.938437 0.0610516 3 -1 3 
5204 6 0.173213 0.959066 0.021153 0 -3 1 
6867 6 0.587716 0.921425 0.0596304 -2 -6 0 
8487 6 0.875737 0.958289 0.0246045 -2 3 2 
5539 5 0.877039 0.93188 0.0572742 -1 -1 1 
7645 6 0.397036 0.970211 0.0424748 -5 3 1 
7519 6 0.419689 0.973904 0.0316881 1 -4 -6 
5083 6 0.682813 0.976624 0.0448919 -1 1 -1 
5196 6 0.176671 0.969989 0.0259031 2 1 -6 
6477 6 0.272195 0.00632077 0.0145889 -1 1 -2 
8815 5 0.624498 0.969314 0.0368552 -1 5 2 
5401 5 0.0879901 0.0574743 0.0495284 0 -4 -1 
8597 6 0.106111 0.0639503 0.0654254 3 2 0 
5794 6 0.659963 0.0857818 0.0581399 -4 -6 0 
6735 6 0.778125 0.0514327 0.0669705 0 0 -4 
5163 5 0.06856 0.110858 0.0730166 5 -4 1 
8857 6 0.0914777 0.110573 0.0806856 -1 2 -2 
7723 6 0.846383 0.0672317 0.0947249 0 0 2 
6938 6 0.916778 0.0906774 0.0171917 3 0 4 
5048 6 0.794676 0.131845 0.0406357 -4 2 1 
6521 5 0.290883 0.149066 0.0364953 -3 5 3 
5367 6 0.27836 0.14239 0.032282 -4 1 -5 
6530 6 0.801001 0.177879 0.0810715 -2 -6 4 
6226 5 0.922147 0.161682 0.0534897 0 5 -1 
7970 6 0.0496652 0.145903 0.0416542 7 3 -4 
5178 5 0.86571 0.174995 0.0679945 -3 -2 -2 
8977 6 0.303001 0.230159 0.0691717 -4 -1 1 
6055 6 0.922708 0.235335 0.0439184 -4 -2 4 
5588 5 0.579489 0.234115 0.0112013 -5 1 5 
6289 5 0.871207 0.240971 0.0276392 3 -3 0 
7750 6 0.292818 0.250752 0.0331977 0 -2 3 
7746 5 0.978886 0.279937 0.0642278 0 6 -5 
8524 6 0.941121 0.283675 0.0436581 -4 4 1 
8089 5 0.181094 0.309674 0.0180099 6 0 -1 
7462 6 0.561454 0.358189 0.0510946 -3 5 -2 
8994 6 0.754248 0.350021 0.0233176 -5 -1 4 
7220 5 0.941726 0.31591 0.0935474 6 -3 6 
5750 6 0.79935 0.335146 0.0651103 3 0 -1 
6862 5 0.525413 0.350442 0.0540974 0 -1 2 
6844 5 0.732856 0.358703 0.0671695 3 4 -2 
8546 6 0.316578 0.41705 0.0714897 4 -1 0 
6190 6 0.814079 0.373754 0.0933676 0 2 6 
5890 5 0.218661 0.46542 0.0405654 5 -3 -3 
7732 6 0.213571 0.436476 0.0463285 -1 -3 -3 
8028 5 0.860977 0.434982 0.067252 -2 4 -1 
5864 6 0.852808 0.449828 0.0582606 -1 -1 3 
8454 6 0.0974751 0.472239 0.0536141 0 1 -3 
7296 6 0.245235 0.498636 0.0521715 -1 -1 -1 
8983 5 0.668973 0.458422 0.0528904 6 5 1 
7461 6 0.681769 0.488587 0.0719415 -4 -1 0 
7455 6 0.262371 0.470284 0.0656133 6 4 -2 
6778 6 0.415577 0.49193 0.0556672 -1 1 -4 
6440 6 0.520283 0.516118 0.0595572 5 0 -1 
8606 6 0.195952 0.559808 0.0491531 1 0 1 
8797 6 0.500321 0.473644 0.0613065 3 0 -1 
6258 6 0.63159 0.541296 0.0327781 0 7 -1 
7858 5 0.702179 0.498595 0.0891147 1 3 -5 
6622 6 0.72228 0.528518 0.0196798 1 0 -5 
8284 5 0.737904 0.546788 0.0671102 -2 -1 -5 
6207 6 0.66447 0.579918 0.058314 -3 -2 2 
5288 6 0.74221 0.574627 0.0495926 -3 -2 4 
7138 6 0.902677 0.598606 0.0435009 -5 2 -4 
6267 6 0.326852 0.613221 0.0358204 3 0 -1 
8327 5 0.799971 0.608591 0.0436174 0 -4 -1 
5942 6 0.0517003 0.642522 0.0888422 2 -1 -3 
5885 5 0.552436 0.716231 0.0693634 0 2 5 
5715 5 0.329429 0.723174 0.0451713 4 2 0 
8644 5 0.559544 0.750484 0.0699984 0 1 0 
5987 6 0.582278 0.716401 0.0625321 0 -1 3 
5756 5 0.6445 0.743483 0.0901001 4 -1 -3 
6625 6 0.840604 0.72424 0.0392349 0 -5 -1 
7153 5 0.30774 0.775534 0.0438049 -3 2 -1 
7091 6 0.619618 0.750351 0.0557392 3 -2 -3 
8588 6 0.931984 0.752185 0.0438865 -1 -2 -3 
6103 6 0.0571472 0.75218 0.048349 3 -3 -1 
7489 6 0.460838 0.806829 0.0254631 0 1 -3 
8875 5 0.620263 0.823944 0.0224933 -2 4 1 
7708 6 0.0145452 0.812792 0.0882844 5 -1 5 
5621 5 0.708358 0.832813 0.0508729 -4 1 3 
8870 5 0.225505 0.849183 0.0584221 -4 -5 0 
5027 5 0.26485 0.891012 0.0478841 3 -3 1 
6644 6 0.424167 0.859862 0.113551 -2 1 7 
6561 5 0.696203 0.889101 0.076939 2 -1 -2 
5573 6 0.785496 0.923657 0.0593915 -3 0 6 
5775 5 0.282017 0.879069 0.0626372 -1 -3 -5 
8228 6 0.858712 0.934997 0.0433317 -1 2 0 
8905 6 0.503953 0.939627 0.0394988 -4 -3 3 
7963 6 0.505526 0.899967 0.0540015 1 -2 -2 
7991 5 0.812898 0.928478 0.0824935 -4 1 4 
7775 6 0.156023 0.952036 0.0461431 1 2 2 
8666 5 0.625372 0.953036 0.0568607 -5 -3 5 
5717 5 0.812868 0.0290043 0.0585104 1 0 4 
6123 5 0.06703 0.0348948 0.0274108 3 2 2 
7749 6 0.466129 0.995089 0.0452881 -2 -2 0 
7202 5 0.515268 0.0318724 0.0686022 -1 1 -1 
8864 5 0.335726 0.0424717 0.0645666 2 1 1 
5088 6 0.442629 0.0476094 0.1253 3 3 0 
6364 5 0.688593 0.0388011 0.0824206 3 1 -1 
6362 5 0.437683 0.114651 0.065156 -6 -3 2 
7033 6 0.461506 0.0379303 0.0583832 -1 4 3 
6118 6 0.590125 0.110416 0.0469959 3 -1 -1 
8401 6 0.370711 0.102046 0.0822176 0 0 4 
7852 6 0.628785 0.127125 0.0875533 -3 2 2 
7474 6 0.595688 0.0994264 0.0829287 -2 -2 3 
8369 6 0.505206 0.150494 0.0738114 -4 -2 1 
8435 6 0.0884427 0.205534 0.112134 4 -4 0 
6714 6 0.28696 0.183856 0.0370452 2 1 -4 
7324 6 0.432077 0.167172 0.080682 -6 4 -3 
6091 6 0.136982 0.190603 0.082142 -1 -3 2 
5910 6 0.237634 0.177845 0.0395291 5 -1 6 
8634 6 0.599573 0.227619 0.12479 2 -1 -2 
7195 6 0.578664 0.182166 0.115479 3 1 2 
5286 5 0.948049 0.207282 0.100671 0 2 -3 
5684 5 0.996853 0.253454 0.0863053 -1 -3 -3 
7491 5 0.42593 0.297606 0.0986122 -4 -5 8 
7347 6 0.673595 0.255588 0.0590978 0 2 2 
5887 5 0.295224 0.275329 0.105928 1 -2 1 
7503 5 0.722392 0.303242 0.0598608 4 0 -3 
8489 5 0.302254 0.322623 0.06769 -3 -1 -1 
5854 6 0.515868 0.273208 0.0881049 3 0 3 
8413 5 0.595425 0.293278 0.0926907 -4 2 -6 
6793 5 0.27775 0.354379 0.089213 1 -4 -3 
7605 6 0.296138 0.334851 0.0968358 -4 2 6 
5412 5 0.0208487 0.348757 0.0734841 4 0 0 
5066 6 0.469732 0.363007 0.0274638 0 -2 -2 
8224 5 0.411573 0.421725 0.0620594 7 -2 3 
8825 5 0.859759 0.400257 0.111769 7 -1 3 
6889 6 0.175574 0.40254 0.082938 -2 0 0 
6815 5 0.333475 0.392548 0.0561138 -5 4 -1 
7371 6 0.460443 0.38679 0.087879 -4 -2 -3 
6251 5 0.482053 0.417179 0.0646985 6 6 0 
7682 6 0.644911 0.448732 0.069298 -2 5 4 
8582 5 0.203939 0.411173 0.0741893 2 -2 -1 
7326 5 0.340746 0.461165 0.0529274 0 3 4 
7137 6 0.783683 0.455783 0.0708051 4 -1 0 
7231 5 0.983333 0.512047 0.096529 2 2 1 
5411 5 0.68402 0.533744 0.0651395 0 0 3 
7632 5 0.868775 0.536646 0.0803923 0 -1 0 
5497 6 0.742032 0.561443 0.0895836 -4 1 -1 
6278 5 0.821396 0.503222 0.11042 5 3 -3 
5760 6 0.671015 0.57115 0.092099 3 -1 1 
6730 5 0.0842314 0.558898 0.0770567 1 -3 -1 
5914 5 0.123516 0.593213 0.0656435 0 -4 -2 
5746 5 0.330123 0.590867 0.0577296 -2 2 -1 
5845 5 0.380617 0.587279 0.104712 3 2 -6 
5534 6 0.445545 0.578518 0.106714 -2 -2 -1 
6476 6 0.457605 0.626198 0.0526148 1 3 -2 
7099 6 0.536257 0.639964 0.127775 -1 0 3 
6922 5 0.652781 0.609932 0.0694323 2 1 -2 
8585 6 0.057768 0.661187 0.0477854 -1 4 -1 
7688 6 0.299505 0.627997 0.0621023 4 -2 -2 
7718 6 0.438398 0.592466 0.0400703 1 -1 1 
8362 5 0.179245 0.679954 0.0624303 -3 5 0 
5456 5 0.373518 0.69025 0.0760975 3 -2 -1 
7653 6 0.455019 0.644603 0.0491369 1 -1 -2 
7949 5 0.489481 0.666233 0.106515 -3 -1 -1 
8310 5 0.629402 0.63793 0.063846 -1 1 1 
8626 6 0.778406 0.680277 0.0550839 5 5 2 
5772 5 0.399687 0.710234 0.108075 -2 0 5 
8710 6 0.507566 0.711742 0.0775425 5 -4 5 
5201 5 0.834597 0.707111 0.087325 -1 -3 2 
6479 6 0.503591 0.75446 0.0615668 3 2 1 
5214 6 0.193107 0.786922 0.102806 2 -3 -2 
8786 5 0.411038 0.761055 0.117936 6 1 2 
6229 6 0.401969 0.780026 0.0874335 -2 0 0 
8417 5 0.666461 0.769637 0.12767 -5 -1 0 
5247 6 0.944908 0.80791 0.0734193 0 0 3 
6273 5 0.351235 0.821358 0.0366033 0 -2 4 
8574 5 0.414915 0.784283 0.0825726 -1 -6 1 
7955 6 0.522876 0.869149 0.108113 -1 0 3 
8908 5 0.323167 0.880554 0.112713 -1 3 3 
5308 5 0.0612479 0.935342 0.0722235 -4 -2 0 
6884 5 0.180069 0.89301 0.117219 4 0 -5 
5978 5 0.719453 0.945593 0.0884542 -3 8 2 
7291 5 0.283109 0.00628452 0.0809153 1 -3 1 
5079 5 0.501952 0.972874 0.078171 -1 -2 0 
5536 5 0.370022 0.0328141 0.104544 3 3 0 
7765 6 0.547769 0.00335507 0.130958 -2 -1 -4 
7325 5 0.534525 0.0278928 0.104956 0 0 2 
5298 5 0.764697 0.0168658 0.058784 -4 0 -4 
6634 6 0.956209 0.0793153 0.0951048 -2 0 -6 
7931 6 0.158171 0.0731927 0.121243 0 -3 2 
7780 5 0.41107 0.0754456 0.113811 -2 2 -3 
5945 5 0.755844 0.0256846 0.135342 2 1 1 
7905 5 0.0489871 0.0806289 0.107107 -1 -1 -1 
6718 6 0.635987 0.061863 0.0902401 1 4 3 
7785 6 0.731322 0.0720035 0.118047 2 0 5 
6304 6 0.00459857 0.0696113 0.0871988 -2 4 -2 
5972 5 0.363536 0.131625 0.096145 -4 1 -2 
8557 5 0.553999 0.179972 0.0939777 -2 4 5 
7417 6 0.964703 0.185565 0.124659 0 1 -2 
5097 6 0.080872 0.218814 0.0971081 0 -4 4 
6469 6 0.360372 0.173092 0.124585 0 1 -1 
6534 5 0.698869 0.220126 0.109583 -1 4 1 
8840 6 0.58562 0.234545 0.148678 2 -1 -2 
6761 6 0.747842 0.238826 0.0913904 -3 2 4 
5224 6 0.36321 0.243711 0.087655 -5 0 -4 
7603 6 0.407605 0.254372 0.0801393 -1 -1 -4 
8298 5 0.593706 0.316663 0.104377 -3 0 -2 
8112 6 0.201921 0.297806 0.0814415 1 8 1 
8873 6 0.27993 0.281498 0.110681 1 0 1 
5813 6 0.309761 0.2577 0.0885047 1 1 -3 
7468 6 0.475717 0.296267 0.0966563 -2 2 2 
7115 6 0.976133 0.285864 0.0919028 0 1 -2 
6471 6 0.173041 0.307475 0.0801719 0 3 -3 
6414 5 0.154782 0.296536 0.123598 1 2 6 
8869 6 0.544072 0.321546 0.112061 1 2 1 
8352 5 0.248669 0.365841 0.0929261 1 2 0 
8069 5 0.152008 0.391434 0.0928369 -2 -2 -1 
8450 6 0.663058 0.361602 0.104098 -4 -2 2 
8600 6 0.934657 0.305505 0.132414 1 1 5 
7520 6 0.286295 0.372685 0.12885 0 1 6 
6996 6 0.43326 0.402454 0.108731 -2 0 -5 
8521 6 0.772426 0.355176 0.103252 -3 1 1 
5057 6 0.941631 0.385823 0.0997305 2 1 -1 
7134 5 0.939446 0.44512 0.08086 1 -3 2 
7939 5 0.119747 0.386116 0.0863933 -3 1 4 
7192 6 0.400098 0.411399 0.0642602 -4 2 3 
8739 6 0.398909 0.371566 0.134481 -1 1 4 
5429 5 0.113116 0.4525 0.0950894 1 2 1 
8976 6 0.233016 0.470205 0.151149 6 5 1 
6719 5 0.381502 0.447956 0.135987 -2 -1 0 
8137 6 0.609896 0.432279 0.0680704 -3 1 5 
7052 6 0.835297 0.420149 0.0926256 2 -3 -1 
5468 5 0.270412 0.481772 0.0928534 3 0 3 
7346 6 0.419469 0.450293 0.100904 -4 0 3 
5293 6 0.385691 0.479636 0.0882661 -1 3 -2 
5851 6 0.506748 0.513685 0.102701 2 -4 0 
8738 6 0.797276 0.499498 0.10042 0 -7 -3 
6651 6 0.88902 0.546789 0.111632 -2 0 -1 
8513 6 0.0305962 0.61223 0.0903076 -4 0 4 
5167 5 0.763182 0.538442 0.0962064 0 -4 2 
6020 5 0.319138 0.586434 0.104181 2 2 -1 
8974 6 0.409491 0.574792 0.108005 4 2 -1 
5050 5 0.517209 0.550359 0.0845684 -1 2 0 
8507 5 0.085525 0.588931 0.0797031 0 5 -2 
6060 5 0.392624 0.59387 0.0914959 0 -2 -1 
7823 6 0.704995 0.625518 0.077076 0 2 -5 
5788 6 0.622688 0.641447 0.0963818 -3 -6 0 
8992 6 0.71111 0.611097 0.116536 -1 -2 3 
8960 6 0.958407 0.594143 0.0910463 -1 -1 -2 
5054 6 0.390004 0.648279 0.0862605 -1 4 2 
7456 6 0.663231 0.649578 0.0889254 3 4 2 
6085 5 0.676405 0.638266 0.127489 -4 3 -2 
6808 5 0.82739 0.65763 0.075285 -6 -1 2 
8604 5 0.271691 0.68554 0.0756111 6 0 -1 
6637 5 0.599328 0.623805 0.0848369 1 -2 1 
6315 5 0.969022 0.730624 0.0732284 -2 -1 -2 
5877 6 0.0676324 0.712556 0.0997502 0 -4 -1 
5020 5 0.127815 0.717539 0.119633 -2 -1 3 
5273 5 0.406634 0.719574 0.174898 2 -2 -1 
6337 5 0.574516 0.741589 0.125303 -4 -1 2 
5510 6 0.406059 0.771657 0.0920834 -1 -2 8 
6049 5 0.977432 0.754769 0.103057 -1 2 2 
5067 6 0.0859313 0.767216 0.0941788 2 1 2 
6411 6 0.0751345 0.817293 0.106097 4 2 -2 
7418 6 0.429587 0.818105 0.0751486 -2 1 2 
6068 5 0.74691 0.869499 0.128352 -4 -3 6 
6391 6 0.799062 0.861506 0.0723079 4 0 1 
7025 6 0.686084 0.863152 0.107362 -1 1 1 
7390 5 0.63501 0.908167 0.106853 1 0 4 
6381 5 0.101759 0.925922 0.107096 2 6 3 
7107 6 0.540967 0.901282 0.1006 0 2 4 
7449 5 0.840785 0.92937 0.0432607 3 -2 1 
6654 6 0.768279 0.892644 0.103508 2 0 0 
6834 6 0.558852 0.964886 0.112706 -1 -3 0 
8289 6 0.441769 0.98845 0.0780297 1 1 2 
8944 6 0.121202 0.010506 0.124295 -1 4 -2 
6930 6 0.197812 0.0208044 0.106828 -2 3 0 
5924 6 0.0243487 0.0296797 0.116863 0 -6 2 
8227 6 0.790207 0.0415749 0.124482 -6 2 5 
8342 5 0.00372962 0.0455847 0.133678 2 -1 3 
5732 6 0.407114 0.0737565 0.135865 1 -4 -4 
5229 6 0.609985 0.0707331 0.116232 -1 5 -1 
6325 5 0.823217 0.100549 0.139941 3 0 0 
8779 6 0.430958 0.0881872 0.116796 0 -4 3 
5406 5 0.505737 0.104746 0.105241 -2 1 -2 
7509 6 0.848885 0.105533 0.105892 0 2 -2 
7661 5 0.516945 0.149395 0.146188 0 2 -2 
6242 6 0.686796 0.167093 0.103671 -1 1 -1 
7012 6 0.908198 0.139778 0.127456 2 -2 0 
5568 6 0.181077 0.153116 0.116505 1 -1 7 
7663 6 0.293592 0.166469 0.119771 -1 2 -3 
6513 6 0.670986 0.178237 0.139241 4 1 -3 
5592 5 0.494022 0.190708 0.132175 4 -1 -1 
7256 6 0.737459 0.229505 0.119115 -6 -2 0 
8074 5 0.903039 0.17631 0.081334 -1 -2 1 
7356 6 0.894305 0.173471 0.142057 -1 4 3 
7451 6 0.979414 0.200475 0.109346 0 5 4 
7585 6 0.0726683 0.249485 0.132505 4 -3 3 
8495 5 0.155026 0.252794 0.130056 -1 -1 0 
6010 5 0.170112 0.210102 0.139475 -1 0 3 
5442 6 0.359582 0.221703 0.146702 -5 -1 0 
5216 6 0.662168 0.292474 0.131027 -2 -3 -3 
7676 6 0.419016 0.304986 0.108018 -1 -7 -5 
5305 6 0.963906 0.307011 0.0966706 1 4 4 
5152 6 0.238559 0.312658 0.137537 -1 0 -6 
8827 5 0.505073 0.330668 0.147363 1 7 -3 
8853 5 0.185261 0.358897 0.143131 0 3 2 
6431 6 0.397069 0.355823 0.130182 5 -4 -3 
7713 5 0.656761 0.351494 0.163489 0 1 0 
5488 5 0.155013 0.37136 0.0824663 6 -4 1 
5902 5 0.791746 0.399113 0.104687 0 1 -5 
6870 5 0.664907 0.39578 0.123782 -6 -5 0 
5459 5 0.971658 0.387518 0.0823223 0 2 2 
5352 6 0.161727 0.408307 0.0934094 1 1 0 
8246 6 0.686249 0.389942 0.148479 5 3 7 
8122 6 0.961732 0.44225 0.128921 0 -5 -1 
8969 5 0.531085 0.432143 0.111565 3 2 2 
6429 6 0.175168 0.480935 0.122934 0 2 -2 
7993 6 0.741671 0.481803 0.119283 6 -2 3 
5417 6 0.928332 0.484037 0.134947 -2 0 -1 
7194 6 0.101213 0.525087 0.116191 -4 -1 6 
8618 5 0.719837 0.524358 0.0908949 1 0 -3 
6708 6 0.215477 0.532048 0.105117 0 -2 1 
5947 6 0.502415 0.548508 0.124786 0 -3 -1 
6890 6 0.866571 0.578317 0.154411 4 4 2 
6826 5 0.966456 0.555129 0.122947 -2 1 6 
7157 5 0.11331 0.584988 0.0849915 1 4 -3 
5966 5 0.642876 0.570052 0.152192 -3 -3 -2 
8782 6 0.514981 0.61796 0.147026 -2 0 4 
6361 6 0.529248 0.642413 0.109005 1 -1 1 
7869 6 0.927712 0.631042 0.123748 -4 4 1 
6235 5 0.223589 0.661552 0.138841 3 -3 3 
6721 6 0.662614 0.691942 0.119725 0 -1 -6 
8981 5 0.366854 0.697244 0.118638 1 1 -1 
7439 5 0.485809 0.656423 0.110562 2 2 3 
7651 6 0.63593 0.664305 0.147871 -3 0 1 
8124 5 0.600428 0.709178 0.130631 6 5 4 
6456 6 0.941679 0.675557 0.147009 -4 1 0 
5059 6 0.204711 0.679587 0.107287 3 -1 1 
8608 5 0.409328 0.686947 0.131805 2 2 1 
6687 5 0.15401 0.771751 0.103979 -7 3 1 
8085 6 0.438262 0.700103 0.144596 -3 -3 1 
5509 5 0.53579 0.747827 0.123902 -2 -5 -4 
7341 5 0.226367 0.760036 0.117531 -2 1 2 
8186 6 0.921402 0.817784 0.12448 2 -3 0 
7009 6 0.685848 0.828463 0.0932035 1 -2 1 
8471 6 0.929658 0.852453 0.117955 -5 2 1 
8990 6 0.128324 0.853469 0.146359 -5 -5 -6 
6603 5 0.413861 0.853945 0.182632 -3 -9 -4 
6249 5 0.588836 0.841705 0.142682 -5 4 5 
6977 6 0.719477 0.89795 0.0948441 0 -4 4 
5836 6 0.941007 0.851691 0.102887 0 7 1 
8265 5 0.804192 0.870555 0.125631 -4 -5 0 
6216 5 0.142807 0.958079 0.113505 1 3 5 
8583 5 0.751966 0.975258 0.128627 -4 6 0 
7010 6 0.0441771 0.911654 0.11795 2 -2 5 
6707 5 0.976526 0.985632 0.120353 -1 0 -1 
8311 5 0.992586 0.00346993 0.1627 2 -4 5 
5590 6 0.175405 0.0167133 0.156683 1 6 2 
8097 5 0.332466 0.0244679 0.134196 7 0 -3 
8005 5 0.754388 0.0224983 0.154927 3 1 -2 
6732 5 0.978095 0.0276194 0.128547 -4 4 -6 
8537 6 0.0272749 0.988827 0.140747 -4 6 -2 
6643 5 0.175378 0.0296935 0.117873 2 -2 5 
5300 6 0.19942 0.0471949 0.139634 3 5 -3 
6882 5 0.187677 0.093496 0.148068 -1 -4 -1 
7128 6 0.358528 0.0778724 0.140501 -2 1 1 
8025 5 0.341151 0.173108 0.147896 -4 3 -1 
7673 5 0.0459678 0.167789 0.120805 4 -1 2 
7944 5 0.840488 0.140532 0.142212 -1 -5 3 
8498 5 0.107865 0.224042 0.147763 0 3 -1 
6127 6 0.590049 0.246589 0.107129 0 2 -2 
6272 6 0.569552 0.2325 0.125368 2 3 0 
7294 6 0.699165 0.224325 0.13442 0 -5 6 
5598 6 0.851349 0.216546 0.109411 -1 0 -1 
5241 5 0.677044 0.250242 0.160553 -5 6 -5 
6043 6 0.915626 0.22555 0.14018 -3 -1 1 
5608 5 0.3317 0.278225 0.127108 -2 -2 0 
5384 5 0.432856 0.268958 0.127234 -1 -2 -1 
5373 5 0.487249 0.309624 0.122836 1 3 1 
8087 6 0.761946 0.277669 0.155266 -1 -2 -1 
7201 5 0.3037 0.333518 0.150727 0 0 -2 
5838 6 0.534957 0.283346 0.152035 -2 -1 -3 
6203 5 0.752908 0.366733 0.144241 -5 1 1 
5620 5 0.378472 0.370483 0.179002 -2 1 5 
5116 5 0.527788 0.346119 0.178498 2 -5 -3 
6770 6 0.925418 0.414182 0.120525 -5 -2 1 
5843 5 0.487925 0.440661 0.170545 3 1 -2 
8528 5 0.810342 0.474613 0.172199 2 4 3 
7788 6 0.977618 0.446148 0.136185 2 2 2 
6018 6 0.0713554 0.480048 0.16696 2 -2 -1 
7460 6 0.107642 0.490161 0.15089 -1 3 -2 
8499 5 0.257995 0.495506 0.181485 7 4 2 
7488 6 0.652542 0.515543 0.141686 0 -1 -1 
8693 6 0.964351 0.510646 0.151868 -1 0 -1 
5131 5 0.479262 0.538117 0.11966 0 4 0 
6326 6 0.0845061 0.558749 0.160225 -4 -4 0 
7442 5 0.49354 0.52883 0.145209 -1 1 -2 
7596 6 0.602269 0.5882 0.138099 11 3 -1 
5693 6 0.975389 0.575421 0.117848 0 -1 -4 
5422 6 0.243946 0.656428 0.153662 -2 -1 2 
6152 6 0.768603 0.641889 0.152011 4 -1 0 
8214 5 0.948948 0.661373 0.106481 5 1 -1 
7841 6 0.397785 0.701165 0.203679 4 -2 1 
8728 6 0.431071 0.669959 0.127804 3 4 4 
8264 6 0.0447194 0.758949 0.156665 3 -2 -3 
8865 6 0.539801 0.733446 0.131213 0 1 0 
6876 6 0.788337 0.748407 0.162438 1 -2 0 
7752 5 0.768806 0.758092 0.134748 0 1 -3 
5848 5 0.151283 0.757686 0.161969 -4 0 2 
8792 5 0.118622 0.80276 0.174966 3 -1 1 
6244 6 0.220681 0.79267 0.141824 -3 -2 3 
8470 6 0.596864 0.810972 0.167603 2 -2 1 
7477 6 0.0264989 0.841063 0.129972 0 4 0 
7284 5 0.469414 0.824582 0.161503 2 6 0 
7421 5 0.893306 0.861031 0.158587 -1 2 -7 
7450 5 0.0892607 0.860336 0.167061 0 0 4 
7191 6 0.984834 0.834178 0.151796 1 2 -1 
5281 5 0.37338 0.91422 0.159544 -2 -1 -2 
6681 6 0.733773 0.897537 0.157294 1 1 7 
7057 6 0.518612 0.959261 0.143315 0 -4 -2 
8946 6 0.716743 0.932606 0.117048 -3 -7 10 
7885 6 0.130618 0.952322 0.156973 -2 2 -2 
7078 5 0.256064 0.944633 0.162591 -3 8 2 
7559 6 0.174454 0.976432 0.167889 4 -2 2 
5492 6 0.363755 0.989317 0.183784 1 1 1 
6627 5 0.828545 0.0187974 0.130353 0 -1 4 
6869 6 0.333064 0.0453221 0.195006 -3 -5 5 
8698 5 0.515684 0.0195539 0.191464 -1 0 -4 
8516 6 0.529658 0.00781742 0.171026 6 -2 -4 
5861 6 0.992727 0.0543686 0.161163 -4 6 -1 
7702 6 0.151351 0.0640796 0.155731 2 4 -2 
8400 5 0.0100668 0.0950729 0.15351 4 1 4 
6954 5 0.241551 0.102496 0.198197 0 3 -7 
5096 5 0.337763 0.0791639 0.163245 2 4 -2 
8662 5 -0.000472021 0.104976 0.200709 3 -2 2 
5491 6 0.714986 0.13979 0.131409 -2 2 1 
5625 6 0.0543938 0.16386 0.161471 6 4 -3 
6678 6 0.789786 0.179553 0.215749 0 -1 -2 
8346 6 0.0587089 0.20622 0.175163 -7 5 1 
8147 5 0.587343 0.224178 0.180896 4 6 3 
5414 6 0.678128 0.185352 0.198128 3 -2 2 
7855 6 0.757589 0.217525 0.180864 1 0 -1 
5700 6 0.923377 0.223242 0.171498 -3 -1 1 
7375 5 0.51185 0.245288 0.153607 -4 -4 -2 
5875 5 0.42851 0.320282 0.195565 -4 0 -1 
6804 5 0.652297 0.305253 0.143033 -5 -1 -4 
5270 5 0.0456881 0.297767 0.194992 4 -1 -5 
7631 5 0.316843 0.303477 0.192481 -5 1 2 
7516 6 0.417161 0.301151 0.149024 -1 0 -2 
6863 6 0.134121 0.332131 0.164982 0 5 2 
6046 5 0.19636 0.340682 0.154407 5 0 3 
6962 6 0.00753647 0.363985 0.186222 -2 -5 -4 
8734 6 0.827415 0.324478 0.167841 -1 2 -3 
7879 5 0.38681 0.395917 0.160769 1 4 3 
7471 6 0.548181 0.35589 0.181527 0 -1 2 
7612 6 0.57359 0.405829 0.155805 0 -1 -2 
6177 6 0.0920965 0.455409 0.175903 3 3 2 
8697 5 0.303921 0.45562 0.158203 1 -2 1 
6555 6 0.486991 0.422433 0.17436 -4 2 -3 
8415 5 0.825238 0.458762 0.176175 -6 -2 7 
7694 5 0.953835 0.461745 0.199407 1 -2 -2 
7667 5 0.0218174 0.446119 0.201715 1 1 2 
7998 5 0.237451 0.463351 0.122763 -1 -4 1 
5413 6 0.826661 0.468677 0.16052 -3 -1 5 
5526 6 0.517106 0.478655 0.15408 0 -2 -4 
5385 5 0.16799 0.484491 0.14971 -2 3 2 
7310 5 0.917296 0.530671 0.128792 4 -1 2 
6873 5 0.218242 0.542709 0.142879 1 -2 -6 
5444 6 0.761672 0.501981 0.151813 0 2 2 
7404 6 0.0490405 0.553702 0.197729 -1 2 -1 
6504 5 0.101681 0.582819 0.11869 -1 -3 2 
7649 6 0.0476715 0.605439 0.15505 7 4 -1 
6849 5 0.333288 0.608218 0.182781 3 -1 -6 
7636 6 0.500456 0.607214 0.181444 0 1 -1 
5656 6 0.62904 0.618499 0.182915 0 1 -2 
5222 5 0.621784 0.620211 0.16398 2 0 1 
8909 6 0.912602 0.654118 0.155252 3 2 2 
7987 6 0.935515 0.683987 0.182961 2 1 7 
8431 5 0.726859 0.669706 0.143859 0 0 3 
7299 6 0.996367 0.687063 0.18649 5 -1 1 
7039 5 0.492957 0.658951 0.173939 -5 -1 1 
7580 6 0.472114 0.705541 0.189542 3 -1 -1 
6022 6 0.698362 0.772674 0.16592 1 0 3 
6648 6 0.0379439 0.801735 0.177617 4 -3 2 
8688 5 0.276746 0.753898 0.170648 1 0 0 
7960 6 0.544165 0.768167 0.177131 6 3 0 
5913 6 0.614543 0.796039 0.158424 0 4 2 
5604 6 0.234601 0.776024 0.18367 -3 1 3 
8261 5 0.299293 0.817311 0.135449 -3 2 1 
8031 6 0.376008 0.780368 0.180395 -4 -1 -3 
5514 6 0.419893 0.810259 0.180823 -1 -6 2 
5127 6 0.514304 0.824898 0.187501 3 -3 3 
8351 6 0.669807 0.83623 0.198377 0 -3 0 
8047 5 0.784366 0.836624 0.169158 3 1 0 
6828 6 0.753583 0.811 0.132681 4 -3 -4 
8540 6 0.867281 0.801115 0.153006 -2 -1 -1 
7789 6 0.03196 0.803664 0.152617 5 -3 -1 
5944 5 0.425489 0.852015 0.174335 -4 -2 -3 
8330 6 0.575943 0.858871 0.155692 2 1 2 
7357 5 0.31492 0.844397 0.158338 6 -2 4 
8225 6 0.564303 0.911316 0.159784 -2 -5 -5 
6800 6 0.897721 0.893505 0.135369 0 -4 4 
7177 5 0.385187 0.931803 0.19058 0 -2 0 
5479 5 0.551633 0.89086 0.163852 -2 -3 7 
8945 6 0.762907 0.949637 0.173474 4 0 -1 
8213 5 0.267194 0.953591 0.127509 3 6 1 
7412 5 0.412561 0.966187 0.160684 -4 1 1 
5423 5 0.584421 0.955354 0.18618 -1 1 -3 
7405 5 0.0253326 0.0167317 0.174241 -3 1 -6 
6154 5 0.202663 0.961258 0.164987 -3 -1 -1 
6179 5 0.0577495 0.989387 0.219437 -3 7 -4 
5786 5 0.532314 0.983915 0.18973 -1 2 2 
7794 6 0.0861452 0.0286521 0.15989 -2 2 2 
8511 6 0.157386 0.043111 0.211915 4 2 3 
6629 5 0.890401 0.0417275 0.230181 -1 3 5 
8277 5 0.144948 0.113107 0.201124 0 2 1 
6682 6 0.555011 0.12345 0.166367 -2 -3 0 
8198 6 0.906427 0.114965 0.187661 -4 3 -2 
8832 5 0.646709 0.175354 0.185066 0 8 -2 
7396 6 0.789966 0.166259 0.178623 2 -2 1 
7999 6 0.0220078 0.229376 0.162741 0 2 -3 
7590 6 0.270616 0.223263 0.182842 2 -5 2 
5689 5 0.326347 0.198051 0.186496 2 1 -6 
8777 6 0.516608 0.150278 0.213424 -2 1 -1 
5933 5 0.495036 0.186248 0.208485 -4 -1 0 
7044 6 0.519221 0.178737 0.187312 -2 0 0 
6744 6 0.632452 0.220976 0.187732 7 -3 1 
8655 6 0.948414 0.175911 0.169803 -1 -1 -2 
5616 6 0.241386 0.234188 0.194632 2 6 7 
7260 6 0.01946 0.265372 0.194207 5 5 1 
8040 6 0.422215 0.218384 0.19135 0 3 3 
5188 6 0.576563 0.243112 0.217257 -2 4 -4 
7666 6 0.335599 0.269001 0.205525 -4 -2 3 
5464 5 0.644301 0.297292 0.173713 -5 -6 0 
5227 6 0.908098 0.291548 0.186604 2 0 -5 
6208 6 0.0907037 0.336654 0.199741 0 2 -2 
8256 5 0.135809 0.289472 0.179722 3 0 -2 
7017 5 0.0609789 0.321331 0.209176 4 -5 1 
6616 6 0.483826 0.292592 0.207009 -4 -1 -3 
8313 5 0.504103 0.271461 0.188072 4 1 -1 