ITEM: TIMESTEP
50000000
ITEM: NUMBER OF ATOMS
9000
ITEM: BOX BOUNDS pp pp pp
-75 75
-75 75
-75 75
ITEM: ATOMS id type xs ys zs ix iy iz 
7991 6 0.309558 0.00997574 0.0397526 -8 -10 4 
6126 5 0.408337 0.995319 0.0387985 -1 3 -6 
6500 5 0.83846 0.996075 0.014592 -3 0 0 
5851 6 0.881876 0.0348847 0.0073038 -3 -6 -2 
5324 6 0.00883867 0.0418688 0.0164366 -2 -1 0 
8317 5 0.0337557 0.104401 0.0206423 4 -2 0 
8862 6 0.118398 0.0869167 0.984325 -10 6 5 
8877 5 0.961779 0.0762263 0.985595 1 4 -1 
7087 6 0.146367 0.0915 0.977597 3 5 -1 
5495 6 0.50796 0.101205 0.0543223 -9 2 -2 
5092 6 0.251314 0.111929 0.0399616 6 5 6 
5444 5 0.246223 0.128322 0.0317573 5 3 -5 
5227 5 0.237551 0.131676 0.96068 -2 -2 6 
8095 6 0.0255307 0.104788 0.00662633 10 2 2 
5845 6 0.214212 0.145845 0.968995 2 5 -5 
7267 5 0.800971 0.161436 0.0158718 7 -1 1 
7217 5 0.960828 0.139701 0.991748 -5 2 -1 
6166 6 0.931158 0.209572 0.974353 -7 8 0 
8356 6 0.248847 0.19691 0.964686 0 -2 1 
5243 6 0.29751 0.199679 0.00397261 0 3 -6 
7666 5 0.520492 0.24005 0.0266372 -1 2 -6 
7747 6 0.0629422 0.266505 0.0159385 2 -6 -10 
7645 6 0.49022 0.253097 0.968776 4 1 -3 
7839 5 0.637393 0.26115 0.0282105 3 2 6 
7369 6 0.613881 0.280614 0.0108731 4 5 -3 
8942 5 0.715727 0.255864 0.981803 -2 -1 1 
7399 5 0.391061 0.263364 0.0309324 1 -2 1 
7324 6 0.728453 0.256814 0.983001 3 -7 0 
8403 6 0.759803 0.262982 0.0320502 2 -1 3 
5299 5 0.792241 0.267254 0.00566951 -4 4 0 
7113 6 0.423257 0.248171 0.0114696 4 -6 5 
7099 6 0.211361 0.349623 0.982947 -7 7 -19 
7671 6 0.576985 0.32068 0.993791 -3 1 -2 
5837 6 0.922048 0.334044 0.993808 1 2 4 
8504 5 0.154154 0.322726 0.0139908 -5 1 2 
7521 6 0.454205 0.315974 0.0368689 -4 4 -9 
7862 5 0.58458 0.347117 0.00700596 8 -3 -3 
5639 5 0.652305 0.347534 0.013569 5 0 4 
7200 5 0.25557 0.417367 0.053977 -2 5 4 
7481 6 0.0604498 0.469046 0.0390693 -9 0 1 
6949 5 0.881822 0.479654 0.998355 -14 5 -3 
6875 5 0.386787 0.506719 0.043315 -7 -1 2 
6865 5 0.139646 0.494405 0.998364 4 -1 0 
7453 6 0.247913 0.477304 0.00809465 -3 4 3 
7120 5 0.0654602 0.538824 0.0199165 -1 3 6 
6583 6 0.419106 0.534877 0.00747999 4 7 -1 
6016 6 0.728365 0.498852 0.992723 5 -5 10 
7164 6 0.00151767 0.596646 0.993712 0 -2 1 
5338 5 0.373065 0.576766 0.0034281 1 2 -10 
6056 6 0.541273 0.569593 0.0350239 -2 -4 0 
8518 6 0.64531 0.599005 0.0159894 -2 -8 4 
8845 6 0.86903 0.583207 0.00935263 -4 1 9 
8478 6 0.187771 0.589576 0.983407 5 4 0 
5253 5 0.23273 0.59883 0.0256273 0 7 -12 
5485 6 0.654393 0.674375 0.0441515 -3 7 5 
5236 6 0.526654 0.590192 0.015 9 -5 9 
7035 6 0.680477 0.635397 0.0209011 -2 2 6 
5679 6 0.325156 0.695058 0.0161298 -3 -1 2 
7207 6 0.536544 0.627997 0.0256901 3 1 4 
7665 5 0.238685 0.653244 0.00944571 -1 -4 -2 
5483 5 0.633363 0.748756 0.977837 -5 1 6 
7690 5 0.0216216 0.753347 0.0270574 7 2 2 
5029 6 0.192337 0.741588 0.00559305 1 5 -1 
8544 6 0.246316 0.786186 0.016102 6 5 -1 
6036 6 0.45858 0.75975 0.020065 -1 -11 0 
5873 5 0.786508 0.765106 0.976505 -6 1 -3 
8517 6 0.9132 0.728166 0.016021 1 -1 3 
7919 5 0.325795 0.776098 0.0158563 -2 -5 3 
8110 6 0.637185 0.743091 0.00967311 3 3 9 
6877 6 0.500711 0.790012 0.0124544 -3 1 -3 
5915 6 0.611193 0.797327 0.0144212 8 5 5 
7975 6 0.575113 0.788861 -8.3697e-05 -7 -3 2 
5195 6 0.702938 0.79189 0.992456 -3 -5 0 
6848 6 0.106062 0.812947 0.989168 -6 2 7 
5640 5 0.167987 0.847966 0.0442647 5 5 -1 
6477 5 0.192223 0.858661 0.958738 1 5 -3 
6359 6 0.93526 0.814461 0.0167318 -2 -2 -7 
7417 5 0.0440471 0.855171 0.0235128 1 -2 2 
6413 5 0.215341 0.844065 0.00553814 -5 -7 14 
5010 6 0.34965 0.868292 0.0037548 7 7 3 
8004 6 0.93787 0.843141 0.0206305 -4 0 3 
5265 5 0.287332 0.834951 0.0215477 2 0 0 
6011 6 0.323604 0.913243 0.0237119 3 2 1 
6241 6 0.707037 0.937221 0.998683 2 -9 -3 
5824 5 0.699975 0.906436 0.00281915 -1 3 -1 
8850 6 0.950471 0.997263 0.988747 0 3 1 
5642 6 0.358741 0.996269 0.0269647 4 3 -3 
5366 5 0.338624 0.998091 0.0340292 4 -6 -4 
5710 6 0.930201 0.993642 0.0224104 10 -1 -4 
6161 5 0.00355427 0.00305625 0.0290943 5 -8 1 
5487 6 0.254212 0.0119669 0.0288807 -2 -7 0 
7922 5 0.324911 0.0843763 0.0161971 3 4 0 
8212 6 0.696738 0.0410703 0.0318646 4 -9 -1 
6673 6 0.122267 0.0288043 0.0212195 -7 -2 -8 
8282 5 0.804725 0.0631735 0.0358007 2 9 4 
7829 5 0.263304 0.0651262 0.0639575 3 2 5 
6506 6 0.992856 0.0374946 0.0577095 6 -10 5 
8402 5 0.264505 0.0633439 0.0431561 -2 9 2 
5406 5 0.335482 0.0814061 0.0586974 -2 -4 8 
6554 6 0.43853 0.0968174 0.0771414 0 8 1 
6329 6 0.403544 0.0907256 0.0288385 -3 5 -1 
6981 6 0.715935 0.12614 0.0397051 -6 10 2 
6247 6 0.606994 0.165674 0.0490339 9 0 -2 
8214 5 0.0588537 0.186597 0.0299695 3 2 -6 
8973 5 0.934251 0.18636 0.0322367 -6 0 2 
5864 5 0.393926 0.189589 0.0465447 0 -6 2 
7086 6 0.607287 0.272107 0.998905 -4 -2 5 
5372 6 0.693314 0.207461 0.0286152 7 -1 -2 
8821 6 0.817652 0.218788 0.0436577 -1 8 -1 
5407 5 0.13378 0.265908 0.0557697 7 2 -1 
5810 5 0.2346 0.20892 0.0439963 7 -11 -7 
8546 6 0.656091 0.270436 0.991729 -2 6 -1 
5165 5 0.057408 0.241002 0.013792 3 -1 5 
5796 6 0.238246 0.293563 0.0368421 -1 -2 -1 
6168 6 0.571251 0.267412 0.0539558 2 9 3 
7381 5 0.673078 0.249274 0.022721 -1 -2 -4 
6448 5 0.105565 0.329011 0.030639 -2 -3 -8 
8762 6 0.469034 0.27665 0.0339252 1 3 1 
5017 6 0.447073 0.283632 0.0351385 2 -2 -4 
5762 5 0.567649 0.317273 0.00874504 5 6 7 
5976 5 0.650823 0.257903 0.0467408 0 -1 -3 
5314 5 0.229244 0.307518 0.015607 0 -3 0 
5838 6 0.0846619 0.293261 0.0545185 -3 -6 -2 
6023 6 0.526784 0.361344 0.0332644 8 3 2 
7336 5 0.0339766 0.390129 0.0383086 2 -1 1 
6789 6 0.0433806 0.399722 0.0213206 10 -2 1 
7360 6 0.209758 0.420119 0.0375148 1 5 2 
7110 5 0.436188 0.38258 0.00156108 7 -5 3 
5290 5 0.461511 0.377372 0.0847447 0 7 -8 
6551 6 0.559896 0.417169 0.00742349 12 0 0 
5918 6 0.562667 0.369789 0.0195888 -2 2 -1 
7014 5 0.67207 0.426198 0.0350154 -7 -8 6 
5500 6 0.102954 0.373449 0.0338086 10 -2 10 
5309 5 0.619154 0.387749 0.0573793 2 -2 1 
5914 5 0.788344 0.401317 0.0135212 7 6 11 
8166 5 0.30498 0.411282 0.0411092 -6 -6 -2 
8690 6 0.68729 0.43382 0.0291752 -5 -5 2 
6464 5 0.194965 0.465262 0.0156265 0 -1 -2 
8045 6 0.54685 0.454669 0.0533331 6 -4 1 
6116 5 0.613547 0.481044 0.057129 7 -1 6 
7772 5 0.0830037 0.516284 0.0598168 -11 2 10 
7732 6 0.41374 0.529849 0.003421 3 -5 -4 
6548 6 0.595661 0.459741 0.0905445 -4 9 5 
8971 5 0.609775 0.512377 0.0151288 -3 3 -6 
5156 6 0.000632311 0.531233 0.0554137 0 -10 3 
8758 6 0.43061 0.538149 0.0734785 1 -3 -4 
7621 5 0.308526 0.564897 0.0445517 -7 -7 4 
7667 5 0.861738 0.596548 0.991535 3 -2 -3 
8220 5 0.514503 0.631772 0.032538 -2 -2 9 
5539 5 0.574282 0.616357 -0.000219095 -2 0 -2 
8573 6 0.561517 0.612228 0.060521 -8 4 -2 
7124 6 0.233361 0.645625 0.0330549 1 -4 1 
6159 5 0.653279 0.646771 0.0251617 4 1 -2 
8959 6 0.730353 0.702295 0.0406143 -3 -1 2 
6372 6 0.488177 0.69902 0.030736 4 -13 -5 
7616 5 0.171661 0.743058 0.0229667 -1 6 -1 
7443 6 0.866933 0.710374 0.0823485 -4 0 6 
8834 6 0.0225639 0.738563 0.0146084 2 -1 -2 
6068 5 0.0237364 0.746677 0.0201971 4 -4 -2 
6638 6 0.720877 0.752439 0.0773516 -2 3 3 
8238 5 0.0713399 0.784359 0.0592633 1 1 0 
8229 5 0.311766 0.765353 0.0079588 2 -3 0 
6987 5 0.390776 0.785995 0.0393142 5 -5 -2 
6358 5 0.997417 0.76728 0.0348831 1 6 1 
6417 5 0.360517 0.830377 0.0389105 3 -4 4 
6931 6 0.622429 0.868376 0.997512 0 7 -6 
6082 6 0.771881 0.886857 0.994867 -3 -3 10 
5894 6 0.753017 0.868194 0.0396868 5 3 2 
5879 5 0.843563 0.900144 0.022437 0 -9 -10 
8678 5 0.737687 0.903891 0.056872 -1 13 2 
8320 5 0.8801 0.895698 0.0537061 -1 3 -3 
8641 6 0.983187 0.909989 0.0402363 1 9 7 
6487 6 0.179171 0.955654 0.061875 -8 -5 -1 
5880 6 0.481871 0.958206 0.0108825 -3 2 3 
7860 5 0.315487 0.951737 0.00981187 -1 -1 -2 
8162 5 0.446499 0.977525 0.0356929 4 -2 5 
7095 6 0.486757 0.981076 0.0675499 0 -6 -3 
8018 6 0.658548 0.973887 0.0694706 -3 9 5 
8134 6 0.900023 0.962807 0.0273941 0 1 6 
6221 5 0.339051 0.950752 0.0142265 -5 -4 -6 
6038 5 0.946951 0.016879 0.0315948 -12 -3 -5 
7467 6 0.824017 0.0743108 0.0649823 -2 6 6 
6193 5 0.470007 0.0302976 0.0555501 -7 -4 -2 
7963 5 0.0897127 0.0207543 0.0876536 5 -3 2 
6174 6 0.87205 0.0700692 0.0554667 -2 0 7 
5977 5 0.947766 0.0836905 0.0804735 -6 -2 -1 
7090 6 0.0842788 0.163456 0.0471631 0 2 5 
8277 5 0.0218298 0.0939239 0.0308617 5 -3 5 
6169 6 0.491843 0.155029 0.0669794 -1 0 -7 
7977 6 0.167368 0.13758 0.018561 -4 -5 -2 
6374 6 0.755788 0.211211 0.0521656 -7 -3 -6 
5532 5 0.195655 0.171324 0.0678984 5 2 -5 
7752 6 0.409249 0.209107 0.0231665 3 -4 -1 
7262 5 0.628242 0.209077 0.0745846 -6 -2 9 
7925 5 0.10232 0.210098 0.0981917 -1 7 5 
6689 6 0.940276 0.245064 0.0583136 3 2 -3 
6924 6 0.100586 0.241211 0.0168775 -1 3 1 
8235 6 0.188571 0.246958 0.0869347 6 7 1 
7285 6 0.250432 0.265796 0.0781843 -3 2 5 
6878 5 0.359848 0.276691 0.030865 5 2 0 
8749 5 0.174928 0.257242 0.0897016 5 -2 2 
7559 6 0.498555 0.294749 0.0210622 1 0 0 
6328 5 0.974048 0.263607 0.0793587 6 -3 -7 
7643 6 0.796402 0.348089 0.063016 3 -6 -2 
8970 6 0.209072 0.398093 0.0481156 -8 4 -2 
6607 5 0.948142 0.365657 0.0326519 -3 4 1 
6556 5 0.572981 0.401618 0.0438431 3 -7 -1 
8808 5 0.616387 0.359981 0.0979264 -1 5 -3 
6827 5 0.900321 0.398906 0.0929029 4 -4 2 
8160 5 0.7529 0.43376 0.0875039 -3 -2 -2 
5850 5 0.389407 0.442758 0.0502263 2 -3 6 
7143 5 0.349948 0.494572 0.103055 -5 9 -3 
7950 5 0.304645 0.483997 0.0348574 2 -1 -1 
8516 6 0.362959 0.517879 0.0632801 -2 -1 -5 
6295 6 0.487238 0.489862 0.0392071 -4 7 -3 
6010 5 0.799894 0.501135 0.0495301 3 1 -1 
6244 6 0.225762 0.507178 0.0675279 -3 -5 0 
7384 5 0.735418 0.482407 0.0600511 4 -8 11 
8159 5 0.809957 0.516986 0.0622852 -2 -6 -2 
7455 6 0.0915811 0.533168 0.0878343 -4 -5 -1 
8432 6 0.392684 0.540205 0.0149164 -1 7 1 
8006 5 0.212554 0.552441 0.0727368 -2 0 5 
6475 6 0.544097 0.497814 0.0478061 3 -1 -5 
6135 6 0.123989 0.565868 0.0623871 6 0 -2 
7816 6 0.299853 0.575084 0.0878654 1 3 3 
6715 6 0.383786 0.571389 0.0507861 1 -5 -4 
5315 6 0.447531 0.565422 0.052897 -2 -3 3 
8381 6 0.313458 0.5904 0.0775848 -1 9 -11 
6478 6 0.321953 0.61563 0.0502236 1 0 1 
5061 6 0.955321 0.63709 0.0606115 2 1 5 
5168 6 0.973175 0.624639 0.052872 -2 -9 2 
7460 5 0.0512896 0.696888 0.0393962 -4 0 11 
5673 6 0.0470946 0.648607 0.0361657 1 -3 -1 
6945 5 0.221022 0.643633 0.00663961 0 -5 3 
5012 6 0.619191 0.640274 0.0589069 0 -2 1 
6018 6 0.177784 0.707104 0.082528 5 -3 4 
7372 5 0.295737 0.724406 0.0339601 -8 0 3 
8809 6 0.447514 0.742501 0.0837739 -12 -10 2 
7903 6 0.0575333 0.744483 0.0865287 2 -3 3 
8704 5 0.298182 0.775932 0.0283084 -3 2 -4 
5094 6 0.532946 0.771323 0.0261133 7 -8 -2 
6996 5 0.918131 0.76847 0.0808672 0 -1 2 
7635 5 0.0727676 0.802771 0.078622 -7 0 -8 
5948 5 0.130506 0.849679 0.072319 0 -1 5 
7941 5 0.303138 0.823898 0.0504928 -3 -2 8 
5502 5 0.815895 0.81833 0.0700825 -11 3 0 
6483 6 0.919056 0.826968 0.0755202 -2 8 -1 
6849 5 0.631194 0.896236 0.0436528 0 -5 -3 
8520 6 0.49346 0.920168 0.0494008 -2 -2 -8 
5897 5 0.0589045 0.982801 0.0439424 -4 6 6 
8209 6 0.80739 0.983847 0.0191826 5 -2 -4 
8660 6 0.250315 0.94721 0.04905 5 1 -1 
7782 6 0.719072 0.972014 0.0866928 6 -4 0 
7128 5 0.0925455 0.00846502 0.0312993 3 0 0 
5632 6 0.712522 0.0154558 0.122131 1 5 7 
8536 5 0.791044 0.0274708 0.0921875 1 4 2 
7109 5 0.804442 0.981914 0.0293469 3 -10 -3 
5861 5 0.0400704 0.0555879 0.0799874 1 -6 6 
6966 5 0.24366 0.042745 0.114996 1 -3 1 
6518 5 0.363397 0.0331758 0.12008 1 -1 -1 
6700 6 0.384146 0.0217674 0.0933333 -1 0 -6 
5386 6 0.521463 0.0570437 0.0661974 -3 -4 7 
8049 6 0.469895 0.0616943 0.0822808 -7 2 7 
7905 6 0.0205776 0.0727617 0.0887996 -3 1 -5 
7100 5 0.134748 0.10385 0.0874871 -3 0 -4 
7715 6 0.471755 0.0880515 0.0857284 3 5 3 
8929 6 0.534624 0.0838619 0.0625408 -1 -9 -5 
5496 6 0.766732 0.0374382 0.0763215 -2 0 2 
7723 6 0.241475 0.101383 0.0589827 -3 10 -2 
6954 6 0.637355 0.115627 0.0444042 2 2 -2 
8208 5 0.781975 0.0779878 0.0393425 2 5 4 
6604 6 0.963871 0.126619 0.0659602 6 5 0 
7013 6 0.874252 0.115118 0.0966361 -2 -12 2 
5598 6 0.120856 0.134516 0.0985302 7 -8 1 
6995 5 0.439023 0.201772 0.0723019 3 4 -3 
5449 6 0.0799679 0.162982 0.0530042 3 -5 -1 
8364 6 0.75291 0.241263 0.0492246 7 -4 2 
6536 6 0.985211 0.238918 0.0872368 -1 0 6 
8215 6 0.12736 0.258392 0.0778288 1 1 -7 
6061 5 0.128745 0.228604 0.0720013 -1 -1 -1 
7007 6 0.919082 0.243071 0.0784891 2 3 -4 
8602 5 0.254471 0.305353 0.0873655 1 -4 -5 
7778 6 0.192336 0.375184 0.119203 -5 3 -7 
5391 6 0.287333 0.299456 0.0977952 8 4 -1 
5750 5 0.320966 0.308317 0.100983 -1 4 0 
7265 6 0.706488 0.317358 0.106582 -4 0 0 
6224 5 0.116509 0.320414 0.0645677 -8 0 3 
7215 6 0.24806 0.341683 0.105832 1 4 7 
6584 5 0.638645 0.321672 0.0775314 2 4 5 
6353 6 0.63705 0.385075 0.107687 0 0 -3 
5341 5 0.868763 0.401741 0.0603643 -6 2 7 
6167 6 0.0862235 0.384582 0.0933042 6 8 -2 
6458 6 0.0515843 0.405505 0.0564314 1 -2 -4 
8620 6 0.694349 0.431075 0.0861628 3 0 7 
7501 6 0.811407 0.409492 0.0618434 -9 8 0 
8967 6 0.00996864 0.463443 0.111587 -4 -1 -2 
7368 6 0.333067 0.417865 0.124181 0 -2 -2 
8278 6 0.797749 0.382049 0.0668142 2 -3 1 
8943 6 0.243276 0.43504 0.0993814 5 1 -2 
6012 5 0.78197 0.46831 0.0856351 0 -1 4 
8456 5 0.0232934 0.484731 0.0808473 8 -2 -1 
7063 6 0.0556299 0.472712 0.0799331 8 0 5 
8766 5 0.104283 0.5084 0.0560176 3 6 -9 
8286 6 0.156816 0.535578 0.0600324 4 -3 -5 
8949 6 0.641693 0.552609 0.0717002 0 -1 -4 
5606 5 0.0755793 0.574701 0.0824441 -3 2 9 
7174 5 0.353399 0.539575 0.0835404 -3 4 6 
8105 5 0.659785 0.588899 0.0972383 3 -5 2 
5841 5 0.00298284 0.577694 0.0836075 5 -3 -7 
5018 6 0.526661 0.582118 0.0681963 4 -3 -1 
6790 6 0.77123 0.630993 0.07758 -6 7 -6 
6451 5 0.925887 0.58525 0.0508612 6 -2 -7 
8262 5 0.499243 0.607028 0.0668142 2 5 -8 
8519 6 0.261355 0.653331 0.0923719 -1 5 9 
5296 6 0.282464 0.678815 0.0966212 3 -4 -2 
7275 6 0.919092 0.718627 0.0816694 5 -4 11 
6090 5 0.140117 0.729655 0.0904206 1 3 5 
6808 5 0.680835 0.693082 0.0805733 -4 0 -3 
5471 5 0.931877 0.697477 0.111121 4 0 1 
5635 6 0.225465 0.741615 0.0920652 -3 -6 3 
8150 6 0.203738 0.709718 0.0375736 -5 1 4 
8556 6 0.4625 0.692765 0.0570604 0 -2 -4 
6115 5 0.555309 0.7328 0.0853996 -5 9 -5 
8833 6 0.158723 0.753012 0.100098 8 -1 3 
6236 6 0.223727 0.770955 0.0503307 -7 3 -1 
7611 6 0.926391 0.740115 0.0605236 -3 -4 -4 
7664 6 0.0520714 0.755493 0.0968037 5 -4 -1 
6688 6 0.102814 0.8019 0.0760991 -1 0 4 
5778 6 0.303579 0.82611 0.0911975 6 1 -4 
6932 5 0.877405 0.782482 0.0839482 -1 2 -8 
8153 5 0.280562 0.840433 0.0889078 -4 0 1 
7225 6 0.435158 0.866911 0.0681782 0 3 6 
5276 5 0.434189 0.940663 0.0528294 -3 -6 -11 
6646 6 0.863328 0.947709 0.0475308 2 -4 -7 
7421 5 0.103646 0.948013 0.0876577 5 -6 3 
6285 5 0.0279133 0.944125 0.118338 2 3 -7 
5108 6 0.225448 0.960808 0.0421684 -4 -2 1 
6059 5 0.593664 0.968288 0.0731995 2 5 -2 
5854 6 0.743601 0.968499 0.085373 0 4 -1 
7470 6 0.113923 0.000812901 0.130125 13 -1 -1 
7472 5 0.33549 0.00800644 0.0994608 1 -2 -6 
5339 6 0.660946 0.01451 0.125114 -8 -2 5 
8077 6 0.311941 0.0425422 0.14934 8 8 -1 
6723 5 0.911729 0.0299675 0.104706 -4 -2 2 
5899 6 0.155169 0.0450046 0.0904595 -6 5 -6 
6852 6 0.197875 0.0500913 0.0719509 9 -7 -6 
7609 6 0.152121 0.0984384 0.0793107 1 -5 1 
5591 5 0.000129525 0.0987006 0.136984 1 -4 -1 
8503 5 0.529084 0.0619222 0.108751 3 -2 2 
5491 6 0.730755 0.0765979 0.117765 3 8 0 
6239 6 0.470672 0.127784 0.113869 0 -5 16 
5116 6 0.104596 0.160032 0.0740553 3 -8 0 
5203 5 0.143866 0.14464 0.113778 -6 4 3 
7659 5 0.770633 0.135391 0.123101 -9 -2 -1 
6579 6 0.139818 0.209406 0.100118 -3 4 -1 
7052 5 0.114911 0.191884 0.0887119 1 1 -2 
5065 6 0.677463 0.230661 0.105199 -2 1 0 
5426 5 0.400198 0.255916 0.0962684 2 10 -4 
5360 6 0.576923 0.247417 0.10009 -2 2 6 
8384 5 0.549227 0.211394 0.0678722 0 -5 -2 
6499 5 0.289739 0.249228 0.0766231 -6 2 -2 
7277 6 0.398981 0.271398 0.093401 3 -4 3 
8174 6 0.455081 0.245575 0.112121 -1 1 0 
8055 5 0.890477 0.240286 0.0719966 2 8 -1 
5625 5 0.565912 0.265771 0.105028 4 5 2 
5437 6 0.563755 0.25561 0.13009 2 -1 3 
6296 6 0.577059 0.308159 0.131599 -4 -8 -1 
8668 5 0.688948 0.309082 0.10056 -2 -8 -3 
8761 6 0.325932 0.350664 0.0858592 -1 -8 2 
6060 5 0.693475 0.396842 0.0974679 -5 3 -7 
6503 5 0.653115 0.36796 0.0761602 -4 1 -9 
6184 6 0.918177 0.375155 0.0973058 3 6 1 
6344 5 0.0403374 0.379655 0.114758 1 2 -3 
7780 5 0.792905 0.436727 0.110646 -2 0 -1 
6992 5 0.279028 0.483279 0.0779712 -3 -7 -2 
7132 5 0.357648 0.440694 0.136392 1 -2 2 
5664 5 0.601921 0.468107 0.120671 1 5 4 
6463 6 0.843368 0.470362 0.0664887 6 -10 -6 
5409 6 0.614428 0.460265 0.147308 -1 5 -1 
7438 6 0.184198 0.537046 0.0865913 -4 6 -8 
6245 5 0.551165 0.501638 0.116587 2 -1 1 
7121 6 0.226285 0.541424 0.103502 -10 -1 9 
6163 6 0.795194 0.48724 0.117243 5 -1 -3 
5881 6 0.676256 0.507857 0.0963507 0 -1 -4 
5448 5 0.908172 0.544537 0.11289 -2 2 0 
5288 6 0.606499 0.602122 0.127689 1 5 2 
8897 5 0.713984 0.563215 0.120198 -2 11 1 
6122 5 0.0793853 0.592181 0.105252 -1 1 -1 
7345 6 0.571201 0.62029 0.0714034 -5 -10 10 
5833 6 0.672754 0.615865 0.058196 0 1 -4 
8903 5 0.665528 0.627675 0.0639495 -2 2 -2 
5013 6 0.491227 0.680088 0.0992113 1 1 3 
8811 6 0.918522 0.683897 0.110132 -7 -3 6 
8062 5 0.516672 0.637082 0.137941 3 3 5 
6485 5 0.74072 0.678429 0.116386 -1 4 2 
8385 6 0.335961 0.662462 0.0727109 4 -3 8 
5906 5 0.72233 0.67061 0.10405 6 -6 -2 
7077 5 0.238168 0.761788 0.0812901 0 15 3 
6985 5 0.746747 0.711208 0.078409 2 0 0 
7001 6 0.355989 0.781993 0.104798 12 -6 2 
8746 6 0.511161 0.790733 0.0876705 3 -3 4 
8815 6 0.734493 0.791339 0.103964 8 0 -7 
5050 5 0.115965 0.83326 0.0916032 -4 2 -1 
6172 5 0.377619 0.798967 0.108009 3 4 -2 
6997 6 0.724588 0.815476 0.0914968 -1 0 -2 
8861 5 0.845285 0.775387 0.0878031 -3 10 -7 
8326 6 0.0203165 0.841721 0.0720553 3 -2 2 
5286 6 0.752579 0.8294 0.0959044 -4 6 0 
8414 6 0.561091 0.891701 0.099451 4 -10 -7 
7159 5 0.66565 0.817126 0.0961925 9 3 -5 
8190 5 0.149089 0.881746 0.0861331 2 -1 -5 
6299 5 0.537193 0.904054 0.103197 1 -7 -2 
7889 5 0.140317 0.872143 0.122767 3 -1 -6 
6895 5 0.178026 0.907798 0.0892641 0 -6 -4 
6659 5 0.369506 0.882251 0.127749 -1 4 3 
7833 5 0.0108492 0.895655 0.104743 -2 -2 4 
6988 5 0.172784 0.906024 0.102383 -6 -2 -4 
6102 6 0.203422 0.973184 0.138816 -2 5 4 
6696 6 0.286701 0.970066 0.0842629 -6 3 -1 
8947 6 0.418367 0.979642 0.0745299 5 -1 3 
8538 6 0.628001 0.968257 0.0654511 2 -8 1 
8618 6 0.737356 0.938128 0.10485 5 -8 5 
8790 6 0.942915 0.941977 0.0935346 -2 -4 3 
5128 6 0.365649 0.958245 0.0979939 -2 0 3 
6816 6 0.65 0.979678 0.11232 -7 4 4 
6425 6 0.249993 0.98219 0.0532268 9 4 6 
8741 5 0.420542 0.0215239 0.128156 -5 0 5 
5650 6 0.594872 0.0125192 0.0979521 6 -5 1 
6150 5 0.456591 0.0186412 0.128339 1 -3 5 
8273 5 0.298586 0.0419834 0.11159 0 9 4 
5401 6 0.28537 0.110436 0.109891 1 -4 -7 
8776 6 0.0124478 0.142555 0.124913 -4 -1 0 
8767 6 0.815911 0.188811 0.149483 -2 1 -4 
5793 5 0.845002 0.137401 0.135177 -1 -2 10 
8975 6 0.248294 0.172397 0.138441 -5 3 6 
8324 6 0.775123 0.166327 0.0848207 5 1 -2 
7102 6 0.749412 0.145669 0.132 0 2 4 
6301 6 0.224098 0.211234 0.158306 6 6 1 
7391 6 0.0519747 0.250018 0.120663 4 -6 2 
7255 5 0.00159374 0.255579 0.13002 0 -3 -3 
8864 5 0.990435 0.256794 0.133796 -2 -1 -1 
5944 6 0.925238 0.323981 0.125647 2 -5 -1 
7594 6 0.106846 0.357439 0.170853 -2 -6 -4 
6092 5 0.15999 0.404611 0.131431 1 -2 -14 
7954 6 0.945339 0.373108 0.143233 -2 4 -4 
5829 6 0.318938 0.386782 0.150312 -1 1 4 
6972 5 0.326019 0.442401 0.1182 -4 3 -2 
8252 5 0.939517 0.489247 0.133898 8 9 6 
6729 5 0.038277 0.490893 0.125018 -4 2 3 
8906 5 0.151213 0.513803 0.152586 -4 -6 2 
5772 6 0.0947414 0.511348 0.145559 0 -7 -3 
8598 5 0.551105 0.469183 0.144175 -2 2 -2 
5791 6 0.604507 0.528141 0.114906 -2 5 0 
7861 6 0.115 0.540877 0.0900366 -3 4 -3 
8709 6 0.68589 0.591952 0.127087 -3 6 4 
7580 6 0.662862 0.606532 0.105984 3 5 -9 
7972 6 0.836979 0.640706 0.116104 9 4 -10 
7917 6 0.155196 0.61697 0.133363 -3 1 7 
7993 6 0.464185 0.597042 0.126208 6 -6 -4 
5305 6 0.625997 0.628764 0.118541 -4 7 1 
8269 5 0.717676 0.631711 0.0906704 -5 -5 -3 
6001 5 0.00671765 0.608324 0.140969 5 -4 -1 
7364 5 0.110877 0.694027 0.159129 9 0 4 
7504 6 0.27683 0.658349 0.126901 -4 5 -5 
8982 6 0.993104 0.663349 0.157494 -1 4 0 
8870 5 0.590028 0.692221 0.102066 -1 5 -6 
7709 5 0.587903 0.699 0.114203 -2 5 14 
6453 6 0.654834 0.672109 0.142957 -5 -6 10 
5140 5 0.734651 0.695009 0.147259 -7 2 -5 
5440 6 0.698237 0.707938 0.11761 -2 -1 7 
6744 6 0.974119 0.683136 0.120748 4 -2 4 
8128 5 0.0323004 0.748295 0.169201 1 5 -8 
8913 5 0.298906 0.79787 0.146287 5 -1 3 
8292 6 0.825297 0.799745 0.133558 1 -4 -4 
8812 5 0.970633 0.816083 0.0969292 2 1 -8 
8152 5 0.00374429 0.840767 0.102513 10 5 -2 
6378 6 0.118883 0.840907 0.109209 1 -11 3 
5891 5 0.26405 0.825957 0.11941 4 7 4 
7222 5 0.225619 0.882481 0.125829 -4 -7 1 
6683 5 0.884105 0.840352 0.116304 6 0 -1 
8912 6 0.413433 0.871377 0.146057 3 -4 9 
7523 6 0.509857 0.863627 0.119791 4 -7 -7 
7122 6 0.685787 0.861226 0.121224 5 9 0 
6941 6 0.655244 0.89629 0.0945803 2 -4 2 
7414 6 0.755374 0.908814 0.1408 0 -2 -1 
5599 5 0.769337 0.844599 0.103278 -5 -1 -1 
7325 6 0.0931577 0.918216 0.13094 0 0 3 
5802 5 0.175069 0.952048 0.111452 1 -8 -5 
8104 6 0.126053 0.97287 0.111001 2 1 -1 
6316 6 0.26489 0.960129 0.113083 9 -8 -4 
8293 6 0.341955 0.0020923 0.111956 1 -1 1 
5568 6 0.421747 0.0413256 0.15687 -4 -4 5 
6807 5 0.447192 0.00548159 0.131732 2 -8 -2 
7798 6 0.489907 0.0080898 0.13544 -5 3 1 
5896 6 0.803168 0.0268215 0.160586 -1 3 4 
6939 6 0.770341 0.0472213 0.136574 1 -3 -7 
7967 5 0.79271 0.0803987 0.150375 6 7 0 
8756 5 0.106624 0.10253 0.163775 0 10 6 
7306 6 0.349115 0.104036 0.179547 -1 -7 -7 
5628 6 0.715763 0.140339 0.150221 2 0 -3 
6000 5 0.870286 0.135159 0.136296 0 1 11 
8675 5 0.0391051 0.133867 0.168122 -1 -3 0 
5166 6 0.370684 0.132571 0.142289 -1 -4 4 
7153 5 0.362277 0.183982 0.138142 2 -5 4 
5181 6 0.505171 0.146036 0.128967 6 -3 6 
5332 6 0.586645 0.12715 0.175899 2 -2 6 
8434 5 0.0112433 0.185127 0.151266 -2 7 5 
6519 5 0.990162 0.181841 0.183107 -2 -1 5 
7287 6 0.00281965 0.16683 0.139137 -5 1 1 
7593 6 0.54216 0.183632 0.107136 5 -5 -6 
5425 6 0.750418 0.217163 0.121904 4 -3 2 
6471 5 0.0828074 0.230568 0.158952 -6 -12 -7 
5442 5 0.355822 0.258341 0.134487 1 -2 8 
7528 6 0.923008 0.25589 0.155301 0 4 -6 
7945 6 0.251662 0.240238 0.137942 -7 4 6 
6920 6 0.456815 0.294051 0.152407 8 -2 -4 
5789 6 0.690138 0.286457 0.164927 -2 10 7 
5456 6 0.95326 0.272314 0.156778 -6 -6 -2 
5218 6 0.349584 0.32446 0.127969 1 -4 5 
8689 6 0.647262 0.330483 0.134848 -1 5 -1 
7894 6 0.575007 0.308568 0.172258 -3 -1 0 
7202 6 0.194789 0.354786 0.2093 9 5 -2 
6357 6 0.917616 0.421857 0.11649 -5 -5 4 
7170 6 0.719319 0.421125 0.163339 9 -3 -5 
5528 5 0.961262 0.423327 0.14315 0 0 0 
7915 5 0.749703 0.445202 0.18251 7 -4 3 
7231 5 0.86552 0.437047 0.168644 3 -3 -3 
5364 5 0.336829 0.445245 0.127989 -4 2 -2 
8984 5 0.656519 0.481316 0.11605 1 -1 -10 
7515 6 0.684151 0.442991 0.160609 0 1 -6 
6527 6 0.756943 0.46676 0.124025 1 5 -1 
5620 5 0.165022 0.488019 0.158928 10 -2 0 
5704 6 0.185752 0.505226 0.116496 -1 4 -2 
8551 5 0.238056 0.50483 0.131844 -3 0 -6 
6956 6 0.415248 0.539129 0.127798 0 -5 3 
6498 6 0.937025 0.526196 0.13291 -2 -1 3 
6175 5 0.382056 0.537087 0.139687 -1 -2 11 
6223 6 0.646048 0.507503 0.151172 -9 2 0 
5174 5 0.984367 0.554927 0.137869 -6 -6 -2 
6212 5 0.0922972 0.584004 0.168958 5 6 -2 
8693 6 0.287509 0.54468 0.126195 -5 -1 2 
5015 6 0.64338 0.556897 0.138625 -8 6 -1 
6866 6 0.636284 0.544628 0.0987001 5 0 8 
7536 6 0.820971 0.601064 0.154611 -2 1 1 
7425 6 0.967618 0.594635 0.152975 1 -3 -3 
8500 6 0.278905 0.621286 0.107032 3 0 -8 
8298 6 0.221778 0.666919 0.126829 1 0 5 
5883 6 0.361611 0.659812 0.209218 0 -1 1 
5367 5 0.732914 0.586947 0.1961 -3 -5 1 
8717 6 0.84016 0.593831 0.196253 5 2 -2 
6752 6 0.322701 0.607043 0.143633 -1 5 4 
8486 5 0.91726 0.672427 0.199166 7 1 4 
5775 5 0.195713 0.672122 0.16684 0 2 -7 
7234 6 0.122596 0.673522 0.13931 -10 6 6 
7226 5 0.983119 0.719144 0.128316 -2 -6 5 
6249 6 0.999266 0.736595 0.14486 -2 2 5 
6323 5 0.0305974 0.690248 0.185659 -3 6 -4 
8665 6 0.276383 0.744969 0.154268 -3 2 4 
5964 6 0.486494 0.744446 0.155135 3 3 -4 
8537 5 0.59914 0.724953 0.120994 -1 -8 2 
7959 6 0.656063 0.693408 0.146763 3 -10 -7 
7948 6 0.620954 0.750057 0.142876 2 -2 -4 
5911 6 0.285803 0.767869 0.151324 6 2 -7 
7237 6 0.948089 0.764977 0.194985 -4 -2 -4 
8940 6 0.194935 0.771296 0.147598 -3 1 3 
7327 6 0.409367 0.79093 0.168025 7 -1 1 
5684 5 0.825159 0.757824 0.128245 -6 -8 1 
8073 5 0.94796 0.790722 0.138182 -1 0 -4 
5436 5 0.0767233 0.879735 0.128454 7 -5 -4 
7535 6 0.763916 0.878967 0.161089 1 0 8 
8140 6 0.746215 0.908826 0.159961 -9 1 1 
5531 5 0.904677 0.850343 0.122171 0 2 -5 
8050 6 0.978796 0.888588 0.135792 3 -10 3 
6781 5 0.776217 0.938393 0.183813 5 -4 10 
5337 6 0.587246 0.905723 0.130851 7 5 1 
6776 5 0.731997 0.919954 0.131964 -6 -2 1 
6459 6 0.869173 0.938266 0.108686 6 -2 4 
6759 6 0.358599 0.937374 0.103396 6 2 -1 
8146 6 0.925071 0.95449 0.171967 -3 2 -1 
8794 6 0.0769514 0.97764 0.0906838 5 -4 -7 
6906 5 0.234971 0.00799857 0.205225 -3 1 2 
6799 5 0.749732 0.0132687 0.209589 7 5 -4 
8673 6 0.0509318 0.0332797 0.19111 -6 0 2 
6300 5 0.0950907 0.0457751 0.194243 0 5 0 
7259 5 0.0819824 0.00729336 0.141974 -7 4 3 
6509 6 0.235678 0.0652356 0.16085 2 -2 0 
8587 6 0.824789 0.0800574 0.139787 -8 3 13 
8611 5 0.168539 0.101611 0.180532 4 3 3 
7473 6 0.338686 0.125245 0.154337 -2 1 4 
5543 6 0.419604 0.109557 0.209887 -4 -3 3 
7681 5 0.941033 0.148599 0.1168 0 1 2 
6861 6 0.389349 0.139249 0.140289 1 2 -3 
8058 6 0.903083 0.130895 0.170707 -5 2 -1 
6226 6 0.242451 0.154011 0.179578 -9 0 3 
8931 6 0.341629 0.144668 0.179257 4 1 5 
6641 6 0.622166 0.166707 0.208835 -4 0 -4 
8371 6 0.566421 0.207522 0.151707 -6 -4 1 
7092 6 0.88579 0.208826 0.13586 3 -2 -5 
5130 6 0.926848 0.195761 0.201321 -6 7 -1 
5184 6 0.094258 0.20002 0.183595 -1 -7 -1 
8011 6 0.492616 0.210161 0.148994 0 -1 -3 
5929 5 0.909814 0.250293 0.128261 -2 0 -2 
5991 6 0.136227 0.259372 0.158263 2 1 0 
8440 6 0.55064 0.262352 0.167082 -2 2 -5 
5198 6 0.113553 0.283558 0.155065 1 -9 0 
8210 6 0.385274 0.291452 0.194833 -1 -5 -5 
7449 6 0.0539381 0.268931 0.155296 -8 -2 -3 
5182 5 0.743395 0.295354 0.159737 -2 4 1 
5297 5 0.090306 0.315883 0.211268 0 -4 8 
5438 6 0.705312 0.33035 0.170453 3 6 6 
5961 5 0.868106 0.316775 0.174765 -3 -1 -2 
5590 5 0.872808 0.403072 0.207334 3 -2 1 
6347 6 0.737262 0.39121 0.186474 -4 4 -3 
8789 5 0.186298 0.440787 0.13968 5 -4 -6 
5612 6 0.266141 0.409623 0.173193 4 -5 -2 
8038 5 0.37273 0.398751 0.173884 3 1 2 
6511 5 0.807599 0.445914 0.120624 2 -3 -2 
8416 5 0.629242 0.465288 0.196807 -7 -2 -3 
7852 5 0.989934 0.453234 0.175571 -6 -2 2 
7874 5 0.981584 0.502269 0.198276 5 -1 11 
5275 6 0.0620313 0.504625 0.156794 -10 13 2 
7326 6 0.301132 0.475294 0.184008 1 7 -11 
7599 6 0.830938 0.471642 0.187797 -1 -8 -1 
8676 5 0.236313 0.508502 0.203792 3 3 -8 
7942 6 0.367498 0.529635 0.165018 2 8 2 
7050 6 0.5629 0.547496 0.170375 -1 -3 8 
6186 5 0.276144 0.551154 0.195244 0 -6 13 
7507 5 0.791334 0.605515 0.188967 -5 0 2 
7070 6 0.928681 0.593331 0.177884 2 -4 3 
7804 5 0.184717 0.605301 0.175696 0 -2 -1 
5871 6 0.885601 0.683306 0.156757 -7 -1 -5 
8555 6 0.0708766 0.715999 0.149098 -4 2 0 
5057 6 0.101784 0.689013 0.183112 -3 2 2 
8765 6 0.869327 0.688663 0.163858 6 -2 0 
6339 6 0.0114431 0.745991 0.141288 4 -5 4 
8141 6 0.460182 0.732259 0.146314 8 0 -2 
6574 6 0.644561 0.743415 0.202585 4 3 -3 
6867 5 0.0686637 0.770524 0.181359 -3 -1 6 
6614 6 0.807926 0.772691 0.17631 3 -1 4 
7983 6 0.306586 0.758678 0.129935 0 -3 -1 
7966 6 0.584251 0.802585 0.182559 -5 3 -1 
7404 5 0.67913 0.80211 0.176243 5 -2 1 
6340 5 0.828824 0.80088 0.162196 6 2 4 
5155 5 0.258764 0.813903 0.159055 6 0 2 
8082 6 0.55408 0.913637 0.161466 -5 1 1 
8837 5 0.647832 0.877635 0.197503 -1 1 -1 
7076 6 0.0277369 0.94287 0.154707 2 2 -10 
5803 5 0.260875 0.868781 0.149426 -1 5 3 
8928 5 0.484404 0.892326 0.145924 -1 -3 -1 
8528 5 0.811869 0.9127 0.183719 -4 -3 -5 
7503 6 0.829079 0.90783 0.217114 1 1 1 
6322 6 0.0547235 0.965807 0.167008 0 1 -2 
6516 6 0.756839 0.900475 0.159104 4 -7 -5 
7658 6 0.418225 0.94028 0.194953 5 -2 1 
6348 5 0.827321 0.939325 0.169367 -1 2 0 
6805 5 0.980716 0.953702 0.154031 3 7 7 
8230 5 0.0598286 0.980906 0.192664 -6 -10 -2 
7139 5 0.16486 0.0181953 0.14717 -3 2 2 
5834 5 0.509321 0.0526522 0.191444 13 1 -2 
5498 6 0.470865 0.0948929 0.217974 -8 1 7 
5721 5 0.851505 0.0353001 0.180906 11 1 0 
8588 5 0.508653 0.0799428 0.18683 -1 -2 -1 
5259 6 0.918451 0.049885 0.196125 5 1 -8 
5651 6 0.434009 0.127338 0.190308 -6 10 1 
8596 5 0.342199 0.11702 0.249048 -3 1 -9 
7199 6 0.144833 0.146749 0.189518 2 4 6 
8040 6 0.557046 0.120006 0.217404 1 -3 -5 
8294 6 0.0480194 0.132539 0.192152 2 2 4 
8173 6 0.284568 0.156707 0.2047 1 3 0 
7461 5 0.432337 0.18792 0.188511 3 -5 -6 
8068 6 0.696919 0.211085 0.181069 -12 -4 1 
8264 6 0.781209 0.23464 0.191698 -6 5 1 
8179 6 0.771433 0.164995 0.191011 -2 -1 -9 
5949 5 0.104603 0.181637 0.223254 3 -1 2 
5178 5 0.174969 0.204379 0.211129 4 5 -4 
6094 5 0.297579 0.200218 0.190483 -8 1 2 
5594 6 0.456569 0.231243 0.180739 0 8 2 
8302 6 0.652501 0.251177 0.195281 3 1 3 
6320 5 0.208363 0.260969 0.218533 3 -4 4 
7906 5 0.658075 0.235366 0.19058 -6 -3 2 
5439 5 0.179829 0.300123 0.211147 5 3 -4 
5154 6 0.372864 0.281863 0.183031 -2 -5 -3 
8288 6 0.56919 0.257572 0.258098 2 4 -6 
6194 6 0.237667 0.316793 0.196618 -1 -1 -2 
7446 5 0.0744718 0.297171 0.194083 0 7 2 
5255 6 0.587575 0.320187 0.150982 -5 -8 4 
8852 5 0.075677 0.347463 0.184767 -4 0 2 
8521 5 0.437496 0.406113 0.190899 5 -2 0 
7305 6 0.750447 0.437701 0.161958 -1 -3 -2 
7974 6 0.787448 0.377058 0.194481 6 4 1 
7757 5 0.917159 0.39261 0.186301 -2 1 1 
7248 6 0.639766 0.42927 0.194402 2 3 3 
5215 5 0.916177 0.4405 0.241487 1 3 -5 
7735 5 0.508101 0.477945 0.206306 -4 3 1 
6080 6 0.781629 0.419033 0.180134 0 3 4 
7914 6 0.343403 0.447372 0.170879 -1 -2 -8 