ITEM: TIMESTEP
20000000
ITEM: NUMBER OF ATOMS
9000
ITEM: BOX BOUNDS pp pp pp
-75 75
-75 75
-75 75
ITEM: ATOMS id type xs ys zs ix iy iz 
5661 5 0.831543 0.015702 0.029116 -3 -4 -3 
7981 5 0.54844 0.0149596 0.984397 5 -3 1 
8302 6 0.609407 0.0296611 0.974987 1 0 -4 
7591 6 0.998824 0.0279985 0.0370239 0 -6 4 
8547 6 0.281176 0.0893296 0.0222754 -3 -3 -3 
5155 6 0.273088 0.0719135 0.0138928 3 0 2 
8996 5 0.742131 0.0472203 0.0341948 -1 1 6 
8752 5 0.095697 0.149255 0.0264242 -5 -2 -5 
5873 5 0.0275301 0.153695 0.0495117 -2 1 0 
7757 5 0.777514 0.150251 0.0220912 -2 -2 1 
5399 5 0.396415 0.153353 0.986567 -2 -3 2 
7392 5 0.803261 0.206067 0.995191 0 -1 -2 
7577 5 0.730001 0.211751 0.0113262 1 2 0 
7681 5 0.988779 0.258351 0.00919253 -3 -3 -3 
7763 6 0.125155 0.253966 0.00476262 0 1 0 
6740 5 0.228998 0.31896 0.00506505 -2 1 1 
8928 6 0.615864 0.269413 0.0150893 4 -1 0 
6024 5 0.526479 0.356126 0.0092258 -1 -1 1 
5971 5 0.743815 0.32907 0.986187 -3 -1 0 
5739 6 0.36627 0.345169 0.00794758 -1 -3 -2 
6247 5 0.623987 0.354825 0.00430924 1 -4 2 
6788 6 0.758902 0.371562 0.00908109 -1 2 6 
7448 5 0.506107 0.399605 0.994922 -2 -6 2 
7280 6 0.263711 0.49568 0.0180261 3 -2 4 
7599 5 0.21193 0.432467 0.00669221 1 6 1 
7108 6 0.495708 0.450943 0.963597 1 1 -3 
6552 5 0.502453 0.462664 0.013661 -2 2 2 
8726 5 0.6042 0.455131 0.0218807 0 -4 -5 
6099 6 0.364672 0.514599 0.0317522 -1 0 -2 
7579 5 0.331927 0.538605 0.972709 0 3 -4 
6544 5 0.59312 0.517734 0.0106511 -1 -1 1 
6579 6 0.712449 0.532576 0.986005 2 -5 1 
6065 6 0.967923 0.511025 0.990225 0 2 0 
7665 6 0.96925 0.566197 0.0199578 -7 0 -1 
5756 6 0.162951 0.633348 0.00860514 -1 3 0 
8736 6 0.249499 0.557659 0.0272211 1 2 0 
5197 6 0.454648 0.571606 0.0285474 1 -1 2 
5602 6 0.444184 0.551804 0.0375428 10 4 1 
7004 6 0.967465 0.547683 0.0142251 1 0 1 
8440 6 0.787992 0.597769 0.0243524 1 2 3 
6294 5 0.942467 0.632881 0.0339666 1 1 1 
7273 6 0.884596 0.584704 0.00287282 1 2 0 
5200 5 0.776594 0.610848 0.0225849 5 0 5 
8708 6 0.115637 0.645945 0.973459 3 -2 -2 
7717 6 0.0356578 0.662533 0.0121854 2 6 3 
5599 6 0.443922 0.646824 0.00360425 1 3 -1 
8955 6 0.84837 0.667823 0.0275353 -2 -1 1 
6842 5 0.996516 0.709328 0.0250786 -2 0 2 
6810 6 0.85353 0.697023 0.0141546 -1 -2 -2 
8473 5 0.92135 0.769307 0.980885 -8 -1 -1 
7393 6 0.111026 0.784523 0.0162779 1 -2 5 
8005 5 0.979638 0.806758 0.0258177 -1 2 -7 
5154 6 0.217066 0.839137 -0.000439853 8 -5 -3 
7030 6 0.527604 0.811834 0.9779 0 0 3 
8373 6 0.089314 0.821979 0.0630363 4 -2 -5 
5416 5 0.140245 0.831859 0.050918 1 1 1 
5902 5 0.665995 0.816814 0.0503619 -1 0 0 
6430 5 0.934675 0.839341 0.0251657 4 -2 1 
7384 6 0.594361 0.861199 0.0322576 0 5 -1 
8696 5 0.389177 0.855558 0.0234256 -1 -1 -2 
6160 6 0.377423 0.884294 0.0263638 2 0 -2 
6080 6 0.456882 0.85478 0.0184659 2 -3 -4 
7213 6 0.515002 0.88524 0.997225 -1 -6 0 
6729 6 0.730442 0.921897 0.00463402 -1 0 5 
7308 5 0.338698 0.954197 0.0245865 -3 0 0 
8686 5 0.415197 0.975717 0.993569 -2 -3 -5 
7163 5 0.570735 0.967366 0.0184308 0 3 1 
8253 6 0.587341 0.974613 0.0371351 2 2 3 
5341 5 0.659036 0.977057 0.0546384 1 -7 -1 
6569 5 0.918745 0.942628 0.0474384 2 1 -2 
8091 6 0.0206935 0.00437953 0.0989173 2 4 -2 
5351 6 0.348398 0.0425367 0.0474693 -4 1 0 
8937 5 0.660899 0.0168606 0.02862 -2 -1 -1 
5932 6 0.0470022 0.0764602 0.0347654 0 -2 1 
5431 5 0.883648 0.0769357 0.0290359 2 2 -1 
8810 5 0.932561 0.0726931 0.0514984 -2 2 -3 
7711 5 0.0327821 0.0891827 0.0368471 -5 -3 0 
6871 5 0.0751765 0.104719 0.0293481 -1 5 3 
6986 5 0.400963 0.152805 0.0441927 6 3 -1 
5516 6 0.693226 0.154781 0.0183375 0 1 4 
6487 6 0.719098 0.156285 0.0127012 6 -1 1 
7034 6 0.0240014 0.193527 0.0231102 -3 3 7 
6724 5 0.347075 0.184561 0.0257394 1 6 4 
8327 5 0.549178 0.159857 0.0494676 5 5 3 
5643 5 0.706331 0.169279 0.0425053 2 1 3 
8608 6 0.688439 0.221449 0.0315061 2 2 -1 
8592 6 0.0148391 0.213284 0.0178189 7 1 1 
5694 6 0.617704 0.233372 0.0461387 3 8 3 
5608 5 0.831743 0.203119 0.0305424 -1 -2 5 
7954 6 0.0175404 0.239304 0.0487117 5 1 -3 
7949 5 0.0375222 0.229544 0.0473985 1 2 -2 
8700 5 0.400176 0.233833 0.0347557 -2 2 4 
7705 6 0.514469 0.208076 0.0223184 -1 2 4 
7365 5 0.599083 0.237557 0.0148319 -3 1 -5 
6748 6 0.820387 0.23449 0.0403803 -1 2 -4 
7033 5 0.0869895 0.24917 0.014555 7 0 1 
6502 5 0.429686 0.277802 0.0580252 1 2 -2 
7850 6 0.698213 0.259741 0.000954431 0 -1 2 
8783 5 0.692689 0.276657 0.0640201 -3 -2 -1 
5123 6 0.877512 0.257496 0.0287097 -5 -1 -2 
7044 5 0.892788 0.2584 0.0297836 -1 0 0 
7767 5 0.591287 0.30179 0.0482086 1 3 2 
7736 5 0.658029 0.332985 0.043273 1 1 -2 
8557 5 0.135381 0.332896 0.0187557 0 -5 5 
6736 5 0.112414 0.32531 0.0113833 5 3 1 
8701 6 0.864582 0.398862 0.0112288 -3 -3 0 
5110 6 0.907393 0.338821 0.0327423 -3 3 3 
5082 5 0.249441 0.412242 0.993592 7 -2 -6 
6347 6 0.3617 0.42704 0.00936374 -2 -2 -2 
8453 6 0.380228 0.413636 0.998234 1 -5 2 
6339 5 0.803551 0.396167 0.996925 -2 -4 -4 
7441 6 0.945472 0.420784 0.0644408 -3 -1 -1 
6325 6 0.117574 0.486516 0.044991 1 1 0 
6932 5 0.806158 0.491547 0.0583237 0 -3 0 
8578 5 0.0192791 0.533472 0.0234176 6 3 0 
7369 5 0.551796 0.537751 0.058668 -3 -2 -1 
6952 6 0.334607 0.563631 0.0202601 2 -3 -1 
5582 5 0.0198168 0.566591 0.0733046 1 2 -3 
6776 5 0.796103 0.602492 0.0445818 5 -3 3 
8010 6 0.984798 0.580123 0.0264418 1 3 -3 
5199 6 0.256924 0.623109 0.0109773 -5 -4 3 
6273 6 0.999178 0.600416 0.0184564 2 1 2 
5441 6 0.462925 0.645782 0.0558988 0 -3 4 
8179 5 0.381135 0.686791 0.0504615 1 3 -3 
6456 6 0.652341 0.632948 0.0666261 1 2 0 
8590 6 0.0352973 0.708948 0.021549 -6 3 1 
7364 6 0.070461 0.705734 0.0620946 2 3 -2 
6041 5 0.212442 0.654118 0.0251462 2 -4 -1 
6035 6 0.309118 0.683559 0.0214241 -2 0 -2 
6523 5 0.499135 0.694891 0.0313341 -1 -1 -1 
5182 5 0.624822 0.706512 0.0214082 -6 -4 -4 
5035 5 0.919141 0.717192 0.0445901 -1 0 1 
6353 6 0.756752 0.714528 0.0457683 -3 0 5 
6856 6 0.9927 0.798625 0.0677623 -2 0 3 
5145 5 0.801119 0.735585 0.00935409 -1 -6 -4 
7567 5 0.70349 0.766135 0.0311866 -4 -1 0 
7974 5 0.277465 0.839511 0.0368155 -2 -4 1 
6882 6 0.833661 0.889909 0.028222 -1 -5 -1 
5770 6 0.448628 0.907645 0.0203526 0 -1 4 
7688 6 0.385734 0.923286 0.0592676 -2 0 -2 
7754 5 0.715765 0.925092 0.988683 6 1 -3 
6261 5 0.446584 0.959276 0.987797 -2 -3 6 
8288 6 0.558248 0.991353 0.00630219 -1 -1 4 
6987 6 0.237381 0.0179912 0.0431543 2 2 0 
7627 5 0.73041 0.0285713 0.0833347 -3 3 5 
7839 5 0.790722 0.0243314 0.085091 3 4 -1 
7709 6 0.59695 0.0355324 0.0318336 2 1 -2 
8676 5 0.660709 0.0394872 0.0638228 1 2 6 
6166 6 0.736907 0.0164269 0.011083 2 -1 2 
8694 6 0.774004 0.0346559 0.0858564 1 0 1 
8533 6 0.174832 0.0335058 0.05641 6 1 1 
8716 6 0.4053 0.0823357 0.0335233 3 3 7 
6381 6 0.52016 0.0566887 0.0346567 2 0 2 
7745 5 0.650108 0.0552679 0.0523828 1 4 6 
8293 6 0.125368 0.100131 0.0589004 2 3 7 
8013 5 0.502276 0.0822034 0.0299514 2 0 -1 
6593 6 0.743426 0.0467727 0.0508638 3 2 0 
7818 5 0.0982807 0.107627 0.0994691 2 -4 2 
6373 6 0.528347 0.0893968 0.0323966 0 5 -1 
6716 6 0.716109 0.0851893 0.0500758 -5 -2 -3 
6095 6 0.0558602 0.148199 0.0507808 3 0 2 
6269 6 0.0847194 0.132922 0.0614677 2 -5 -2 
6642 5 0.346067 0.120158 0.0657499 0 3 0 
5056 5 0.437669 0.122408 0.0707951 1 1 -2 
8188 6 0.735457 0.144391 0.0668322 4 1 3 
5497 5 0.0579137 0.162487 0.031542 3 5 -3 
8677 5 0.918535 0.183049 0.0398952 2 -1 4 
5600 6 0.622629 0.21872 0.0327061 1 1 6 
6508 6 0.951895 0.224247 0.0658705 2 2 1 
5833 5 0.434822 0.244061 0.0741425 2 -1 -2 
8669 5 0.509461 0.253187 0.0957314 -2 4 3 
7220 6 0.522335 0.268965 0.0567508 -1 -3 -1 
6232 6 0.596394 0.282106 0.0469471 1 -2 1 
5381 6 0.190817 0.296503 0.0778767 0 5 3 
6789 5 0.552311 0.260495 0.0748923 3 -2 -2 
5850 6 0.529847 0.274878 0.0534229 -4 1 -2 
7081 6 0.759003 0.265454 0.0608791 -3 0 2 
8802 6 0.832311 0.292321 0.0787004 0 -1 -4 
6820 6 0.629831 0.295167 0.0429809 -2 3 1 
5438 6 0.212949 0.29035 0.0318941 7 3 0 
6834 6 0.640358 0.325081 0.078456 -2 0 1 
7951 5 0.677188 0.357126 0.0498445 4 -3 0 
8230 6 0.810951 0.327878 0.0638537 1 1 2 
5605 5 0.359279 0.379487 0.0541225 -1 0 -1 
5715 5 0.693295 0.345079 0.0488153 5 1 -1 
5321 6 0.229276 0.364856 0.0548072 1 -2 -6 
8698 6 0.614998 0.383601 0.0565123 5 -2 0 
6560 6 0.926856 0.426039 0.0645963 2 0 -3 
8296 5 0.603122 0.444202 0.0111807 -2 7 -2 
7266 6 0.243843 0.453343 0.0799194 -1 0 6 
8035 6 0.956761 0.470852 0.042905 -1 0 3 
8949 6 0.0325491 0.437922 0.0465125 0 -3 3 
8418 6 0.0673528 0.487596 0.0790441 4 2 1 
6980 6 0.535801 0.553988 0.0465444 1 7 5 
6667 6 0.336403 0.499605 0.0803233 4 -2 2 
8245 6 0.601659 0.553307 0.0615794 -6 -6 4 
7071 6 0.54852 0.564365 0.066121 1 -6 -1 
5067 5 0.651013 0.552461 0.0631775 -3 1 9 
7683 5 0.952908 0.54466 0.0512747 0 -6 1 
5181 5 0.0162469 0.592215 0.10442 0 3 1 
8796 5 0.309484 0.572399 0.0228198 -3 -7 -2 
7087 5 0.224273 0.596203 0.0599853 3 -1 1 
5649 6 0.900178 0.600397 0.0754427 -1 2 6 
7558 5 0.260548 0.682012 0.0921092 -5 0 3 
5538 6 0.944103 0.648544 0.0197047 1 1 -1 
6244 5 0.368878 0.711345 0.0488271 -4 -4 -4 
7537 5 0.99009 0.739286 0.0499072 2 -2 -3 
6782 6 0.38121 0.713952 0.079904 0 -3 4 
6129 6 0.990729 0.771402 0.0411789 -1 3 3 
8697 6 0.536755 0.755688 0.0776884 -2 0 -3 
6542 5 0.00910224 0.741853 0.0856766 -6 1 5 
6802 6 0.0604994 0.784346 0.0685792 -1 5 -3 
7329 6 0.994418 0.745469 0.0717474 0 -4 2 
8544 5 0.151394 0.746883 0.0522571 5 -1 0 
7368 6 0.709254 0.756436 0.0913164 2 3 1 
6225 5 0.256242 0.797019 0.074909 1 1 -3 
7842 6 0.817828 0.794789 0.0402865 3 -2 0 
5749 5 0.213478 0.809451 0.0588317 3 3 2 
7977 6 0.510765 0.801842 0.0868692 3 -2 1 
8920 6 0.665596 0.839324 0.038802 -4 -5 1 
8655 6 0.724959 0.817225 0.0750636 -6 -2 2 
5396 5 0.77752 0.833565 0.0432716 0 0 1 
5387 6 0.549511 0.86238 0.0287019 -3 -4 3 
8979 6 0.569337 0.856486 0.0968407 -3 5 4 
5640 6 0.678579 0.836308 0.0474218 -3 -1 0 
5861 6 0.245671 0.989247 0.0652992 0 1 -1 
7651 6 0.2653 0.966415 0.0778687 -2 7 2 
5906 6 0.957061 0.950352 0.0468693 1 1 2 
7223 6 0.888935 0.989138 0.0506272 2 0 1 
7396 6 0.32026 0.983801 0.051195 1 -3 2 
7926 5 0.464884 0.982754 0.050343 2 0 -5 
7573 6 0.118334 0.01409 0.0895815 -3 1 -1 
7702 5 0.499945 0.0259234 0.0889144 0 1 -2 
8007 6 0.537796 0.0134694 0.0812882 -7 -1 -7 
6706 6 0.528752 0.0712578 0.101371 2 0 -1 
5481 6 0.808714 0.978855 0.127566 -4 -1 -4 
8011 5 0.859837 0.0194136 0.040302 -1 -2 -2 
7407 6 0.360873 0.0578634 0.106969 2 -4 -2 
8732 6 0.969728 0.0547476 0.10345 -5 5 1 
6186 5 0.0429772 0.091498 0.0850703 4 -1 1 
5540 6 0.284513 0.0865441 0.0511841 -1 -3 3 
8328 6 0.424207 0.0744369 0.111549 -1 -1 -4 
6538 5 0.259315 0.0566374 0.0740196 -4 -1 3 
8256 6 0.336128 0.0910188 0.114624 -2 -2 -5 
6534 6 0.260278 0.138785 0.0766737 -1 0 2 
7721 6 0.680803 0.114617 0.0641012 -4 1 -3 
8734 6 0.692467 0.137339 0.0931342 6 4 -1 
5429 6 0.274436 0.144249 0.0866193 1 1 -2 
8189 5 0.916712 0.148231 0.131521 -4 0 1 
8337 6 0.0682532 0.176924 0.0891139 0 2 8 
8148 6 0.894873 0.151091 0.0531218 -3 -1 -3 
7632 5 0.0828294 0.210612 0.049506 1 -2 -4 
7725 6 0.515613 0.218458 0.0655602 -1 -1 0 
7086 6 0.75654 0.202125 0.0901795 2 -6 3 
6537 6 0.852014 0.234102 0.0824008 -4 2 -1 
8933 6 0.408062 0.267026 0.0973401 1 3 5 
5792 6 0.365279 0.309246 0.0530893 -2 1 0 
8597 5 0.69511 0.258396 0.0787588 -1 6 0 
8947 6 0.0112759 0.325667 0.065796 -1 3 2 
8255 6 0.537806 0.350282 0.0942524 -2 3 0 
8572 6 0.563311 0.354108 0.07317 0 -1 -2 
5136 5 0.698702 0.32371 0.0932894 0 3 2 
7820 6 0.786716 0.342261 0.0793602 2 -6 -1 
5788 6 0.4581 0.367577 0.0648371 0 5 1 
6663 6 0.157852 0.394901 0.0940255 -1 6 3 
7852 5 0.903507 0.442109 0.0357957 -1 0 -2 
7970 5 0.436757 0.420433 0.0557856 1 3 -4 
6937 5 0.581872 0.437909 0.070086 0 3 6 
8666 6 0.989751 0.453325 0.0695409 0 -1 -3 
8629 6 0.475371 0.469444 0.096009 0 8 0 
5386 6 0.908603 0.487473 0.0727814 1 -3 2 
6010 5 0.421998 0.502362 0.053828 1 -3 2 
8853 6 0.936949 0.529528 0.0808101 1 0 0 
8690 5 0.376164 0.528601 0.0820442 1 -5 5 
6598 6 0.707376 0.543303 0.0922292 1 6 1 
6111 5 0.804144 0.594801 0.0765191 -2 1 0 
5885 5 0.444044 0.608885 0.066765 3 0 4 
5577 5 0.465237 0.535612 0.0960393 1 2 -1 
8913 5 0.785291 0.609519 0.0844974 -2 -1 -1 
8662 6 0.168263 0.655361 0.0667409 2 2 1 
8072 6 0.284653 0.644112 0.0557151 -2 -2 0 
6060 6 0.542905 0.653626 0.0410523 1 -1 2 
8283 6 0.803309 0.667467 0.0714833 0 0 -5 
7643 5 0.364781 0.702701 0.0954924 -1 0 -2 
5278 6 0.25367 0.715777 0.0714356 1 3 3 
5517 5 0.66448 0.72863 0.096251 -1 2 0 
8834 6 0.127451 0.708799 0.0550522 1 -1 0 
6975 6 0.309903 0.718927 0.0599414 -1 3 -5 
7563 5 0.670833 0.746783 0.0761717 -5 1 -4 
5571 5 0.125518 0.762057 0.0837794 2 -3 5 
6025 5 0.437063 0.754932 0.109723 -4 -5 1 
8464 5 0.121327 0.795731 0.0861173 2 1 0 
8862 5 0.319639 0.778458 0.0957774 -4 -4 1 
7024 6 0.764541 0.799245 0.0532429 7 -3 1 
6602 6 0.75413 0.765999 0.0838565 -4 2 -4 
5279 6 0.718437 0.844583 0.0464431 -2 0 2 
5952 5 0.370017 0.81556 0.0475422 3 -4 -8 
7316 5 0.377391 0.82071 0.0771183 -2 4 1 
6585 5 0.437098 0.835978 0.0841413 1 0 -1 
7089 6 0.840707 0.859579 0.0730494 1 -7 -2 
8713 5 0.903016 0.848909 0.071694 -4 -2 -1 
6239 6 0.267693 0.913451 0.0867668 -1 0 -3 
7907 6 0.316458 0.899021 0.0890088 1 1 2 
7503 5 0.340112 0.913679 0.0605341 -3 3 1 
5027 6 0.116836 0.928205 0.0829362 1 -1 1 
8075 5 0.419198 0.938669 0.0659425 5 4 2 
7209 5 0.183008 0.950753 0.0593743 0 2 0 
7795 6 0.389833 0.918086 0.0811437 -1 -3 1 
8000 6 0.430256 0.946794 0.108115 6 -1 -3 
7957 5 0.689138 0.944539 0.075881 -1 3 2 
5806 5 0.974573 0.962287 0.0763642 -3 -1 1 
8238 6 0.202878 0.979887 0.0978012 4 -3 -1 
7836 5 0.240063 0.0227775 0.0963195 -1 -1 2 
6617 6 0.783558 0.959978 0.0872748 3 2 0 
5653 6 0.156891 0.0219474 0.0483897 4 1 3 
6936 6 0.675086 0.998076 0.111684 -3 0 -1 
6596 6 0.642614 0.979449 0.0575997 1 0 0 
5430 5 0.396904 0.0235791 0.0555848 -3 -1 1 
7699 5 0.441017 0.0166443 0.088116 -1 0 -1 
6441 5 0.991834 0.071546 0.104523 -5 -6 -3 
5066 6 0.128274 0.0309399 0.0953747 -3 -5 -2 
8865 6 0.747779 0.0558906 0.101581 -5 -3 2 
5243 5 0.859332 0.0429198 0.104189 0 -4 5 
8155 5 0.895475 0.0594459 0.110928 0 2 2 
6996 6 0.0619759 0.0691432 0.104727 -1 5 4 
5376 6 0.687527 0.0877039 0.0945195 -3 0 1 
6673 6 0.822402 0.0983463 0.0973114 -5 7 3 
7335 5 0.0404181 0.0631969 0.0900397 4 5 6 
5417 5 0.274622 0.129523 0.11774 -2 2 -4 
5729 5 0.578177 0.139295 0.0836091 1 -3 -1 
5779 6 0.645124 0.131575 0.0977742 1 3 -1 
8759 5 0.726581 0.141411 0.0845928 -4 0 3 
8236 6 0.788206 0.185629 0.103736 1 3 1 
6395 6 0.140819 0.198399 0.0986931 4 -2 0 
5578 6 0.468674 0.222091 0.116295 0 3 0 
8126 5 0.587796 0.222811 0.0952164 1 0 2 
8564 6 0.71897 0.209677 0.103373 -4 3 1 
7328 6 0.0338549 0.270464 0.126905 -2 -3 3 
7118 6 0.140413 0.246513 0.120185 3 -5 1 
7409 6 0.768924 0.23143 0.09543 -2 -3 -4 
5549 6 0.795556 0.288714 0.112848 -2 0 2 
7507 6 0.606163 0.273369 0.11457 -5 4 -2 
5302 6 0.833383 0.300436 0.125568 -2 -2 1 
6691 5 0.890337 0.27138 0.0893342 1 -1 4 
5554 6 0.50555 0.317609 0.0991237 -8 4 2 
5048 6 0.519559 0.339504 0.103485 2 1 -3 
6595 6 0.677296 0.318685 0.119029 -2 2 0 
5372 6 0.758499 0.364737 0.0585113 1 2 3 
7686 6 0.421822 0.368799 0.100327 4 0 2 
5095 6 0.500751 0.342588 0.114406 -5 0 5 
8924 5 0.531462 0.390578 0.0862562 -1 -5 -1 
6368 5 0.784664 0.391948 0.0797197 -5 1 -3 
8867 6 0.967124 0.394168 0.0882344 -3 -1 -6 
6485 5 0.263442 0.364568 0.0998973 -3 -5 -2 
7756 5 0.400913 0.398374 0.104496 3 4 1 
6705 5 0.807622 0.372563 0.0526502 3 3 -2 
5062 5 0.85856 0.439366 0.106511 3 -3 4 
8031 6 0.148091 0.458075 0.13771 -3 1 -6 
8260 5 0.291324 0.424829 0.115044 0 -4 1 
8870 5 0.0670189 0.470165 0.0896849 -1 2 5 
7456 5 0.37209 0.502018 0.0840227 -1 -6 -5 
6423 6 0.0589476 0.529639 0.0621978 2 -2 -1 
5507 5 0.103343 0.482868 0.0766216 -1 1 2 
8724 6 0.196457 0.50477 0.110418 1 0 0 
8627 6 0.276466 0.547424 0.107033 2 2 1 
5698 6 0.714422 0.56082 0.0858511 1 5 4 
5622 5 0.897779 0.663105 0.113934 1 4 0 
5439 5 0.966425 0.607714 0.132622 -1 4 -1 
8119 5 0.0934958 0.635331 0.119035 -2 -2 3 
8350 6 0.537394 0.659365 0.101573 6 0 0 
7041 6 0.570879 0.637832 0.0811028 -2 -2 -3 
6348 6 0.877314 0.626964 0.134122 2 1 2 
6841 6 0.0709443 0.696267 0.108074 2 -4 1 
5674 6 0.218946 0.702041 0.138098 1 4 -1 
5173 6 0.944865 0.687154 0.101006 -4 -2 5 
6285 6 0.929612 0.686923 0.0942863 0 -1 1 
8258 6 0.0166642 0.703535 0.100399 0 -5 -1 
7069 6 0.716602 0.696515 0.137799 0 -1 -1 
5992 5 0.980168 0.769985 0.139077 -3 7 -1 
6886 6 0.62346 0.746679 0.0789212 0 2 -4 
7019 5 0.835284 0.787298 0.115022 1 5 3 
5366 6 0.330827 0.780257 0.11777 5 5 10 
8334 6 0.776714 0.800649 0.102713 -3 1 1 
6800 5 0.907791 0.840306 0.122048 3 -1 0 
7195 6 0.282006 0.846915 0.0723067 -2 -2 -2 
5596 6 0.443321 0.846326 0.0839013 -1 1 -2 
7622 5 0.842982 0.845115 0.107842 3 -1 -4 
7916 5 0.71255 0.867193 0.0852417 6 -3 0 
5223 5 0.0515945 0.889892 0.0520495 -4 2 4 
8462 6 0.225661 0.934569 0.11137 3 -5 1 
8420 6 0.959493 0.922082 0.0863036 -4 4 -2 
7411 5 0.993578 0.9474 0.0814998 -2 -1 -2 
8600 6 0.0330014 0.952691 0.0629113 -2 0 -2 
8257 6 0.13 0.934221 0.0881965 -6 3 1 
8498 5 0.142765 0.9273 0.0782217 -2 -3 -1 
6926 6 0.327872 0.965342 0.0916223 -4 -3 0 
7241 5 0.593148 0.948538 0.12119 -6 0 -4 
5346 6 0.69964 0.951914 0.0972562 -2 0 -2 
5244 6 0.748602 0.954248 0.050734 0 -3 -1 
8843 6 0.240744 0.992377 0.076342 -1 1 -1 
7385 6 0.903754 0.960705 0.11286 -2 -1 1 
7848 5 0.512481 0.0235152 0.116944 4 -1 -2 
6044 6 0.976777 0.0473332 0.154297 -2 3 2 
7057 6 0.630503 0.0808919 0.115453 2 -4 2 
5575 6 0.865591 0.0425843 0.117867 1 0 -3 
5143 5 0.355682 0.101275 0.141951 5 4 2 
5117 5 0.685402 0.0762701 0.177823 -2 3 5 
8429 5 0.668721 0.106737 0.13249 0 -2 -6 
7999 5 0.381094 0.123034 0.179498 -4 -1 -5 
6777 6 0.609313 0.111789 0.161227 -7 -2 -2 
8479 6 0.627267 0.106082 0.0975234 -1 1 0 
6999 6 0.00474523 0.131314 0.117919 -3 1 2 
7964 5 0.296614 0.119094 0.141425 2 3 1 
8149 5 0.37056 0.114716 0.114367 -2 4 -1 
6515 5 0.656808 0.156105 0.114523 1 2 -2 
7234 6 0.0779563 0.170201 0.131226 -2 -4 -2 
6520 6 0.451622 0.164024 0.106503 -2 -1 -2 
8027 6 0.150061 0.157636 0.129169 0 -1 -3 
6018 6 0.437402 0.21646 0.110577 -5 -2 -6 
8164 6 0.697663 0.223125 0.152269 0 2 -1 
9000 5 0.850232 0.246994 0.149471 -3 3 4 
7432 5 0.836431 0.22728 0.135253 0 6 -3 
5112 5 0.811037 0.262428 0.118238 -6 -3 1 
6974 5 0.0148411 0.279653 0.131877 0 0 0 
5633 5 0.0470275 0.267616 0.155951 6 2 -2 
5570 5 0.126325 0.296391 0.117002 1 -7 -3 
8444 5 0.0745907 0.280196 0.124958 3 0 2 
5016 5 0.961849 0.322304 0.127341 -4 -1 0 
8946 6 0.974185 0.297908 0.139558 -5 4 2 
8591 6 0.0158144 0.319509 0.127061 2 0 3 
5418 6 0.20211 0.349835 0.131747 0 2 -1 
5121 6 0.0629051 0.341341 0.135986 -3 1 5 
6419 5 0.499722 0.334179 0.131735 -3 4 -1 
5202 5 0.691918 0.339507 0.149962 -3 2 4 
7386 5 0.0844865 0.33998 0.0958675 0 -4 -3 
6745 5 0.509379 0.396289 0.134633 4 0 0 
7802 5 0.538193 0.371629 0.135904 4 2 -3 
7887 5 0.842673 0.413847 0.102783 -2 -1 5 
7613 5 0.848148 0.407185 0.148937 -2 -3 -2 
6330 5 0.709322 0.461994 0.150427 -2 -1 0 
7819 5 0.731499 0.441963 0.153981 -2 0 -7 
7388 5 0.807633 0.432773 0.13205 3 0 6 
5383 5 0.514669 0.461016 0.113647 0 -1 -2 
7338 6 0.518188 0.45155 0.133583 1 2 2 
7621 5 0.732046 0.454037 0.127226 3 1 -5 
5819 6 0.034536 0.488183 0.162112 1 3 -1 
5319 6 0.699794 0.487803 0.113749 -3 3 2 
5574 6 0.00294762 0.49129 0.132184 -2 1 4 
8316 6 0.433557 0.516965 0.111087 2 0 0 
5967 5 0.971841 0.509714 0.138497 1 2 -2 
5247 6 0.561263 0.503557 0.123177 5 0 1 
5084 5 0.800955 0.524606 0.112273 -1 4 1 
6699 5 0.395651 0.576396 0.127644 -6 -1 -3 
7028 6 0.735323 0.622501 0.146241 0 4 5 
5580 5 0.917332 0.570348 0.135764 -5 -2 0 
6931 6 0.698112 0.646265 0.130599 -3 4 -1 
8827 6 0.391895 0.63962 0.116786 0 2 -5 
5207 6 0.0708495 0.662578 0.142263 -1 1 -3 
8469 6 0.193023 0.645187 0.0869839 0 -5 -2 
8298 6 0.811659 0.65417 0.101397 1 -2 1 
6340 6 0.89601 0.668354 0.13307 -1 1 1 
5928 6 0.893178 0.724403 0.116737 -5 -5 -3 
5375 5 0.458036 0.710393 0.106564 3 -2 1 
8111 5 0.632061 0.710152 0.0403848 -3 2 -2 
5565 5 0.783023 0.744782 0.114156 3 1 -4 
5690 6 0.182688 0.748535 0.17041 -1 -4 5 
8098 5 0.660089 0.747702 0.138231 4 1 0 
5499 6 0.0495609 0.798055 0.13371 0 -1 3 
6851 5 0.780992 0.820453 0.154118 7 2 2 
5214 6 0.0622865 0.899481 0.134373 2 0 2 
7975 6 0.625891 0.870053 0.129501 -4 -2 2 
6475 6 0.720397 0.841913 0.104713 0 -2 3 
6009 6 0.805124 0.862785 0.0896634 1 0 4 
8200 5 0.388665 0.883383 0.132035 -2 6 -3 
5343 5 0.498965 0.926563 0.105168 4 2 4 
6100 5 0.13165 0.874695 0.115293 7 2 4 
8892 5 0.817283 0.917912 0.150007 1 1 -1 
5521 6 0.768478 0.90795 0.134935 4 -3 2 
5716 5 0.917165 0.992164 0.136606 -2 -3 -1 
8943 6 0.0650616 0.969589 0.137324 1 -4 -2 
6219 6 0.285998 0.982449 0.138188 -2 1 5 
8762 6 0.580228 0.00538297 0.102258 3 -3 2 
7952 5 0.325335 0.979514 0.139582 1 1 -4 
5818 6 0.677946 0.0399443 0.166096 1 -1 0 
5611 5 0.0803638 0.0673262 0.178857 1 -1 -1 
6883 5 0.472703 0.077376 0.152461 -1 4 1 
6189 6 0.56922 0.0865934 0.123751 3 5 3 
7304 6 0.220304 0.122385 0.138608 -2 -1 0 
6958 5 0.756812 0.108455 0.104373 2 -3 3 
6639 6 0.836429 0.0748643 0.119937 -1 0 -2 
8241 5 0.767886 0.114469 0.137764 0 0 -2 
5787 6 0.146083 0.16708 0.159035 -3 2 -3 
6765 5 0.381561 0.150197 0.200269 1 0 0 
7879 5 0.459289 0.14435 0.161847 -1 4 2 
6283 5 0.165432 0.215054 0.160109 1 3 1 
8069 6 0.283085 0.211399 0.176323 0 -3 1 
7676 6 0.298465 0.15461 0.130909 0 0 4 
8220 5 0.321424 0.163632 0.126037 2 1 3 
5151 6 0.765597 0.196576 0.154201 2 0 4 
5028 6 0.662143 0.220623 0.198154 -3 1 2 
6525 5 0.744097 0.213539 0.133425 -3 5 -3 
8391 5 0.350307 0.238324 0.111803 -2 -4 -3 
8421 6 0.7824 0.219665 0.126597 2 3 0 
8285 5 0.833348 0.222832 0.146659 -3 1 -1 
6710 5 0.317235 0.251568 0.203837 -6 0 0 
8574 5 0.706912 0.229705 0.215729 3 -1 0 
6473 5 0.65016 0.262073 0.161417 4 -5 1 
5856 5 0.468699 0.299722 0.147773 -1 -2 4 
8156 6 0.716552 0.270205 0.126061 -2 -1 2 
6761 5 0.421238 0.30815 0.172598 -3 0 -2 
5264 5 0.737334 0.300573 0.134408 -1 0 3 
6069 6 0.82435 0.326094 0.138385 0 4 0 
6431 6 0.232549 0.340109 0.17894 -5 -1 0 
5257 6 0.320373 0.325793 0.167177 2 -1 1 
8289 6 0.522893 0.338413 0.158877 -3 2 3 
7349 5 0.206127 0.356608 0.190748 2 4 -1 
7309 5 0.223581 0.431408 0.168979 6 -1 -3 
5683 6 0.684079 0.43664 0.164264 -2 -2 0 
6541 6 0.607059 0.492605 0.176582 -2 -4 1 
6609 6 0.736299 0.49435 0.155206 3 0 2 
6509 5 0.0758866 0.501691 0.12665 -2 -2 0 
6444 6 0.129287 0.478329 0.14708 4 -3 1 
7691 6 0.916919 0.475892 0.167988 1 -1 2 
6762 6 0.336351 0.521043 0.123523 -1 -3 3 
6755 6 0.364038 0.50921 0.137887 1 0 -3 
5215 6 0.589647 0.484897 0.118465 -7 -4 -5 
7219 6 0.924097 0.519085 0.155702 2 1 -5 
6312 5 0.931734 0.501364 0.143725 0 3 -2 
5826 5 0.97493 0.53936 0.174402 0 1 0 
8652 5 0.128144 0.592501 0.115517 -3 7 -2 
6063 6 0.494658 0.573226 0.148215 -2 -2 -1 
6693 5 0.937725 0.58099 0.133768 1 -2 0 
6498 6 0.842985 0.6017 0.158357 -4 5 2 
8613 5 0.370368 0.597687 0.148937 2 1 -1 
5397 6 0.387281 0.581307 0.129394 7 2 -1 
6406 6 0.426061 0.627341 0.1417 -1 -3 3 
5482 6 0.159867 0.623851 0.156819 1 0 4 
6316 5 0.778076 0.630603 0.208835 -1 8 -2 
5973 6 0.860584 0.649182 0.142335 -1 0 -2 
6256 5 0.507535 0.700011 0.160272 0 0 0 
5081 6 0.608027 0.676895 0.163834 0 -3 -1 
7391 5 0.875146 0.671269 0.168946 -1 3 0 
5224 6 0.60799 0.694367 0.13564 -1 2 0 
8159 5 0.806794 0.689143 0.154196 0 2 -4 
5703 6 0.534977 0.70378 0.180694 -6 4 3 
5899 6 0.667106 0.73738 0.14414 0 -2 2 
8777 6 0.222476 0.725465 0.119268 5 -2 3 
8582 5 0.132008 0.701297 0.147465 2 0 -3 
7636 5 0.750181 0.775343 0.126867 -1 1 0 
8822 6 0.470786 0.742597 0.174805 -4 -1 -3 
5680 6 0.736541 0.746883 0.14668 0 -3 -3 
8353 6 0.0122295 0.757268 0.153485 1 -1 3 
8439 5 0.527991 0.783525 0.147813 2 5 0 
6852 6 0.625304 0.799117 0.140614 -1 -2 -5 
6093 6 0.0956541 0.803528 0.123553 7 1 0 
5546 6 0.622832 0.831759 0.116119 0 0 2 
6581 6 0.962258 0.852878 0.108018 3 -1 -2 
6458 6 0.274339 0.857076 0.154998 -1 5 4 
7423 6 0.453416 0.915489 0.187379 3 0 -3 
5785 5 0.373946 0.965424 0.156607 -4 3 1 
5103 6 0.0177576 0.933282 0.161862 2 3 -3 
6001 6 0.286708 0.944405 0.121086 2 -3 -4 
8806 6 0.1262 0.991511 0.152101 5 3 -5 
5050 6 0.195507 0.996513 0.195043 2 -6 -1 
7871 6 0.544197 0.997069 0.145099 -4 -4 -1 
5886 6 0.703368 0.00034263 0.168519 -2 1 -1 
7570 6 0.158633 0.0624329 0.209066 0 1 1 
6030 6 0.824692 0.0366994 0.183173 -6 6 2 
5736 6 0.380808 0.0488914 0.188661 5 -2 3 
7517 5 0.572616 0.0692153 0.177297 0 -5 2 
8930 6 0.760141 0.0683176 0.157155 -2 4 1 
7172 5 0.212708 0.111037 0.163281 4 2 -2 
7638 5 0.945073 0.134193 0.183511 1 -1 0 
5009 6 0.14484 0.10611 0.165577 0 -3 3 
6029 6 0.149305 0.102804 0.214501 0 -1 -3 
8374 6 0.966871 0.164224 0.227219 0 -1 -1 
7351 5 0.788364 0.180432 0.160098 1 0 -2 
8024 6 0.083267 0.191208 0.214013 -1 -2 1 
8124 5 0.207862 0.179648 0.189177 3 -1 1 
8986 6 0.480034 0.194263 0.206438 3 3 0 
8141 6 0.0924859 0.216581 0.167381 2 -2 -2 
7483 5 0.209999 0.228291 0.171863 1 1 2 
6144 6 0.737593 0.24223 0.170731 3 3 -2 
8639 6 0.399065 0.26493 0.189028 0 3 -4 
6529 6 0.601967 0.27976 0.204157 4 4 -2 
7733 5 0.94887 0.256115 0.145706 1 1 -1 
8585 6 0.0947544 0.30056 0.13344 0 -1 0 
5422 6 0.217887 0.330745 0.132845 -3 -3 -1 
8554 5 0.475191 0.32385 0.135351 0 0 -1 
5519 5 0.824151 0.314852 0.181775 4 -3 -1 
5840 6 0.391988 0.334945 0.155043 0 -1 1 
8650 6 0.36196 0.385026 0.180659 0 -4 2 
8689 6 0.777975 0.378336 0.159193 -6 -2 -4 
7489 5 0.791468 0.354861 0.146777 5 4 -2 
6563 5 0.666911 0.460804 0.158885 0 -1 1 
5493 6 0.911142 0.442699 0.179971 1 -1 2 
7147 5 0.523231 0.431689 0.181392 2 2 3 
5801 6 0.19104 0.479894 0.162535 -2 4 3 
5457 6 0.706754 0.532118 0.111147 -1 0 -4 
6855 6 0.889241 0.466429 0.174937 2 -2 -2 
5623 6 0.366039 0.517599 0.155344 2 1 -4 
8691 6 0.678943 0.513399 0.150593 2 -7 -2 
5484 6 0.0925397 0.558258 0.128386 1 -3 3 
7876 6 0.0324482 0.555942 0.173138 1 -7 3 
5938 6 0.132156 0.588142 0.175228 6 -2 2 
8952 5 0.895185 0.582775 0.15395 2 -2 -1 
7865 5 0.198247 0.614813 0.167358 -4 -1 -4 
7774 6 0.460733 0.620775 0.208606 0 -2 3 
5364 6 0.55962 0.62588 0.163254 -5 0 -1 
6985 5 0.497906 0.661817 0.183015 4 -2 3 
8717 6 0.393576 0.645361 0.172105 -1 -3 3 
5965 6 0.592583 0.642623 0.182568 4 1 -2 
8889 5 0.718233 0.697561 0.175122 0 4 3 
5411 6 0.403716 0.733639 0.164742 -1 -4 4 
5820 5 0.424472 0.764202 0.165001 -2 0 0 
5857 6 0.772161 0.681515 0.165101 3 -2 -1 
5812 6 0.329738 0.738339 0.204578 -4 0 1 
8791 6 0.716089 0.746111 0.160999 -1 1 -6 
6994 5 0.907995 0.764101 0.160701 4 0 -1 
8667 6 0.264789 0.793961 0.166283 1 3 -2 
7376 6 0.276944 0.768929 0.168944 -1 0 -3 
8208 6 0.0187312 0.796536 0.212054 3 1 1 
7601 5 0.28869 0.781877 0.166328 3 -1 2 
7240 6 0.33554 0.803931 0.169225 6 -3 1 
6843 5 0.71611 0.766289 0.186056 -3 -2 0 
6327 5 0.919302 0.806658 0.133197 -2 -5 -1 
7387 6 0.502534 0.877394 0.191063 -4 -1 -1 
7042 5 0.163252 0.860679 0.139453 0 -1 3 
6495 6 0.298439 0.868331 0.152864 2 -3 5 
8616 5 0.701218 0.890583 0.156276 -1 0 3 
5951 5 0.885595 0.908695 0.173746 1 2 2 
5860 5 0.918668 0.887657 0.17645 3 -6 4 
8384 5 0.981684 0.837222 0.172153 -1 -5 -4 
6086 5 0.422697 0.910972 0.141363 -1 1 -6 
7117 5 0.0892701 0.925916 0.163552 1 -2 0 
8536 6 0.856513 0.903851 0.173996 -3 -2 1 
5573 5 0.582998 0.977317 0.165648 3 -5 2 
5919 6 0.598199 0.941795 0.167574 0 5 5 
6962 5 0.787652 0.00178694 0.164826 1 2 2 
7674 5 0.599723 0.0143802 0.195528 3 4 1 
6675 6 0.628963 0.0277815 0.186639 1 -1 2 
8359 5 0.0846414 0.0349196 0.200095 1 -6 2 
8483 6 0.737377 0.0190458 0.240157 -7 -5 -1 
7362 6 0.597299 0.0561685 0.208202 -1 -2 3 
5471 5 0.546617 0.0651046 0.200819 0 0 -2 
8861 5 0.670918 0.0906975 0.212075 1 -1 -4 
7260 6 0.666581 0.133883 0.216568 3 1 4 
6965 5 0.170076 0.131938 0.186183 3 -2 2 
8755 5 0.421123 0.174705 0.201416 3 -4 3 
7791 6 0.641316 0.124626 0.212392 -2 7 5 
8507 5 0.535003 0.176394 0.17019 5 -1 2 
7264 5 0.752625 0.154587 0.198362 -2 3 8 
6250 5 0.877558 0.141739 0.200076 -2 -4 -1 
6961 5 0.106592 0.211106 0.190181 -2 1 0 
7821 5 0.522223 0.191639 0.192583 -1 -1 2 
8556 5 0.829471 0.196654 0.189537 -2 -3 2 
7377 6 0.989229 0.202938 0.202941 -2 -1 4 
8047 5 0.295901 0.22572 0.206124 -1 2 3 
6915 6 0.539095 0.227267 0.210788 -1 4 2 
8647 6 0.631744 0.272698 0.169766 3 -1 2 
8397 6 0.149869 0.241815 0.199415 -1 1 -1 
5897 5 0.914808 0.324521 0.157722 -1 -3 0 
6490 5 0.935307 0.287586 0.193267 1 -4 -1 
7357 5 0.0671078 0.318698 0.184873 -3 1 -5 
6730 5 0.167167 0.26559 0.176072 6 -1 -1 
6238 6 0.681512 0.314191 0.185128 3 1 6 
5348 5 0.738727 0.310862 0.209465 -3 -1 6 
7203 5 0.505766 0.315165 0.186917 -6 -3 1 
5365 6 0.761521 0.371171 0.214478 1 -3 -2 
7554 5 0.923245 0.358968 0.209542 -3 -4 2 
7580 6 0.36278 0.379822 0.193721 -2 1 0 
6451 5 0.366191 0.356596 0.197186 2 -2 -1 
5007 5 0.86905 0.389712 0.165128 -1 4 -2 
7174 5 0.43599 0.395402 0.19274 2 1 1 
8064 5 0.538944 0.449418 0.183018 3 1 1 
8503 5 0.55982 0.444684 0.214343 -2 6 0 
5163 6 0.554833 0.462061 0.197294 -2 4 1 
5543 5 0.247548 0.458936 0.170942 1 0 1 
7097 5 0.427442 0.443303 0.243775 -2 3 2 
7324 5 0.498299 0.477823 0.170172 -1 0 -1 
5078 6 0.756536 0.473881 0.229754 0 -7 -1 
5520 5 0.880298 0.459173 0.155761 1 -3 -3 
7986 6 0.708982 0.467832 0.178047 2 -2 0 
5108 6 0.050353 0.47218 0.173634 -6 -4 -1 
7445 6 0.22642 0.514038 0.202911 4 2 3 
5230 5 0.370235 0.55282 0.207823 0 -1 6 
8237 6 0.380165 0.527512 0.168782 2 3 -2 
6163 6 0.809719 0.519805 0.17826 1 3 0 
6627 5 0.880295 0.557113 0.199294 -2 -1 0 
8993 5 0.0531217 0.523983 0.186115 3 -5 1 
8987 6 0.0354153 0.547887 0.183261 4 0 -3 
5572 6 0.150815 0.591374 0.188219 8 1 3 
5618 6 0.0363901 0.607738 0.197396 1 3 -3 
7609 5 0.0117074 0.570346 0.167058 0 -5 6 
6940 6 0.389321 0.619226 0.204136 1 1 -3 
5700 6 0.638847 0.593711 0.205297 -8 1 1 
7920 5 0.133561 0.645826 0.226876 0 4 0 
6553 6 0.178764 0.646775 0.187624 -5 -4 7 
7420 5 0.318961 0.608306 0.197263 4 -1 2 