ITEM: TIMESTEP
20000000
ITEM: NUMBER OF ATOMS
9000
ITEM: BOX BOUNDS pp pp pp
-75 75
-75 75
-75 75
ITEM: ATOMS id type xs ys zs ix iy iz 
8901 5 0.122423 0.012987 0.0381912 2 -2 -1 
8278 5 0.175327 1.00091 0.0322305 -2 -2 4 
6298 5 0.0434075 0.0203296 0.989669 1 2 -4 
6481 6 0.518747 0.0137031 0.995056 2 6 2 
8444 6 0.695214 0.0444902 0.0394183 2 -2 -3 
8150 6 0.353568 0.0605553 0.014402 2 2 -2 
6416 6 0.395499 0.0430461 0.0380293 -1 2 -4 
6580 6 0.459961 0.105512 0.99902 0 6 -4 
5495 6 0.636221 0.0311769 0.987392 1 3 -3 
6928 6 0.19619 0.118667 0.973483 4 2 4 
6795 6 0.329501 0.0808799 0.00594525 4 -3 -2 
6216 5 0.0023557 0.0908247 0.0311144 -1 0 2 
8913 5 0.260543 0.0860384 0.982914 0 -2 -3 
6038 5 0.333993 0.0768293 0.000769579 -1 -3 1 
8456 5 0.478271 0.127527 0.0450118 -2 -2 -2 
5412 6 0.0965198 0.104944 0.0391894 2 -1 2 
7439 5 0.522446 0.134041 0.995177 3 -1 -6 
8660 6 0.0931691 0.147247 0.0195752 -1 2 -3 
5563 6 0.107216 0.163242 0.0245435 5 -2 0 
6687 6 0.734987 0.137083 0.0162203 2 0 -3 
7161 5 0.380106 0.162922 -0.00349796 -4 -2 0 
6698 5 0.62571 0.171524 0.985149 -2 5 0 
5567 5 0.467955 0.195131 0.0572131 -5 1 0 
6354 6 0.610649 0.209711 0.975996 0 2 0 
7047 6 0.0306378 0.215923 0.0332956 -4 -6 2 
5544 6 0.231526 0.247851 0.041057 0 2 -2 
7478 6 0.409667 0.24364 0.0131331 2 -1 -1 
6503 6 0.429475 0.235789 0.00855121 -4 -5 -4 
6368 6 0.721665 0.241239 0.0288437 4 5 1 
8575 6 0.0497499 0.273218 0.00258645 2 0 0 
7236 6 0.21183 0.263782 0.00407501 1 6 0 
5618 6 0.238616 0.260289 0.0331784 6 0 1 
7074 6 0.334917 0.323995 0.988704 -6 1 -4 
6619 6 0.408755 0.290445 0.0317583 -1 -5 -3 
7247 6 0.776364 0.371686 0.0183402 0 -4 -2 
8369 5 0.173732 0.363124 0.953523 -3 2 -1 
7464 5 0.425278 0.351312 0.0140763 0 -3 5 
8928 5 0.130928 0.441332 0.0290874 0 2 2 
5371 6 0.705761 0.457493 0.0300682 -4 2 -4 
8802 5 0.0994855 0.467804 0.0201447 3 -2 2 
6783 5 0.936714 0.450261 0.00932589 2 -2 -1 
6691 6 0.743728 0.482304 0.0364104 -2 3 3 
6057 5 0.345588 0.490462 0.0108269 0 1 4 
8262 6 0.241389 0.586003 0.00607277 1 -3 1 
6716 6 0.81565 0.557539 0.986023 0 4 0 
7764 5 0.277021 0.607051 0.0477148 -4 4 1 
6735 6 0.507933 0.618652 0.0326701 0 1 4 
6226 5 0.499982 0.64921 0.0137107 2 1 -2 
8723 6 0.535623 0.646025 0.00295853 -8 6 -6 
7798 5 0.639332 0.663097 0.0487041 1 1 0 
8797 6 0.914064 0.624626 0.0301857 0 2 -2 
7153 6 0.602712 0.657314 0.984731 0 0 -5 
8712 6 0.461863 0.661609 0.0103722 -3 -2 1 
8689 6 0.47868 0.677843 0.0144735 -5 -1 3 
5094 6 0.0806209 0.722648 0.00155113 1 -2 3 
6329 6 0.0797494 0.712021 0.025336 1 7 -2 
5247 6 0.514723 0.72323 1.0007 -4 -4 -1 
8325 6 0.586687 0.72124 0.00261056 -1 0 3 
7843 6 0.29694 0.754221 0.00516536 0 -4 -2 
5141 6 0.30026 0.688522 0.0276625 -6 0 2 
8382 6 0.375847 0.769379 0.974221 4 -3 4 
6182 6 0.883117 0.75402 0.0253944 -1 1 6 
8867 5 0.130533 0.769185 0.991999 -1 -2 4 
5796 5 0.711404 0.792462 0.997799 0 -1 1 
5125 6 0.0172327 0.74003 0.96938 -1 3 -4 
6346 5 0.828094 0.771151 0.980425 0 -6 2 
5365 6 0.969272 0.790905 0.977474 1 1 -4 
6575 5 0.937718 0.815781 0.0256612 1 6 1 
5319 6 0.104106 0.802832 0.0272031 0 2 1 
7632 5 0.826463 0.832643 0.987835 -2 -2 -6 
7976 6 0.972471 0.797369 0.0161734 1 0 0 
5538 6 0.012214 0.811559 0.0454318 -3 -1 1 
7783 5 0.224512 0.887749 0.992611 -2 -5 4 
8751 5 0.547558 0.893701 0.984241 -1 -2 1 
8172 6 0.801655 0.933483 0.0582579 -2 0 -1 
7343 6 0.110357 0.955228 0.0233046 1 1 1 
8605 5 0.109244 0.967879 0.993687 0 1 0 
8617 6 0.263956 0.961897 0.0208697 -3 -2 0 
5671 6 0.398081 0.007954 0.0181394 1 3 -4 
5144 6 0.963664 0.00404993 0.996948 0 3 2 
7592 6 0.437491 0.0236659 0.01094 -3 3 6 
8527 6 0.917608 0.107894 0.0281126 -4 0 2 
6829 6 0.402765 0.104787 0.00834557 11 6 3 
8959 6 0.0693681 0.11376 0.00349961 0 0 4 
5714 6 0.384935 0.136651 0.958828 0 -1 -2 
6696 5 0.902327 0.176855 0.0701616 3 -3 0 
6082 5 0.232585 0.175041 0.0233757 -5 -4 2 
6485 6 0.278441 0.140525 0.0560976 -1 -1 5 
8931 6 0.681748 0.175585 0.0189619 3 0 -4 
8073 5 0.362751 0.177648 0.0615856 -6 -1 2 
8248 5 0.0845185 0.227973 0.0291798 1 -3 1 
5211 5 0.684504 0.188869 0.0691092 0 1 2 
8785 6 0.114018 0.247652 0.985125 2 0 0 
5798 5 0.723628 0.259041 0.0132368 2 -4 -2 
7097 6 0.394443 0.276073 0.0360422 -8 2 0 
5104 6 0.10277 0.258516 0.0278586 1 1 4 
8548 5 0.893946 0.299587 0.0115259 0 -1 -2 
8951 6 0.15109 0.306306 0.0619966 3 -8 1 
6909 6 0.245323 0.364148 0.0646021 0 -2 -2 
8224 6 0.455553 0.341291 0.0140229 3 -4 -2 
7802 6 0.913632 0.356099 0.0359244 -3 3 0 
6384 6 0.772014 0.439822 0.0141299 3 0 5 
6247 6 0.600459 0.438021 0.0342679 -4 -5 -5 
7288 6 0.225316 0.423543 0.985632 -2 -1 -2 
6512 6 0.254608 0.422468 0.0467515 0 0 -4 
8402 5 0.580883 0.484128 0.014817 -5 -3 -2 
5257 5 0.569671 0.446117 0.0161875 2 -1 3 
7786 5 0.0790837 0.479406 0.0302278 3 5 4 
8244 6 0.197233 0.476229 0.0291923 1 1 0 
7690 5 0.526942 0.45248 0.0261543 -5 -5 0 
8066 5 0.386295 0.46069 0.0446558 -2 7 1 
7005 5 0.712416 0.468405 0.0188137 1 -3 6 
7277 5 0.0981824 0.485673 0.0245052 2 1 -1 
7115 5 0.312041 0.52817 0.0466078 -5 1 2 
6858 6 0.491241 0.50233 0.0362584 3 -3 -5 
7369 5 0.538325 0.551746 0.0203295 -2 -3 0 
8427 6 0.61669 0.5337 0.0321842 0 -2 3 
6239 6 0.163622 0.583904 0.0295096 1 -1 4 
7702 5 0.677026 0.566049 0.0314359 3 1 3 
7993 5 0.945051 0.511305 0.0328616 2 1 -3 
6621 6 0.83629 0.585443 0.0156129 -1 -1 1 
8659 6 0.980836 0.586404 0.0257491 -3 0 -1 
5715 6 0.919807 0.650397 0.00529096 -6 -3 0 
8362 5 0.0311429 0.732791 0.0517902 -2 -2 -2 
5330 6 0.435048 0.673904 0.991554 3 -4 -2 
8273 6 0.460986 0.694374 0.00818785 3 1 0 
8957 5 0.0168051 0.69353 0.0557278 -3 -5 2 
6141 6 0.252984 0.751884 0.00526444 0 -3 2 
5762 6 0.279615 0.719282 0.0384404 0 -3 3 
5256 6 0.593545 0.701843 0.0621216 1 3 6 
7207 5 0.0686526 0.745616 0.029116 3 -1 0 
6297 6 0.292207 0.755524 0.0166697 -1 -2 0 
5577 5 0.913943 0.789334 0.0185467 4 -3 3 
7942 6 0.102286 0.786274 0.0390258 1 1 2 
7093 5 0.135079 0.783581 0.0415993 0 6 5 
6497 6 0.302274 0.783311 0.0228242 1 -1 1 
8313 5 0.684477 0.764459 0.989616 3 3 -7 
7982 6 0.937263 0.755079 0.0561664 -1 -10 0 
8969 6 0.441125 0.820129 0.0387292 -3 0 1 
8706 5 0.742611 0.868631 0.0278359 2 -2 -2 
5436 6 0.840724 0.818732 -0.000883813 3 1 -2 
7411 6 0.413889 0.857417 0.0403281 -2 -3 -3 
8082 6 0.571579 0.855609 0.0332923 1 0 -1 
5590 5 0.347534 0.890739 0.00893717 3 2 4 
6443 5 0.488079 0.874603 0.0244735 0 -4 0 
8917 5 0.0266757 0.853327 0.0179214 -6 -1 6 
7130 6 0.358126 0.911161 0.021639 1 3 1 
5448 5 0.78683 0.846134 0.0573265 2 1 0 
7527 6 0.811077 0.8405 0.0621963 0 -6 -4 
5613 5 0.171354 0.914632 0.0456019 -2 3 -1 
8095 5 0.770171 0.956308 0.0359351 -6 0 -3 
6193 5 0.675589 0.958462 0.0323088 5 -1 2 
7700 5 0.883764 0.932719 0.0485217 1 -1 3 
7963 6 0.651901 0.996724 0.0184042 0 0 4 
7233 6 0.87378 0.990031 0.0485031 3 0 0 
8664 5 0.8092 0.0142404 -0.00120859 0 -3 -4 
6288 5 0.87376 0.00460565 0.065502 -1 1 -1 
8591 6 0.0184951 0.0490283 0.0865232 -2 -3 1 
5100 6 0.214002 0.0805079 0.0460158 -1 3 -5 
7734 6 0.185009 0.0965465 0.074706 1 1 1 
6137 5 0.0401726 0.12284 0.0471292 -2 3 -1 
6819 5 0.463794 0.118175 0.0527542 2 0 -2 
8394 5 0.555467 0.127938 0.0485908 -1 6 0 
7217 5 0.418533 0.112561 0.0608392 -2 3 -3 
7492 5 0.418711 0.168581 0.0502747 -1 -1 2 
5962 5 0.536826 0.0907859 0.0642663 1 4 5 
5299 6 0.489559 0.12032 0.0448689 6 0 -1 
7353 6 0.0861892 0.157227 0.0741928 1 2 -1 
8522 5 0.807349 0.163465 0.0477511 1 -3 4 
5716 6 0.854753 0.212845 0.052493 0 4 -2 
6358 5 0.113283 0.158445 0.0477712 0 6 -5 
7347 6 0.10796 0.18898 0.0730852 1 0 -2 
7750 6 0.559894 0.178128 0.0498613 -2 3 -2 
7586 5 0.566147 0.224422 0.0504547 0 -2 1 
5982 6 0.801601 0.241597 0.0715966 -4 1 0 
7083 5 0.557582 0.259865 0.0705955 -5 3 0 
8832 6 0.940206 0.260229 0.0802904 -2 5 7 
6436 6 0.00497673 0.250788 0.117077 2 2 1 
8006 6 0.812175 0.279912 0.0698247 -5 1 -1 
8037 5 0.21797 0.288945 0.0463398 5 4 5 
5370 5 0.412248 0.281415 0.0581524 3 4 5 
6712 5 0.597277 0.329229 0.0505033 -2 -2 -4 
8133 5 0.12334 0.343579 0.0586218 1 1 0 
5109 6 0.633145 0.33254 0.059138 1 1 -3 
8152 5 0.991449 0.375754 0.0421311 -3 5 2 
7356 6 0.945662 0.319247 0.046045 -3 -1 -3 
8109 6 0.889193 0.398755 0.0567917 -3 1 1 
7033 5 0.93591 0.389714 0.0253384 -2 2 2 
5461 5 0.00812944 0.405835 0.0878117 0 4 -8 
5302 5 0.0175253 0.399791 0.0579528 -2 3 4 
8385 6 0.18103 0.469342 0.0571687 2 4 2 
5818 6 0.483764 0.393151 0.0889513 -3 1 1 
7017 5 0.407815 0.466637 0.0428582 4 -3 -1 
8759 6 0.4273 0.465631 0.0647738 0 4 1 
6550 5 0.456516 0.426304 0.0817628 0 2 -3 
7340 6 0.126932 0.484208 0.0655926 -1 -1 -3 
6704 6 0.178693 0.55411 0.0815107 3 1 -2 
8436 5 0.364084 0.491184 0.0613434 0 -2 7 
8282 6 0.688812 0.516057 0.0485584 2 -2 1 
7967 6 0.793466 0.513105 0.0661234 -6 -2 0 
8829 6 0.786247 0.534553 0.0945452 -4 1 3 
8301 6 0.0186739 0.570169 0.0245216 4 3 3 
5936 6 0.715709 0.531084 0.0728847 1 -1 -5 
6931 5 0.974509 0.572715 0.0549919 -4 2 0 
6460 5 0.0593432 0.615869 0.0736011 -1 -1 -1 
8728 6 0.400434 0.629136 0.0718145 5 0 3 
5230 6 0.520875 0.608708 0.0491649 0 0 0 
6483 6 0.553881 0.652216 0.0514676 2 -5 3 
8023 5 0.265613 0.714949 0.0650149 1 -7 1 
5233 6 0.887699 0.743505 0.0572218 -3 2 2 
8345 5 0.895462 0.685274 0.0517713 4 5 -1 
8515 6 0.962233 0.774069 0.065376 -4 1 3 
8665 6 0.243449 0.735942 0.052732 1 2 0 
7770 5 0.406985 0.741953 0.0404831 4 3 1 
5475 5 0.428768 0.715532 0.0645464 -2 -5 2 
7385 6 0.180009 0.808127 0.0444557 3 -1 -3 
5203 6 0.407127 0.77639 0.0841409 3 -4 3 
8520 5 0.0559198 0.784939 0.0434389 6 0 -3 
8344 6 0.775763 0.841334 0.0756473 3 0 -1 
5648 6 0.813861 0.832039 0.0477718 -4 5 -1 
7910 6 0.325568 0.865569 0.0383663 -2 -6 0 
5207 6 0.447203 0.840707 0.0478522 2 -1 -3 
8312 6 0.526369 0.858366 0.0498496 -1 0 -2 
6945 6 0.61596 0.867312 0.0513868 4 -4 -3 
5814 6 0.439765 0.903917 0.055588 0 0 0 
7509 5 0.414693 0.915142 0.0459064 -4 1 -2 
6557 5 0.414956 0.91451 0.0573 2 1 -1 
5845 5 0.507946 0.891387 0.0637932 2 -1 -2 
6589 5 0.281215 0.91193 0.0543816 4 3 0 
7500 6 0.0496881 0.96332 0.0918406 4 5 5 
7258 6 0.323871 0.987372 0.0261389 -4 -3 0 
8255 6 0.302801 0.0348625 0.0886254 2 -1 1 
7309 6 0.967056 0.0146894 0.104501 1 1 5 
5881 5 0.216009 0.00901671 0.0586648 1 2 2 
5154 6 0.839527 0.0547745 0.0812997 5 -3 2 
7027 6 0.938336 0.002186 0.0987298 -4 2 -3 
6900 6 0.54842 0.0504073 0.0693789 -2 2 -1 
8954 6 0.642032 0.0425837 0.0838579 -1 -1 -1 
6154 6 0.13043 0.0472124 0.100885 -2 2 1 
6334 6 0.346425 0.0842278 0.111023 -4 -1 -1 
8877 5 0.611968 0.0870457 0.0958858 2 -3 2 
8929 5 0.937102 0.110648 0.0497779 -1 1 5 
6847 5 0.114218 0.0954733 0.0445684 0 2 3 
7651 6 0.151659 0.102817 0.0610959 1 2 -2 
7140 6 0.588925 0.0643954 0.111091 -1 5 -3 
8551 6 0.0728478 0.128614 0.0593054 -3 1 -3 
5657 5 0.526599 0.143857 0.0731577 -1 3 -1 
8208 6 0.766179 0.17808 0.0577611 1 2 -6 
7618 6 0.822482 0.139964 0.0397427 2 0 -2 
8311 6 0.165125 0.174414 0.0577973 -3 -1 5 
7240 5 0.436154 0.169371 0.0731097 2 -3 1 
7508 5 0.494634 0.156942 0.105566 4 -2 6 
7474 6 0.995072 0.210183 0.0523531 -4 -2 -1 
8732 6 0.589392 0.226431 0.0738807 -5 2 2 
8036 6 0.782431 0.215989 0.110738 -3 -5 0 
5303 6 0.129849 0.21088 0.129057 0 -1 0 
8856 6 0.370655 0.216881 0.0774755 2 -2 -2 
5527 5 0.894142 0.264976 0.0952784 1 -2 2 
5591 5 0.206123 0.260636 0.0755626 -2 0 2 
5974 6 0.79482 0.264724 0.0922421 -2 5 -2 
5480 6 0.800749 0.293446 0.063036 -4 1 1 
7424 6 0.922094 0.256382 0.086387 0 -5 -2 
8174 6 0.988001 0.313274 0.0871403 -5 -3 -2 
5452 5 0.636315 0.332979 0.0881632 -2 5 1 
8219 6 0.0575689 0.380958 0.0943354 0 -1 5 
5292 6 0.338125 0.340363 0.0591522 2 5 0 
6952 6 0.387523 0.394036 0.0914957 4 3 3 
6511 6 0.0454373 0.380078 0.0891958 -4 -6 3 
5543 5 0.309285 0.38056 0.070351 -2 4 0 
5586 5 0.325038 0.403816 0.0788124 0 -1 -1 
6495 5 0.304119 0.399767 0.0756558 5 -4 -4 
6187 5 0.968913 0.375991 0.0515915 -4 1 2 
8250 5 0.0671505 0.49673 0.101576 1 1 1 
8613 5 0.661416 0.466197 0.0824031 -1 1 -2 
5061 6 0.945361 0.492129 0.0942861 -5 2 6 
7707 6 0.075592 0.54117 0.0826691 -3 -2 0 
7460 6 0.440372 0.506264 0.058511 0 -4 2 
5024 5 0.565516 0.518973 0.0585336 0 4 3 
7469 5 0.740145 0.538018 0.0862896 -6 1 4 
6364 6 0.0331064 0.578349 0.0693401 -2 -4 0 
6258 6 0.249831 0.558602 0.0896574 -1 1 -1 
6614 5 0.559424 0.543459 0.0977155 0 1 -2 
5733 6 0.592695 0.540073 0.0610055 7 3 1 
6143 5 0.0593822 0.591446 0.0709985 -5 2 -3 
7414 6 0.751176 0.617312 0.0486146 -1 1 -2 
7980 5 0.407198 0.652712 0.084323 -6 0 -1 
8307 6 0.270863 0.685011 0.084772 4 -7 0 
5832 6 0.825226 0.685781 0.0719715 4 -1 0 
7184 6 0.0290138 0.683495 0.0789443 1 -1 5 
7803 6 0.577747 0.729037 0.0826272 4 -2 1 
5197 5 0.892901 0.733349 0.104383 2 5 -4 
5372 5 0.146879 0.765351 0.050398 -4 0 6 
5703 5 0.491318 0.810253 0.0571658 -1 1 -1 
5178 5 0.83594 0.816604 0.0874069 -1 -2 -1 
7182 6 0.0244136 0.821334 0.0773952 8 4 1 
8949 6 0.427176 0.806719 0.0393285 -2 0 0 
8074 6 0.154373 0.857758 0.107871 -6 0 -3 
7291 6 0.574691 0.841671 0.0968143 0 0 -6 
7322 5 0.655408 0.839894 0.0434716 0 1 -1 
5693 6 0.816765 0.898582 0.0543705 0 0 1 
5209 5 0.458363 0.881705 0.0938709 1 0 3 
5242 5 0.166794 0.935453 0.0776074 0 -5 1 
7629 6 0.478845 0.962855 0.101105 -2 0 4 
7931 5 0.074231 0.98959 0.0800213 1 1 0 
8139 5 0.678123 0.999658 0.0486578 -2 -1 6 
8778 5 0.944989 0.99006 0.0756515 -4 1 -1 
8599 6 0.0227942 0.990109 0.0939619 0 0 -2 
5992 6 0.672965 0.989665 0.0737091 0 3 1 
8274 5 0.303362 0.0847043 0.133646 -2 5 -1 
7339 5 0.323389 0.033277 0.0987223 3 -2 1 
7545 5 0.574362 0.045056 0.0806346 4 -3 3 
5742 6 0.706354 0.0922436 0.125903 0 1 2 
8288 5 0.254241 0.129187 0.103053 4 -1 1 
5138 5 0.119333 0.176954 0.093485 4 -1 0 
6732 5 0.246594 0.155675 0.107104 -1 1 4 
5826 6 0.423614 0.120696 0.111209 1 -4 2 
8447 6 0.737906 0.158454 0.0715879 -4 0 4 
7155 6 0.193802 0.157964 0.11405 -1 -3 1 
7278 6 0.780188 0.163095 0.0662823 0 2 -1 
6559 5 0.943075 0.15896 0.0862573 -4 -2 -5 
8878 5 0.785466 0.179067 0.074324 1 2 2 
5755 6 0.890281 0.261118 0.0673021 5 -1 1 
5083 6 0.085083 0.274385 0.125046 3 1 -1 
7432 5 0.472584 0.296391 0.086116 -8 2 6 
7392 5 0.559414 0.293789 0.115433 -1 -1 -1 
6119 5 0.654269 0.325916 0.0823082 -2 -2 -4 
5430 6 0.905333 0.324211 0.094879 -2 1 8 
6946 6 0.113244 0.344955 0.089823 1 -2 3 
7706 5 0.305828 0.31671 0.105356 0 3 1 
7252 5 0.500352 0.345575 0.11814 -1 7 0 
7846 6 0.549816 0.358266 0.141859 1 -1 0 
7688 6 0.552168 0.331217 0.123499 2 3 -2 
5978 5 0.59711 0.310523 0.0834192 -2 -1 2 
6462 5 0.898795 0.342512 0.0925612 0 5 -2 
6891 5 0.873604 0.381922 0.0796972 0 -1 4 
8489 6 0.873048 0.38143 0.126254 -6 0 0 
8780 5 0.0705581 0.395951 0.0902165 1 -2 2 
5431 5 0.290487 0.37436 0.0943222 3 2 -2 
6798 6 0.673322 0.416892 0.107433 0 3 2 
8040 6 0.829703 0.466335 0.0951572 -3 0 4 
6301 6 0.840193 0.46327 0.120151 2 2 6 
6744 5 0.922232 0.454049 0.0996261 -1 7 3 
6313 6 0.944944 0.472859 0.14682 3 -1 -2 
5472 6 0.363516 0.482067 0.11651 -1 1 -6 
5768 5 0.310355 0.518919 0.12641 0 5 1 
7245 5 0.606354 0.493776 0.10815 4 -1 3 
8607 6 0.644333 0.530033 0.102893 1 -4 2 
5327 6 0.403911 0.517469 0.127032 -1 0 -1 
6115 5 0.481259 0.536866 0.0564376 -3 2 -3 
6955 6 0.505427 0.570021 0.106062 1 -2 0 
7292 6 0.586854 0.537531 0.0852508 -5 2 -3 
6117 6 0.838773 0.521778 0.103922 -3 -6 3 
8584 6 0.97828 0.547971 0.136702 -3 -4 -1 
6184 5 0.304537 0.522329 0.0906541 -4 6 -3 
6898 6 0.400348 0.531761 0.0888257 2 -3 2 
8952 5 0.289715 0.563315 0.0856055 3 -4 0 
7476 6 0.300464 0.601626 0.0909166 0 -1 -1 
5101 5 0.857099 0.557901 0.0923541 2 -4 1 
6451 5 0.381101 0.613186 0.0825372 -4 0 4 
8466 6 0.458974 0.608106 0.122902 2 2 -3 
5913 5 0.235708 0.606091 0.0504673 0 2 8 
8142 6 0.149331 0.703436 0.118462 2 3 -2 
6198 6 0.335035 0.738866 0.119291 0 3 -2 
8893 6 0.0941259 0.753744 0.0986918 -5 -3 4 
8108 5 0.123634 0.79179 0.122702 1 -1 3 
6836 5 0.170746 0.776649 0.11023 0 4 6 
5605 6 0.212627 0.765355 0.0775387 4 1 -2 
5537 5 0.419864 0.75832 0.139744 3 1 0 
8774 6 0.602552 0.792936 0.0919495 0 -2 -1 
5722 6 0.66156 0.778803 0.0957482 0 2 2 
8090 6 0.733277 0.773808 0.0906562 2 -2 -1 
8789 6 0.0708505 0.802462 0.0867999 2 -3 -1 
5165 6 0.135915 0.826176 0.109615 6 0 -2 
8914 6 0.378706 0.809112 0.0825939 -1 -2 -1 
6615 5 0.540207 0.816831 0.091209 -3 1 3 
5778 5 0.703286 0.826025 0.107607 4 -3 0 
5293 6 0.0934011 0.954115 0.123916 -2 -6 -4 
7040 6 0.436388 0.904172 0.114655 4 5 1 
6210 5 0.30569 0.957673 0.0772244 -1 -4 1 
6375 6 0.553763 0.854706 0.111706 -7 3 -2 
5727 5 0.0975504 0.923275 0.0924597 -4 -7 -1 
8592 5 0.159945 0.915366 0.0884594 2 -1 2 
7319 6 0.250407 0.920862 0.0723069 3 -4 3 
5117 6 0.40831 0.934433 0.0934494 1 2 5 
5359 5 0.182022 0.977353 0.114138 3 3 -1 
5542 5 0.625696 0.959776 0.0780816 -5 0 -2 
6533 6 0.698088 0.0204463 0.0655661 1 1 3 
8514 5 0.147556 0.0359817 0.112315 2 -1 2 
6061 5 0.160195 0.0106945 0.182604 0 1 -1 
6772 6 0.563397 0.0470396 0.0816827 3 -2 4 
7512 6 0.394938 0.0366782 0.112692 0 0 0 
8537 6 0.626085 0.0646816 0.146197 0 3 -3 
7090 6 0.786291 0.00458219 0.139154 -1 2 2 
6260 5 0.825459 0.994142 0.123438 5 -4 0 
7937 6 0.914645 0.0483699 0.134672 2 4 -2 
6304 5 0.105676 0.0651573 0.148264 -3 2 1 
5085 6 0.657136 0.106721 0.0693645 1 6 -2 
6564 5 0.926863 0.0697665 0.108598 3 4 1 
7131 5 0.266845 0.0803186 0.112558 3 3 -1 
6069 6 0.457139 0.104089 0.143203 -2 -2 3 
7366 6 0.746993 0.0758609 0.0945785 5 -4 1 
5529 6 0.841672 0.124582 0.119935 1 0 0 
6271 5 0.977307 0.07164 0.105808 2 -2 2 
7578 5 0.0360196 0.117129 0.095549 3 -1 -1 
7164 5 0.556017 0.0893352 0.117179 -5 4 -4 
8720 5 0.709184 0.110177 0.108357 1 -2 -4 
7091 6 0.356753 0.204684 0.121167 2 5 4 
5888 6 0.749984 0.219742 0.120343 4 -6 4 
6240 6 0.982943 0.160677 0.100434 4 2 -2 
6478 6 0.295613 0.173256 0.159283 0 4 3 
8652 5 0.835572 0.176056 0.1159 -2 -7 2 
7943 5 0.274357 0.205057 0.121729 2 0 3 
5383 6 0.974538 0.205767 0.0979962 -1 1 -3 
8400 5 0.970832 0.17309 0.0980326 -5 3 0 
5738 6 0.291577 0.298637 0.0858103 -5 5 -2 
6855 5 0.0620357 0.260752 0.123652 -1 2 -2 
7788 6 0.45836 0.299815 0.0839267 3 -3 0 
8612 6 0.394031 0.273411 0.121962 2 3 0 
5225 6 0.327787 0.322528 0.119483 -2 -4 -2 
6971 5 0.295627 0.299529 0.12687 -2 -4 -1 
6136 5 0.45577 0.308827 0.102634 0 2 0 
8507 5 0.333404 0.327515 0.147684 -1 0 -1 
7481 5 0.782788 0.320899 0.135199 -2 -1 -2 
8803 5 0.0638187 0.362692 0.103162 4 -5 -2 
6415 5 0.484245 0.346781 0.147612 2 5 -9 
5456 6 0.312107 0.390746 0.100953 1 -2 4 
8682 5 0.168891 0.448581 0.126848 1 1 2 
8254 5 0.522353 0.463331 0.151111 -3 1 -7 
8479 5 0.395807 0.424473 0.148183 2 -1 3 
6342 6 0.693529 0.465297 0.142374 4 1 -3 
5245 5 0.44986 0.471838 0.161297 -2 -2 1 
6929 6 0.487847 0.480236 0.0926804 -2 5 4 
6553 5 0.584065 0.4557 0.145274 -2 -1 7 
5378 5 0.676147 0.497564 0.0963031 4 2 2 
7656 6 0.925598 0.437354 0.126829 3 -1 -1 
5226 5 0.148646 0.531498 0.116022 1 -1 1 
5795 6 0.291692 0.573461 0.0823953 3 -4 2 
8049 5 0.742154 0.568141 0.124189 3 -2 -1 
8696 6 0.354499 0.568871 0.124784 7 1 2 
8715 5 0.514883 0.554461 0.0879644 4 0 -5 
5055 5 0.526211 0.560008 0.148408 0 -2 1 
8978 5 0.756001 0.580934 0.1428 1 -6 -1 
5084 5 0.91283 0.561751 0.125574 -2 1 5 
6310 5 0.93882 0.55383 0.14011 -3 2 -3 
7644 5 0.604135 0.566877 0.133131 -5 -1 -5 
6386 6 0.953289 0.611517 0.113137 1 -1 4 
6295 5 0.937955 0.587723 0.093397 -4 0 0 
7061 5 0.116974 0.59088 0.128047 6 -3 2 
6703 5 0.889619 0.617251 0.11478 -1 2 -3 
7661 6 0.279708 0.690313 0.116913 2 -5 -3 
7960 6 0.360655 0.656193 0.109378 1 3 2 
7528 6 0.431837 0.672758 0.119515 1 2 -3 
6823 5 0.0405585 0.74359 0.127793 2 -1 1 
8304 5 0.220287 0.752726 0.108233 1 1 0 
7359 6 0.245063 0.758665 0.115418 1 -8 1 
5587 5 0.360659 0.804704 0.160373 4 -1 1 
7357 5 0.483846 0.761991 0.131706 4 -2 -6 
7869 5 0.67911 0.718879 0.146196 -2 -4 5 
6487 6 0.895782 0.764228 0.116876 -1 -1 -7 
7190 5 0.384274 0.799579 0.0848874 0 -1 1 
6014 6 0.581958 0.787221 0.138801 -4 -7 4 
7697 5 0.389707 0.786842 0.147491 0 -5 0 
5887 5 0.745158 0.820877 0.106993 1 0 -1 
8638 5 0.0251286 0.798328 0.128429 6 2 1 
7003 6 0.0742219 0.858079 0.128727 -1 0 -4 
5002 5 0.233863 0.851707 0.128461 4 2 -4 
6121 5 0.147876 0.88768 0.108709 0 -3 0 
6879 5 0.763858 0.848865 0.130502 -3 -1 -1 
7954 5 0.821634 0.864493 0.0960603 -2 0 1 
7092 5 0.40565 0.909135 0.130374 2 4 1 
6786 6 0.548076 0.893867 0.156232 -2 -1 -6 
7057 6 0.579498 0.903205 0.101613 -1 -2 2 
5131 6 0.170649 0.936767 0.140733 1 -1 -2 
5182 5 0.460725 0.946363 0.178195 1 1 0 
5787 6 0.501355 0.927306 0.170781 3 2 -1 
5852 5 0.717608 0.969563 0.141235 -1 -3 2 
6888 6 0.748254 0.971948 0.158658 2 0 3 
8072 6 0.717338 0.987119 0.0796299 1 0 -5 
5504 6 0.513616 0.0150824 0.129627 1 4 4 
5920 6 0.0249171 0.00194684 0.144499 7 -2 -2 
5764 6 0.276944 0.0692639 0.146252 2 -3 1 
7758 5 0.374429 0.0103848 0.14761 -4 -1 0 
5041 6 0.844948 0.0370569 0.138949 -5 1 3 
5432 6 0.825725 0.0250444 0.137043 3 -4 4 
7627 6 0.230108 0.0675356 0.119873 1 -5 0 
5334 5 0.123366 0.100346 0.147925 1 2 1 
5356 6 0.398147 0.0943093 0.189237 1 -1 -1 
8782 5 0.73286 0.0870008 0.128715 -6 -1 -1 
6532 5 0.900178 0.106061 0.184978 -3 -1 0 
7566 5 0.898123 0.099463 0.168887 -1 4 -2 
6811 6 0.145631 0.154175 0.158539 4 1 -4 
5363 6 0.18218 0.15688 0.137713 5 0 -1 
6543 6 0.820389 0.140591 0.109575 -1 -2 -3 
5331 6 0.131966 0.167533 0.16338 0 3 0 
7269 6 0.246154 0.204646 0.155848 2 1 0 
5237 6 0.0283897 0.274755 0.132571 -1 -1 2 
6405 5 0.364553 0.265742 0.171018 5 -1 -2 
8257 5 0.765825 0.261585 0.176394 5 2 -1 
5641 5 0.405645 0.276286 0.153951 -1 -3 3 
8571 6 0.397701 0.26958 0.146616 -2 -2 2 
7546 6 0.798649 0.284651 0.126974 -1 5 -2 
7964 6 0.820503 0.248226 0.166087 -3 0 6 
5338 5 0.251202 0.297421 0.13287 0 4 5 
6699 6 0.225602 0.281479 0.119172 -2 -1 1 
5786 6 0.733926 0.325475 0.163617 1 2 1 
8113 6 0.350742 0.382185 0.114738 -3 0 0 
8220 5 0.395866 0.405615 0.150425 0 1 -4 
7553 6 0.952555 0.391502 0.152204 -2 1 0 
6606 5 0.106375 0.460777 0.108321 -3 2 -2 
6720 5 0.286741 0.418886 0.168151 2 -1 2 
7547 5 0.287882 0.384398 0.119941 -2 1 0 
5501 5 0.326045 0.399116 0.148153 2 -3 -1 
6911 5 0.473854 0.423699 0.148236 -5 -1 1 
8920 5 0.676461 0.439964 0.138321 -5 -1 3 
7880 6 0.816212 0.406081 0.119494 1 2 3 
8726 5 0.885756 0.411209 0.166918 -4 1 4 
8154 6 0.374338 0.488178 0.185086 -2 -3 2 
6493 6 0.449153 0.487207 0.138447 1 1 0 
6590 6 0.530683 0.409084 0.186864 0 -2 -4 
8276 6 0.212468 0.423509 0.139048 5 1 -2 
6950 5 0.492421 0.475967 0.135223 1 1 5 
8144 6 0.218076 0.478344 0.127633 0 3 0 
5005 6 0.424485 0.470767 0.125619 6 1 -3 
7350 6 0.699834 0.498039 0.123681 -3 -4 4 
8788 5 0.196579 0.525692 0.126759 0 0 2 
5809 5 0.578791 0.548334 0.114843 0 -3 1 
7800 5 0.911116 0.520345 0.155156 5 4 2 
5526 5 0.89902 0.522601 0.137175 -3 2 2 
8943 5 0.0433371 0.570366 0.122633 2 2 0 
8627 5 0.213284 0.559575 0.187611 -1 -1 5 
6031 5 0.576435 0.587379 0.135683 3 4 2 
6854 5 0.0765261 0.573254 0.157343 0 -1 3 
8451 5 0.448361 0.590969 0.132491 -1 0 2 
8024 5 0.49739 0.584222 0.130295 -2 0 2 
8039 5 0.0328999 0.582087 0.107293 1 -4 -1 
8103 6 0.487085 0.581049 0.13259 1 0 2 
7839 6 0.510624 0.597345 0.16675 -7 -1 -3 
7373 6 0.153379 0.640021 0.12054 -4 -2 0 
5030 5 0.520638 0.593589 0.172184 -1 2 4 
6158 6 0.69956 0.599197 0.112689 1 -4 3 
7200 6 0.677931 0.632001 0.137713 3 4 8 
5773 5 0.255803 0.620841 0.158818 2 0 1 
5659 6 0.191535 0.676474 0.127827 -1 2 -1 
8977 6 0.386161 0.694391 0.148905 -2 -3 -1 
5075 5 0.810617 0.685779 0.132897 7 0 2 
5584 6 0.132666 0.748177 0.178933 1 0 -2 
5295 6 0.408153 0.728685 0.142573 -2 -2 0 
5023 6 0.726016 0.730793 0.140165 3 3 7 
7228 5 0.184798 0.777222 0.134655 5 2 -1 
8873 5 0.721749 0.766395 0.181359 3 1 9 
6534 6 0.755769 0.750098 0.120088 -6 -3 2 
5830 5 0.200268 0.740227 0.178042 -1 -4 2 
5710 6 0.327983 0.793835 0.14987 3 -5 -2 
5214 6 0.824387 0.791479 0.130438 1 3 -4 
5804 5 0.1548 0.735189 0.144138 -1 1 4 
6470 5 0.656077 0.832925 0.168007 -2 -1 -2 
7211 6 0.0741735 0.893665 0.166893 1 1 1 
5382 6 0.330807 0.894129 0.136473 0 0 -3 
7380 6 0.57889 0.86867 0.165788 2 -6 -1 
8084 5 0.271507 0.907606 0.123697 3 -1 -3 
8060 6 0.248333 0.970934 0.171402 -4 -3 -2 
5973 5 0.813525 0.977094 0.162941 -2 0 -2 
8303 5 0.0356862 0.0220813 0.213806 -1 2 2 
5369 5 0.583314 0.00610981 0.152994 2 -5 -1 
7882 5 0.729126 0.044891 0.131247 5 3 4 
8681 6 0.320241 0.0449641 0.177143 -1 0 -2 
6035 5 0.195261 0.0509845 0.172803 3 3 -1 
8101 6 0.423427 0.0538235 0.143904 1 2 -4 
5306 6 0.92616 0.0959453 0.169172 0 3 -2 
8203 6 0.503001 0.127087 0.186131 -4 1 1 
6846 5 0.827452 0.108904 0.161264 3 0 -4 
5078 5 0.143356 0.143247 0.135351 1 2 6 
8921 5 0.213702 0.146706 0.154715 2 3 1 
8552 5 0.204992 0.141009 0.186888 7 3 -3 
6183 5 0.651844 0.127883 0.187021 6 -1 3 
7433 6 0.525613 0.170737 0.159164 -4 4 3 
7295 6 0.0910273 0.188103 0.174602 -1 2 1 
8941 5 0.566708 0.210913 0.162592 -6 -1 1 
7007 6 0.90144 0.175875 0.203146 -1 -4 1 
8677 6 0.371982 0.259101 0.193761 4 2 0 
5517 6 0.380159 0.240088 0.176901 2 5 3 
8196 6 0.500762 0.221113 0.174414 2 1 2 
8669 5 0.833371 0.257615 0.181701 2 4 5 
5054 6 0.919952 0.236234 0.189599 1 -3 2 
8364 6 0.119223 0.239413 0.151474 2 0 -3 
5967 6 0.279172 0.275052 0.175947 0 0 5 
7879 5 0.572639 0.274845 0.157941 -1 5 1 
7463 5 0.469193 0.278957 0.180368 -2 6 2 
5726 5 0.862517 0.283422 0.166689 -1 2 2 
7601 5 0.0102066 0.32698 0.148553 0 0 4 
5340 6 0.827624 0.304757 0.166322 2 2 -1 
8218 5 0.0390216 0.404749 0.153995 -3 -1 3 
7941 6 0.240871 0.382999 0.15883 2 -7 -2 
5558 6 0.547296 0.396786 0.211263 -2 -2 1 
6807 6 0.676942 0.396493 0.163056 0 2 2 
8724 6 0.796549 0.383235 0.169733 -3 3 4 
8511 6 0.118593 0.416437 0.14418 2 -2 0 
7293 5 0.860199 0.415006 0.157016 0 0 0 
8769 5 0.298076 0.444381 0.157717 1 6 0 
8989 5 0.774805 0.432397 0.162234 -5 4 4 
8429 6 0.795648 0.418664 0.139714 -3 2 -1 
6873 6 0.354588 0.463616 0.149705 -3 -2 3 
7120 6 0.0914764 0.501961 0.177577 3 -3 -5 
8845 6 0.139398 0.441048 0.184805 3 2 0 
6520 5 0.926243 0.499561 0.181386 -1 -2 5 
8386 6 0.227804 0.478764 0.176733 0 1 -1 
6521 5 0.0819645 0.541275 0.204829 1 -3 3 
8165 6 0.270963 0.544429 0.180926 0 2 5 
5625 6 0.411842 0.575188 0.17382 0 6 3 
8567 6 0.88078 0.552446 0.212578 1 -2 4 
5932 6 0.740554 0.603447 0.150032 -2 -1 1 
6683 5 0.821768 0.616074 0.182631 -5 -5 -1 
6560 5 0.954492 0.578528 0.170312 2 -1 -3 
6018 6 0.978805 0.65454 0.15665 2 -2 -1 
6841 5 0.108497 0.592754 0.212919 -2 -1 -5 
8700 5 0.66424 0.628384 0.195866 -3 1 4 
6259 6 0.396693 0.675215 0.159165 -2 0 -1 
7961 6 0.746357 0.664565 0.179163 2 -4 2 
7978 5 0.691635 0.636703 0.155648 -4 0 -4 
5459 5 0.786595 0.678049 0.144509 -1 0 -2 
7239 5 0.184432 0.72708 0.231726 -3 -2 1 
6331 5 0.548386 0.707456 0.127215 2 3 0 
5287 5 0.00224463 0.71693 0.176986 -2 5 5 
8766 6 0.11757 0.748944 0.203251 -1 0 -2 
7805 6 0.323401 0.710917 0.203012 2 -1 5 
7709 6 0.65313 0.738932 0.163582 -3 1 -1 
7399 5 0.890759 0.719052 0.202086 -3 9 3 
5793 6 0.315664 0.73882 0.143216 3 2 0 
8971 6 0.558233 0.688476 0.153869 1 -1 3 
8662 6 0.986072 0.765276 0.183678 1 4 0 
5333 6 0.0912612 0.776006 0.160531 -1 5 -3 
6756 6 0.411352 0.776109 0.14398 4 0 -5 
8922 6 0.780047 0.737275 0.160149 1 -3 1 
6634 6 0.259113 0.77085 0.188865 2 1 2 
5374 6 0.440307 0.802457 0.177342 3 -3 -1 
7571 5 0.427075 0.820072 0.15504 -4 3 3 
7330 5 0.622876 0.77582 0.168783 -2 -2 4 
8367 6 0.408018 0.816566 0.177608 -2 -1 0 
8128 6 0.467527 0.798302 0.137497 -6 1 -3 
8475 5 0.554491 0.856273 0.143159 5 -3 4 
5919 5 0.562461 0.850211 0.164843 -1 5 -2 
6324 5 0.0695635 0.850213 0.163447 -1 0 2 
5463 5 0.583756 0.889346 0.166756 0 0 -7 
5102 5 0.721831 0.87071 0.173017 -3 2 -4 
5928 6 0.176967 0.897344 0.161283 -2 -3 0 
6245 5 0.401389 0.883168 0.233417 -1 -2 4 
7797 6 0.610372 0.876401 0.213581 -5 -1 0 
6639 5 0.788731 0.904249 0.173768 -3 5 3 
8550 5 0.333136 0.91934 0.153478 2 0 -1 
5342 6 0.468576 0.927134 0.167656 4 2 0 
8950 5 0.0938354 0.926652 0.147061 6 -2 -3 
5806 6 0.223937 0.981063 0.17114 1 0 -2 
5944 6 0.0680648 0.969005 0.157665 -1 0 -1 
7819 6 0.456559 0.947987 0.161724 5 3 5 
6465 6 0.489922 0.957052 0.193251 2 1 -2 
6130 5 0.524334 0.971125 0.179085 -6 3 2 
8577 6 0.677336 0.969734 0.157587 1 -1 -2 
7123 6 0.819826 0.989139 0.129869 1 2 2 
7173 6 0.882525 0.0163402 0.182512 2 -1 5 
6942 5 0.415287 0.0558622 0.211002 -3 0 4 
5663 6 0.491942 0.00426155 0.197818 -3 -2 3 
6998 5 0.685254 0.028768 0.189164 -4 2 0 
7303 6 0.628479 0.13885 0.163185 5 -1 4 
7415 6 0.70007 0.141074 0.126558 4 1 1 
7215 5 0.315628 0.112167 0.167929 4 -8 5 
5010 5 0.840497 0.140717 0.199926 -1 -5 1 
6796 5 -0.00155034 0.13636 0.179851 0 1 3 
6326 5 0.225609 0.14435 0.177304 3 1 3 
6655 5 0.321852 0.166837 0.179306 2 -1 -1 
5925 6 0.680712 0.182561 0.174902 1 -1 3 
6870 6 0.0557124 0.174617 0.224591 3 2 0 
6016 6 0.384058 0.189686 0.205242 3 5 5 
8055 5 0.371651 0.194193 0.191642 3 4 -1 
8440 6 0.699625 0.157211 0.193079 -3 -2 -2 
7849 5 0.0424718 0.203188 0.153711 4 0 1 
6434 6 0.47882 0.192439 0.193029 3 -5 -1 
7825 6 0.521455 0.159346 0.205358 -4 9 -3 
8535 5 0.582932 0.226546 0.178241 0 4 0 
8425 6 0.180857 0.28547 0.204185 0 -1 -1 
8580 5 0.177693 0.205426 0.149603 0 -1 1 
7105 6 0.832304 0.29558 0.161416 -1 -1 4 
7907 5 0.723545 0.347042 0.176969 -5 0 1 
7927 6 0.914852 0.356509 0.165271 1 1 -3 
7180 6 0.93498 0.392834 0.19753 -6 0 -7 
6625 6 0.448255 0.39896 0.14889 -2 2 -3 
5266 6 0.646087 0.404833 0.121065 1 -2 2 
6587 6 0.625157 0.382892 0.200001 3 2 -1 
8776 6 0.475327 0.447418 0.182871 -1 2 -3 
8221 6 0.832207 0.422221 0.185806 -1 -1 4 
7111 6 0.192249 0.458092 0.184087 3 -3 1 
5802 5 0.185425 0.473947 0.188412 1 3 -2 
5682 6 0.464974 0.439875 0.147428 2 0 3 
6904 6 0.61347 0.48153 0.181685 -2 -2 1 
5152 6 0.24921 0.524245 0.192597 1 -2 4 
6661 5 0.644468 0.508 0.177727 3 -8 -1 
7078 6 0.100755 0.57127 0.167137 1 4 -3 
5986 6 0.234429 0.554679 0.195952 1 -4 1 
7426 5 0.414733 0.535511 0.182818 -2 1 -2 
7949 5 0.595769 0.518947 0.214868 1 -2 -1 
7834 6 0.210814 0.583548 0.185232 -2 1 0 