ITEM: TIMESTEP
20000000
ITEM: NUMBER OF ATOMS
9000
ITEM: BOX BOUNDS pp pp pp
-75 75
-75 75
-75 75
ITEM: ATOMS id type xs ys zs ix iy iz 
7017 5 0.181349 0.968896 0.0288496 -2 5 -1 
6605 6 0.247015 0.0318479 0.998567 4 1 -1 
7869 6 0.0636948 0.0497859 0.0188608 2 4 3 
7501 6 0.314968 0.035178 0.041305 2 1 3 
6818 6 0.70151 0.052855 0.0098988 -3 1 -1 
8456 6 0.52936 0.0722141 0.996922 3 0 0 
6828 6 0.995416 0.0674917 0.957596 7 -3 -2 
7077 6 0.0371042 0.0893053 0.996565 3 -2 0 
8576 6 0.518212 0.129178 0.0255651 2 -5 5 
7925 5 0.528701 0.108509 0.00459903 -2 -7 -1 
8536 6 0.166791 0.0902712 0.0066897 -2 -6 3 
7642 6 0.214253 0.105361 0.988823 3 1 0 
7138 6 0.493384 0.14239 0.974271 2 2 -1 
6540 6 0.560531 0.105509 0.0362332 -3 -2 7 
5077 5 0.0140247 0.11498 0.0522272 4 0 -4 
7357 6 0.534789 0.157148 0.0232736 4 -1 1 
7214 6 0.302309 0.173074 0.0546903 -5 1 2 
5535 5 0.170958 0.215582 0.026953 0 4 2 
6619 5 0.61161 0.202919 0.0254059 -1 -5 5 
5913 6 0.573266 0.266006 0.0342517 1 -4 2 
8948 5 0.805794 0.269763 0.0312687 1 0 -1 
6814 6 0.310645 0.323941 0.00547669 0 4 1 
5187 5 0.420703 0.272497 0.0283987 -3 1 -3 
8552 6 0.680567 0.317982 0.00225844 -3 3 1 
5910 6 0.544889 0.332106 0.0340042 3 3 -2 
7859 5 0.0245863 0.342586 0.982084 2 2 2 
6012 5 0.874669 0.381587 0.0149621 1 -4 2 
5570 6 0.0273265 0.388413 0.0144373 -1 0 -6 
7926 5 0.130377 0.450965 0.994618 3 7 0 
7116 6 0.20235 0.387206 0.0359299 1 -1 -2 
6891 5 0.711419 0.442545 0.996384 0 5 2 
5875 6 0.767828 0.403366 0.996544 -4 -3 3 
5990 5 0.575649 0.402564 0.0260042 -3 -3 1 
7836 6 0.120032 0.452654 0.0508296 4 1 -1 
7513 6 0.00984595 0.478225 0.0354125 1 1 0 
7153 6 0.286945 0.488802 0.0342339 -3 0 2 
8662 6 0.98031 0.534265 0.0546886 1 1 0 
5108 5 0.508097 0.552267 0.0286603 -6 1 2 
7930 6 0.463043 0.565696 0.0167842 6 2 -1 
6803 5 0.595047 0.563226 0.0307123 -1 -5 5 
8752 5 0.848363 0.596399 0.99226 -5 -2 5 
7801 5 0.982519 0.593827 0.995217 1 -1 -2 
6573 6 0.164792 0.615263 0.00584104 -2 1 -4 
6851 5 0.523503 0.640452 0.99626 -2 -3 2 
5107 6 0.566579 0.638022 0.000912533 -1 0 -1 
5673 6 0.643419 0.675613 0.00351281 -1 5 2 
5827 6 0.906544 0.663049 0.00293288 -5 -4 -2 
6127 6 0.745773 0.691876 0.0234868 0 5 -2 
7059 5 0.82551 0.685378 -0.000657221 1 -4 4 
8017 5 0.153917 0.780681 0.0363138 0 -4 -2 
6967 5 0.588777 0.826315 -3.37924e-05 2 -1 1 
5163 6 0.755003 0.719764 0.985816 1 1 0 
7316 6 0.478996 0.785845 0.983624 2 3 -2 
5199 5 0.809487 0.772069 0.0124615 -2 2 -1 
5683 6 0.911341 0.80623 0.0763526 1 -2 0 
5907 5 0.938181 0.812384 0.0421493 2 4 -2 
7290 6 0.0518628 0.837581 0.00660698 3 3 1 
7361 6 0.161035 0.835378 0.988154 0 -7 1 
7234 6 0.686607 0.822196 0.0214647 1 -4 2 
5509 5 0.0595177 0.864203 0.0304016 2 1 3 
5981 6 0.574515 0.86786 0.996022 -1 0 0 
8721 6 0.592478 0.882207 0.0270151 -1 -2 0 
6893 6 0.0354738 0.968517 0.0123285 2 -2 2 
6497 6 0.183418 0.91783 0.00995077 2 -2 4 
6153 6 0.606397 0.944196 0.977299 3 -4 -3 
8258 6 0.696624 0.936707 0.993249 -1 -2 -3 
8029 5 0.62061 0.963348 0.988649 0 1 1 
6694 5 0.445026 0.982188 0.995891 -1 0 -5 
5669 5 0.521551 0.980025 0.0187558 0 -3 4 
6169 6 0.234485 0.00225214 0.0575831 0 4 3 
8415 5 0.118917 0.0330948 0.998952 2 1 1 
6460 6 0.373505 0.0322069 0.0449326 0 0 -2 
5630 6 0.766522 0.00704966 0.0471018 3 3 -1 
8551 5 0.891134 0.0351688 0.0683032 3 -1 3 
5154 6 0.0715855 0.0342229 0.0233034 4 -4 -3 
8003 5 0.346947 0.0480565 0.995775 1 -5 1 
8256 6 0.649155 0.047212 0.026132 -2 2 -1 
5814 6 0.776961 0.0679149 0.0529188 -2 2 1 
5992 5 0.733035 0.0652277 0.0553193 -1 -2 -4 
7106 5 0.275566 0.0792847 0.0506645 -2 -2 4 
8028 5 0.57881 0.0845497 0.0418078 -1 2 4 
6299 6 0.8131 0.0910973 0.984634 0 4 0 
7612 6 0.800154 0.117857 0.0654106 0 3 -2 
6875 5 0.834045 0.101951 0.0450851 -4 -1 3 
5647 6 0.915629 0.119872 0.979447 -1 0 -2 
7430 6 0.449527 0.143354 0.031626 -2 1 4 
6799 6 0.713147 0.142074 0.0299161 1 -4 1 
6091 6 0.134621 0.181895 0.0550105 1 4 2 
7020 5 0.298306 0.194269 0.00550158 -3 -1 0 
5995 5 0.0290547 0.209063 0.0117665 -3 0 -1 
6762 5 0.103058 0.198148 0.0803942 0 -5 0 
7947 6 0.0970208 0.172417 0.0313771 3 0 0 
5692 5 0.624185 0.210812 0.0241683 0 -3 -1 
7483 5 0.954944 0.188686 0.0249855 -5 0 1 
6699 6 0.49959 0.249545 0.00719517 0 2 1 
5904 6 0.709021 0.208762 0.0099142 2 -1 -1 
6720 5 0.851758 0.229212 0.0368126 -2 0 -2 
8063 6 0.61955 0.249969 0.0167532 0 -1 6 
6349 6 0.579987 0.288858 0.0527209 -5 0 2 
5974 6 0.115294 0.229689 0.039824 0 2 -3 
6551 6 0.150236 0.244058 0.0143049 5 -3 3 
7334 6 0.576894 0.274139 0.0312679 -3 0 4 
8210 5 0.237911 0.319789 0.0450592 1 1 2 
7583 5 0.232352 0.308908 0.0354795 1 1 5 
6482 6 0.498931 0.280815 0.0155108 1 -4 3 
8953 6 0.160408 0.308124 0.0764117 -4 -1 3 
6353 5 0.30408 0.304295 0.056986 -5 1 -1 
5371 5 0.529715 0.334711 0.0241421 5 0 0 
6496 6 0.705018 0.336865 0.118779 -2 5 0 
5954 5 0.0043899 0.358502 0.0354684 0 -3 1 
8763 6 0.255613 0.348595 0.0492199 -2 5 1 
8230 5 0.377226 0.356826 0.00607066 5 0 2 
7107 6 0.392305 0.368939 0.070106 -3 2 0 
5511 6 0.6521 0.366115 0.0233982 0 -1 0 
5109 6 0.662038 0.406797 0.0461447 -2 1 -3 
6812 5 0.691892 0.417785 0.0160347 -2 6 2 
6859 5 0.658241 0.401743 0.0562102 -3 0 0 
8911 6 0.744337 0.373883 0.0744708 -3 -2 1 
8967 5 0.160234 0.375547 0.0439312 -2 5 -4 
8373 6 0.761093 0.406029 0.0228932 -3 -5 4 
8696 5 0.475893 0.44572 0.0623477 3 1 3 
5730 5 0.157556 0.483649 0.0309762 1 3 1 
8027 6 0.251003 0.472658 0.0592204 0 -5 -2 
7821 5 0.40735 0.410305 0.0407397 -2 3 1 
6087 6 0.506651 0.475259 0.0438711 2 1 0 
5665 5 0.421341 0.446529 0.00642113 4 -2 -2 
8775 6 0.562007 0.477019 0.0508383 1 4 1 
8594 6 0.79425 0.458165 0.041723 -2 0 -3 
5476 5 0.122864 0.535888 0.0310238 7 -2 -1 
5644 6 0.257163 0.468563 0.0542808 -5 0 -3 
8685 6 0.632929 0.525686 0.0263231 1 1 1 
8300 6 0.777726 0.48866 0.0527794 2 -5 1 
5183 5 0.354929 0.517115 0.986995 4 3 -4 
6693 5 0.914297 0.512798 0.0177269 2 4 1 
7235 6 0.123397 0.525187 0.0221727 0 0 3 
7965 6 0.456931 0.542489 0.0807128 4 -3 2 
8053 5 0.071764 0.563082 0.0122812 -2 1 0 
7924 6 0.10667 0.577366 0.0523614 -3 4 -1 
7580 5 0.384756 0.569892 0.0349678 -3 0 -5 
5260 5 0.0179117 0.575748 0.0219338 -2 -3 -1 
5449 6 0.0100486 0.608721 0.0279108 3 3 0 
8991 6 0.694521 0.642067 0.0307746 2 -1 2 
8409 5 0.321818 0.682514 0.0380092 4 4 -4 
6854 6 0.565852 0.665589 0.0425435 -1 2 1 
7122 6 0.923152 0.655612 0.0142391 1 -3 1 
8622 5 0.0520032 0.649594 0.0354827 -2 1 3 
6601 6 0.287135 0.671241 0.0298885 -2 -5 3 
6149 5 0.469299 0.767391 0.0173005 -1 -2 0 
5612 6 0.169253 0.767704 0.020944 3 -2 1 
5650 5 0.491037 0.738145 0.046286 -2 2 4 
7816 5 0.0828861 0.78468 0.0341354 6 -6 4 
8785 6 0.494241 0.814309 0.0349595 -3 -3 -4 
7345 5 0.425062 0.817161 0.00722272 0 1 3 
8205 6 0.0860426 0.838201 0.052844 0 4 -2 
6823 6 0.558043 0.84875 0.0783923 3 -3 2 
8988 6 0.218459 0.900697 0.0321696 -3 -2 -1 
5837 6 0.766304 0.8515 0.0602084 -1 -2 1 
5948 6 0.866165 0.87805 0.0583624 1 -6 2 
5149 6 0.228964 0.885298 0.0229144 3 -1 -1 
5296 6 0.339454 0.87228 0.0388884 -2 2 2 
5557 6 0.47083 0.923603 0.0356886 4 -2 0 
5565 5 0.707211 0.901988 0.0361125 0 -4 -2 
7598 5 0.263515 0.887277 0.032826 0 3 -2 
5251 5 0.467946 0.941947 0.0133993 2 -1 0 
8567 6 0.820431 0.921138 0.0251885 -2 0 2 
8236 5 0.46399 0.929579 0.0649826 0 -4 1 
7186 5 0.5929 0.963436 0.003965 3 0 5 
7037 5 0.433055 0.00686798 0.016116 3 3 0 
5977 6 0.983129 0.960727 0.0130345 2 -3 -5 
7196 6 0.347387 0.977311 0.0469481 0 0 5 
5004 5 0.77509 0.985056 0.0446966 -4 -3 -1 
7447 6 0.768843 0.0511584 0.0677266 -4 2 1 
5298 6 0.26083 0.0636695 0.0790825 -3 0 0 
7366 5 0.0121421 0.0670693 0.0592833 -2 4 -3 
7637 6 0.435182 0.111297 0.0569927 -2 -2 -2 
7338 5 0.446507 0.102919 0.0581999 2 2 0 
8076 6 0.814507 0.134789 0.0719789 6 -2 -3 
5932 6 0.419286 0.195578 0.0394306 -4 -2 3 
5417 6 0.499868 0.159398 0.041132 1 -2 2 
5261 6 0.770894 0.166033 0.0455755 2 2 2 
8872 5 0.79697 0.180173 0.0808171 1 2 -3 
8275 6 0.937716 0.162926 0.0238383 -2 -1 -2 
6005 5 0.189488 0.200241 0.0520743 0 0 -4 
7148 5 0.625377 0.189709 0.0622385 -2 -6 -3 
8746 6 0.899362 0.22331 0.0677732 -4 1 -1 
6471 6 0.230481 0.270436 0.0340588 2 -5 1 
5962 5 0.22914 0.307961 0.0840126 2 4 -1 
6725 6 0.870367 0.294103 0.0933305 -3 -1 -5 
6555 6 0.986937 0.306586 0.0817692 -6 0 0 
8744 6 0.106552 0.356153 0.0502697 8 -5 -2 
5257 6 0.0955376 0.267039 0.0446837 0 4 3 
8476 6 0.8398 0.288747 0.0613161 2 0 5 
6090 5 0.975685 0.29699 0.0745895 1 2 5 
7050 5 0.284859 0.357283 0.0630592 -4 1 -2 
8097 5 0.565307 0.346268 0.0234111 3 6 4 
7457 6 0.016554 0.378333 0.0607075 -4 2 2 
7682 6 0.20695 0.354055 0.0488718 -4 0 -2 
7434 6 0.474749 0.349574 0.0826008 3 6 4 
5701 5 0.541705 0.381428 0.0360446 -1 -2 3 
6902 5 0.564284 0.393916 0.0792514 2 3 -1 
6221 5 0.967109 0.377763 0.0663967 -6 2 -1 
8103 6 0.679201 0.416834 0.0459892 -1 4 1 
8474 6 0.766001 0.401222 0.0606502 -4 4 3 
7195 5 0.305864 0.405624 0.0711779 6 0 -3 
7831 6 0.405901 0.439406 0.0524485 1 -1 0 
5455 5 0.756287 0.449065 0.0817556 -3 1 0 
5518 6 0.973718 0.459394 0.0547706 -3 1 -3 
6527 6 0.410037 0.50862 0.0574582 -1 -4 1 
7490 6 0.496669 0.467353 0.0291966 1 3 3 
6319 6 0.885263 0.477961 0.0948169 0 3 0 
7715 5 0.534056 0.543201 0.0675228 -7 7 0 
8605 5 0.635624 0.506132 0.0765867 0 -1 1 
7584 5 0.720359 0.528428 0.0523506 -2 -3 0 
8183 6 0.833672 0.597778 0.0601789 1 3 0 
8759 5 0.420563 0.600452 0.040554 0 -2 -1 
7784 5 0.142775 0.67069 0.0570741 3 1 -3 
5276 6 0.279018 0.648189 0.0436799 2 0 -2 
5493 6 0.954482 0.638588 0.0655505 -1 -3 -2 
7237 5 0.76872 0.664062 0.00613156 0 3 -2 
6057 6 0.867878 0.688233 0.116211 -2 -1 -3 
5789 5 0.863555 0.677641 0.0591552 1 2 -2 
7863 5 0.383933 0.725334 0.0654776 2 1 -2 
7982 6 0.983997 0.722609 0.0356114 -1 3 -2 
6660 6 0.431345 0.807626 0.0333832 2 -4 2 
5510 6 0.705601 0.765836 0.0434148 1 -2 -2 
6682 5 0.134848 0.834929 0.0224074 1 -2 0 
5969 6 0.370746 0.793569 0.0775846 1 -3 -5 
5799 6 0.38253 0.830698 0.0807029 2 -4 1 
5805 5 0.986772 0.822633 0.0845301 -2 -1 -4 
8332 6 0.162177 0.834016 0.0518388 0 1 2 
5381 5 0.439305 0.850917 0.0699786 4 -4 3 
5182 6 0.901609 0.825147 0.0572244 -1 1 1 
5155 6 0.170612 0.841147 0.0636279 -3 2 3 
7479 6 0.661632 0.885059 0.0361066 -3 -1 6 
7991 5 0.314234 0.900661 0.0764159 -2 0 -1 
7783 6 0.293927 0.865531 0.0589748 -3 -5 -4 
6239 6 0.532912 0.886486 0.0669288 0 3 -3 
7753 5 0.538768 0.877236 0.0759099 -2 -1 3 
7273 6 0.797078 0.890246 0.0287328 1 1 -1 
8239 6 0.124806 0.911873 0.0357732 5 -5 3 
8839 5 0.526004 0.971162 0.0417718 -5 -5 -2 
6203 6 0.5915 0.969187 0.0505115 -2 -1 -1 
8326 5 0.586237 0.960079 0.0911525 2 -3 4 
5284 5 0.241369 0.989853 0.0517565 3 -3 4 
7000 6 0.262751 0.968709 0.0722613 1 1 0 
8310 6 0.396534 0.959958 0.0431262 1 2 -2 
7601 5 0.385809 0.975891 0.0704705 0 1 1 
8070 6 0.954042 0.00731794 0.0735527 -2 2 0 
8365 5 0.08927 0.0831178 0.0652354 -1 -5 1 
6680 6 0.24321 0.0399784 0.055478 2 1 4 
6339 6 0.265612 0.993761 0.0792217 -2 -4 7 
6459 5 0.521306 0.0740661 0.0665056 -1 3 -3 
8371 6 0.638599 0.0451917 0.0811285 4 2 4 
5380 6 0.309118 0.107793 0.0839371 1 -2 -2 
8734 6 0.617103 0.0611999 0.103652 3 -1 0 
8117 6 0.242299 0.0625246 0.0964818 -5 -4 1 
7667 6 0.859202 0.0693497 0.120136 2 2 1 
7322 6 0.143191 0.141173 0.0701368 -4 -4 -1 
6936 5 0.988374 0.128176 0.0847566 -4 -1 -5 
7754 6 0.748997 0.159962 0.0551355 3 1 -1 
5492 5 0.0515483 0.19316 0.0687322 0 2 1 
7664 5 0.949849 0.122644 0.087843 3 1 -1 
7641 6 0.540619 0.15922 0.101968 2 3 -2 
8755 6 0.221903 0.255583 0.120961 0 1 2 
5998 5 0.369241 0.269345 0.0747081 0 3 1 
7369 5 0.69711 0.284466 0.0453653 2 5 0 
5668 6 0.253022 0.247981 0.065548 -2 1 2 
8878 5 0.515514 0.316851 0.0225785 -3 -4 0 
7950 6 0.616288 0.305908 0.0741616 -4 6 3 
7416 5 0.0109299 0.293768 0.0947771 6 -1 7 
6118 5 0.418432 0.349438 0.070331 -2 -3 1 
7740 6 0.552752 0.312242 0.07901 2 -2 0 
5060 6 0.738289 0.346857 0.0798975 3 0 -5 
7298 6 0.921974 0.324833 0.0746217 1 -1 -5 
7990 6 0.458148 0.347158 0.0494286 3 0 -2 
8606 6 0.484525 0.339831 0.059798 0 3 2 
7308 5 0.846479 0.364041 0.0583153 -3 -2 3 
5886 5 0.450536 0.374297 0.0628256 1 -1 2 
5443 5 0.607165 0.443771 0.0909649 -2 -2 -2 
7719 6 0.931272 0.393415 0.0717511 1 1 -1 
5777 5 0.325441 0.430593 0.0679084 3 -4 -2 
7605 6 0.860759 0.454792 0.078017 4 -6 4 
5994 5 0.0997818 0.44775 0.0568998 2 -6 2 
5320 6 0.0281849 0.484012 0.0651794 -1 1 0 
7255 5 0.156214 0.471901 0.121065 1 2 1 
7985 5 0.298621 0.514095 0.034796 -2 4 3 
5231 5 0.773593 0.478205 0.0863461 -2 3 -1 
5087 5 0.0253573 0.539387 0.0655074 1 0 1 
5549 5 0.23103 0.509559 0.087712 2 -3 2 
8492 5 0.494522 0.520654 0.0554333 4 0 -2 
7300 5 0.253965 0.559406 0.0761303 8 -4 -2 
7264 5 0.824989 0.588066 0.10793 0 1 -1 
8403 6 0.162785 0.596261 0.0619415 0 -1 -2 
6208 5 0.946448 0.560163 0.0925159 5 2 -1 
6134 6 0.973308 0.583998 0.0704273 -1 1 -6 
6469 6 0.598803 0.696861 0.0517616 -1 -4 -2 
6668 6 0.788177 0.650838 0.0599033 1 4 2 
8693 6 0.221209 0.706993 0.0589987 1 0 1 
6579 6 0.00526935 0.678915 0.0850001 1 -3 -5 
7080 6 0.994135 0.721204 0.0985474 -4 -2 2 
6485 6 0.38015 0.7606 0.0885645 4 -5 1 
8760 5 0.918913 0.734734 0.0924558 -1 2 2 
8930 5 0.573291 0.770936 0.0475328 -1 -2 0 
5426 5 0.0984715 0.818749 0.0734731 0 1 7 
8817 5 0.564129 0.763563 0.0548579 2 0 -2 
7276 6 0.630139 0.771064 0.0635194 1 5 3 
7193 6 0.823696 0.846812 0.0347624 -3 -2 -2 
7250 6 0.537325 0.859988 0.0491588 4 0 0 
6267 6 0.671186 0.952532 0.0509847 1 0 1 
7086 6 0.850169 0.923869 0.128972 -1 -5 0 
7194 5 0.257507 0.0142064 0.101069 -2 -3 2 
8676 5 0.802836 0.0330431 0.116358 -1 6 -1 
5141 5 0.122705 0.0321649 0.0781914 -1 -1 6 
7087 5 0.771437 0.0595336 0.151821 -1 -3 -2 
8808 6 0.876856 0.0310989 0.109761 3 -1 1 
6315 6 0.209667 0.0795911 0.113598 -4 -1 0 
6032 5 0.597024 0.0213401 0.0977892 8 -4 3 
6292 5 0.354819 0.0524747 0.129872 -1 -3 -1 
7706 6 0.457047 0.0903603 0.152538 -1 3 2 
8351 5 0.995288 0.0780222 0.101301 -3 7 1 
5620 5 0.308721 0.0784322 0.108164 1 -1 2 
7995 5 0.343981 0.081624 0.0734744 -2 2 1 
5870 6 0.43426 0.1183 0.120905 -2 -1 -1 
6713 6 0.477227 0.115947 0.072805 0 0 -1 
8461 6 0.785725 0.121807 0.0898562 1 4 3 
8972 5 0.943442 0.165297 0.147481 4 7 2 
6666 6 0.633661 0.15316 0.0836616 -5 1 -1 
6696 6 0.32688 0.149449 0.109659 -1 -2 2 
8511 6 0.330551 0.217605 0.0780233 2 0 -1 
5809 6 0.564436 0.142146 0.111217 3 3 1 
8390 5 0.765884 0.148267 0.0813352 5 4 -1 
5705 5 0.980475 0.209563 0.0855669 4 0 -2 
6780 6 0.170655 0.214318 0.0747387 2 -2 1 
6708 6 0.413054 0.248418 0.0763949 -5 -2 -1 
8340 6 0.766715 0.243547 0.110162 -4 -5 4 
6464 6 0.826777 0.313666 0.117508 6 0 -5 
7133 6 0.854924 0.294367 0.0870717 -6 1 0 
6730 5 0.888436 0.301661 0.11274 -7 2 -1 
6356 6 0.139107 0.330571 0.0860103 -1 -2 1 
5808 6 0.271702 0.28676 0.0853116 3 3 8 
6281 5 0.381358 0.42788 0.103512 1 -4 3 
8335 6 0.601267 0.432856 0.117331 7 0 2 
7081 6 0.723977 0.385121 0.155269 2 -2 2 
5783 6 0.997211 0.369555 0.109002 2 2 4 
6223 5 0.133246 0.439329 0.14099 -5 -2 1 
8802 5 0.369903 0.428697 0.0966635 -1 3 -4 
7239 5 0.913423 0.429363 0.116528 1 1 -2 
8004 5 0.975467 0.423111 0.0894492 -3 0 -1 
5824 5 0.779866 0.457803 0.0935491 -2 -2 4 
7639 6 0.00904156 0.468418 0.122971 2 -3 2 
5778 6 0.623379 0.496606 0.13012 5 -2 5 
6195 6 0.729066 0.483611 0.0803447 3 -3 -1 
7377 6 0.925982 0.47223 0.114975 2 5 -1 
6013 5 0.845085 0.496607 0.0811896 4 3 0 
6742 5 0.0220711 0.603619 0.0901407 1 -3 1 
6635 6 0.296144 0.539534 0.0766343 -1 1 -2 
6724 5 0.696996 0.552772 0.0990932 9 -5 1 
7351 5 0.551224 0.534678 0.0989922 0 -5 -3 
6122 5 0.816473 0.566587 0.109841 0 2 4 
6138 5 0.885115 0.581115 0.137757 0 -1 2 
5366 6 0.0736357 0.596295 0.0835057 2 0 1 
5230 5 0.324135 0.611104 0.100363 -2 -1 3 
8866 6 0.336731 0.585939 0.114612 1 2 2 
7066 5 0.917244 0.617118 0.104326 -6 3 0 
5339 6 0.331347 0.656239 0.0968862 6 -4 -4 
6258 6 0.257963 0.713154 0.10192 0 6 -1 
8555 5 0.468132 0.667359 0.0890101 -3 -2 0 
5198 6 0.86068 0.664938 0.0698048 1 -2 -5 
6475 6 0.822388 0.712625 0.105823 -1 -2 -1 
7787 6 0.852397 0.689664 0.119821 -10 -2 4 
6657 6 0.389725 0.720545 0.102132 1 -2 1 
5794 6 0.396606 0.801725 0.119125 2 1 1 
8240 5 0.356083 0.769186 0.0892131 4 -3 -3 
7356 5 0.378341 0.812433 0.0630769 -3 5 -2 
8742 6 0.942113 0.774638 0.129172 -1 1 4 
8129 5 0.943 0.757757 0.12681 -7 4 -4 
6821 5 0.064539 0.801691 0.0951328 0 -1 -2 
6446 5 0.254219 0.839959 0.0748233 1 1 3 
5264 6 0.0188433 0.867715 0.0985506 -1 1 0 
7123 6 0.736886 0.81511 0.0937354 -3 2 1 
6916 6 0.285333 0.91827 0.115851 1 -3 2 
5693 5 0.699294 0.869532 0.112867 -2 -3 -3 
8139 6 0.844469 0.891766 0.102938 -5 -2 4 
7383 6 0.131692 0.910732 0.0764886 2 2 1 
5209 5 0.460562 0.913986 0.15062 -4 4 0 
5126 6 0.537613 0.923912 0.144443 0 3 4 
6664 6 0.543345 0.931298 0.115507 1 -3 3 
6043 5 0.689506 0.951673 0.106812 1 0 -3 
8716 5 0.358489 0.947461 0.107352 -2 -3 0 
7517 6 0.707886 0.988435 0.092573 -1 2 -1 
5641 6 0.225563 0.999598 0.0862591 0 -1 -3 
6467 6 0.301735 0.97136 0.114997 0 -1 -4 
5603 5 0.485834 0.00490419 0.107523 -1 -4 0 
5605 5 0.837396 0.982527 0.0720099 4 -1 -6 
5145 6 0.0318591 0.012469 0.178807 1 0 2 
7166 6 0.994902 0.0102021 0.0900484 0 -4 3 
8674 5 0.0627358 0.980592 0.131239 -1 -2 4 
7578 6 0.0620902 0.996972 0.121455 -2 -1 -1 
7977 6 0.301126 0.0165866 0.0974802 2 1 1 
8283 6 0.419884 0.0130672 0.111924 -3 -4 3 
7178 5 0.920348 0.0164585 0.168239 -1 3 1 
5737 5 0.996353 0.0381059 0.122607 -2 4 -3 
5290 6 0.233559 0.0737411 0.0982712 -3 1 2 
7415 6 0.425572 0.0371238 0.132604 2 -2 0 
8099 6 0.233483 0.0460946 0.130459 -3 1 2 
6125 5 0.97371 0.0610342 0.122941 -4 1 1 
6959 5 0.882945 0.090184 0.123952 -5 3 1 
5671 6 0.700182 0.103921 0.103523 2 6 2 
8489 5 0.719839 0.131807 0.147277 3 0 2 
8184 6 0.908943 0.125874 0.107241 2 3 2 
7424 6 0.288526 0.142924 0.152435 -2 -5 -1 
8480 5 0.0124435 0.168182 0.103693 3 0 -2 
6434 6 0.323366 0.219221 0.119284 0 -2 0 
7267 5 0.512183 0.147359 0.14131 5 1 3 
6748 6 0.508448 0.16465 0.111399 -1 7 0 
7557 5 0.978451 0.183192 0.119406 0 -2 -2 
8538 6 0.171126 0.249663 0.116033 -1 -2 -2 
5746 5 0.343244 0.208913 0.143903 -2 -1 5 
5576 6 0.47674 0.230361 0.16808 -2 -3 3 
8977 5 0.572709 0.186478 0.10532 -2 3 2 
5378 5 0.573075 0.201869 0.115501 5 -3 0 
8509 6 0.857009 0.21346 0.13796 -5 -1 7 
5478 5 0.0675875 0.225483 0.146122 1 0 1 
6317 6 0.0238495 0.235765 0.0899901 5 0 -5 
7804 6 0.307979 0.25213 0.143147 0 -1 0 
5775 6 0.669912 0.26679 0.138963 3 0 -3 
6411 6 0.00970471 0.306664 0.159319 -3 1 -5 
6857 6 0.0906427 0.322631 0.146952 3 4 -1 
5344 6 0.724297 0.313487 0.126923 -2 -2 -1 
7582 6 0.247328 0.362616 0.107114 4 4 1 
7752 6 0.266195 0.375573 0.154705 1 4 2 
6350 5 0.325592 0.3052 0.108784 -1 1 6 
6827 6 0.690274 0.300763 0.164923 -1 4 0 
8929 6 0.565039 0.377035 0.100574 -1 1 -3 
5408 6 0.833088 0.414512 0.129892 1 6 2 
8677 5 0.0151356 0.345148 0.11568 3 -1 2 
7721 6 0.773454 0.371282 0.133982 -1 0 5 
6977 5 0.934703 0.407549 0.113304 0 0 -1 
8108 6 0.3384 0.399896 0.096061 0 5 2 
8608 6 0.540625 0.424431 0.159415 1 -3 4 
7352 6 0.823282 0.394386 0.107265 -1 1 -1 
8635 6 0.0190646 0.453148 0.149726 -1 -3 -1 
6700 6 0.0574183 0.442134 0.0959512 -3 2 1 
7962 5 0.123148 0.46767 0.100491 1 4 1 
8245 6 0.149614 0.466874 0.14026 -4 3 0 
7275 6 0.180651 0.434075 0.138093 -4 -3 7 
8173 6 0.519969 0.462723 0.100409 -1 1 2 
8358 5 0.928489 0.476921 0.108739 -1 -1 6 
8568 5 0.999438 0.525664 0.135125 3 -2 2 
5468 6 0.270723 0.479802 0.117097 0 -4 2 
8036 6 0.500297 0.539726 0.105612 -4 1 -1 
8663 5 0.609513 0.530463 0.130846 1 -1 -1 
5495 6 0.540519 0.593514 0.10175 0 0 0 
6576 6 0.755069 0.571652 0.130567 2 -1 -1 
6757 6 0.0591997 0.606378 0.12091 3 -2 3 
8809 6 0.833383 0.603366 0.13403 2 2 -2 
8583 6 0.0210128 0.595069 0.112784 -2 1 2 
5707 6 0.176624 0.626868 0.111779 4 -4 6 
8941 6 0.470868 0.637679 0.140022 -1 2 -1 
7879 5 0.759861 0.593957 0.10181 4 -2 4 
8100 6 0.800345 0.613148 0.112828 -1 2 -9 
6674 5 0.897748 0.642855 0.127989 -3 -5 4 
8625 6 0.933916 0.601169 0.128441 -1 -1 -1 
6558 6 0.207353 0.679004 0.125782 0 7 0 
5888 6 0.323963 0.666929 0.132082 0 1 3 
8374 5 0.734513 0.642697 0.112782 3 2 -2 
6613 5 0.0490491 0.712082 0.122789 -1 -1 1 
6273 6 0.368781 0.705322 0.121043 -4 4 3 
5050 6 0.050876 0.723326 0.124103 1 1 5 
6381 6 0.81233 0.748917 0.122758 -3 -1 2 
8512 6 0.237177 0.797152 0.10086 3 -1 0 
6455 6 0.26093 0.78228 0.122413 2 2 -3 
5186 6 0.824747 0.779512 0.137713 0 3 -3 
6483 5 0.392724 0.8079 0.148538 2 0 -1 
7737 5 0.606034 0.844878 0.159907 0 -4 3 
5374 6 0.00567451 0.804494 0.122593 7 2 3 
6296 6 0.338328 0.83654 0.12616 -1 0 -5 
8983 5 0.839602 0.886952 0.0756297 6 -2 -4 
6004 6 0.178096 0.888415 0.149295 0 0 -1 
6251 6 0.251352 0.897983 0.115628 0 4 4 
8616 5 0.172834 0.96381 0.0768149 1 2 -1 
5728 5 0.428186 0.946439 0.116151 -1 -5 2 
8540 5 0.211656 0.963925 0.0880828 4 0 -4 
7901 6 0.379059 0.993543 0.149542 2 -1 -3 
5138 6 0.624699 0.939971 0.116187 -2 -1 2 
7714 5 0.619761 0.976603 0.127677 -3 -2 1 
8668 5 0.79731 0.98953 0.130801 -3 -2 0 
8194 5 0.799561 0.0184218 0.122102 1 2 5 
7209 5 0.242168 0.991981 0.143203 2 5 -3 
5802 6 0.39332 0.993008 0.13375 -2 -3 4 
8773 6 0.447834 0.00905789 0.128753 -1 1 1 
6182 6 0.958476 0.0328315 0.178307 0 6 5 
5772 6 0.983142 0.0759241 0.138198 -4 1 -2 
7231 5 0.437928 0.121623 0.139885 -1 -1 3 
5137 5 0.0194603 0.131412 0.132311 -2 2 -2 
8446 6 0.0253784 0.0826324 0.159474 -5 2 1 
8378 6 0.12319 0.13926 0.115603 5 1 2 
8162 6 0.305204 0.131625 0.187596 -4 3 -3 
8494 6 0.382046 0.130665 0.152346 0 0 1 
8305 5 0.394824 0.109058 0.150723 0 -2 2 
8079 6 0.554383 0.128808 0.110808 -1 0 2 
5766 6 0.917088 0.118662 0.170908 5 3 -1 
6478 6 0.78696 0.133877 0.161807 1 3 1 
6864 6 0.196707 0.123392 0.144639 1 -2 2 
8556 5 0.81988 0.173949 0.136814 7 3 3 
7016 6 0.0274356 0.199286 0.156374 -5 -1 -3 
8893 6 0.0393873 0.239801 0.1493 3 4 1 
6327 6 0.519575 0.236742 0.177529 -2 2 3 
8736 6 0.757513 0.259037 0.165599 1 -3 -2 
8272 5 0.963138 0.24537 0.126027 -1 -3 0 
8682 5 0.559394 0.239708 0.133769 1 2 1 
5450 6 0.782617 0.240513 0.118294 -1 1 2 
8510 6 0.775548 0.23171 0.106156 1 -4 -5 
6759 6 0.853085 0.257769 0.162331 1 -2 1 
6572 6 0.831504 0.26909 0.168295 3 5 0 
6911 6 0.881746 0.29319 0.183976 0 -2 -2 
8111 5 0.466824 0.285369 0.15187 1 -5 4 
5942 6 0.731463 0.30672 0.180881 2 1 -1 
8050 6 0.93665 0.28256 0.144914 -2 0 0 
8398 5 0.690937 0.327195 0.153358 -4 -4 4 
7188 6 0.153983 0.36147 0.17706 -4 2 1 
5607 5 0.367894 0.381416 0.14201 0 1 2 
5532 5 0.378508 0.376717 0.152678 -7 0 1 
8801 5 0.848439 0.397409 0.165432 0 2 0 
5648 6 0.599314 0.356255 0.156122 1 2 3 
6879 6 0.586007 0.461269 0.146557 -2 -4 -4 
8046 6 0.875566 0.437986 0.145733 -4 4 1 
7596 5 0.86615 0.447839 0.148035 6 -6 -4 
8695 5 0.636527 0.438749 0.190036 2 -2 2 
6167 5 0.440193 0.526803 0.148614 -3 -2 -3 
6735 6 0.615913 0.497387 0.157819 -3 -8 1 
6340 6 0.277335 0.572211 0.156559 1 0 3 
7026 6 0.662909 0.518238 0.144596 4 -3 3 
7294 5 0.842581 0.531531 0.147549 3 -3 -1 
7444 5 0.83588 0.526364 0.158909 1 -1 -1 
8150 5 0.434639 0.605703 0.173218 0 -1 -2 
6811 5 0.883587 0.611859 0.177618 -2 -1 1 
5773 6 0.846862 0.631825 0.172337 -2 4 -2 
6986 5 0.23303 0.637984 0.158402 -3 4 0 
5420 6 0.177585 0.664772 0.11442 -6 -4 4 
7672 5 0.374039 0.694259 0.176199 -2 0 0 
8090 5 0.00640376 0.721003 0.123584 4 0 2 
6801 6 0.0560845 0.729699 0.191548 1 3 -5 
7141 6 0.838424 0.709077 0.170856 -1 1 -3 
7585 6 0.435624 0.743767 0.135672 3 -4 -2 
8158 5 0.380056 0.743513 0.122066 -1 3 0 
7175 6 0.565645 0.725507 0.176453 2 1 2 
5453 6 0.450367 0.757592 0.129212 0 0 2 
5302 6 0.465801 0.78943 0.121846 2 -1 -4 
5259 5 0.520924 0.75479 0.132918 0 1 6 
7595 5 0.374557 0.782479 0.110544 3 -1 4 
5294 5 0.486299 0.77522 0.167349 -4 0 4 
6176 6 0.425839 0.807994 0.151506 0 1 3 
6226 6 0.512093 0.822199 0.126113 0 3 1 
8341 6 0.638496 0.832098 0.150406 -1 -1 4 
5232 6 0.754314 0.815817 0.16072 2 -2 6 
5133 5 0.8978 0.82894 0.134354 0 -1 2 
5651 6 0.308769 0.860551 0.133237 -1 2 1 
5400 5 0.479734 0.857861 0.13604 2 1 2 
7683 6 0.403401 0.83234 0.133695 0 2 -2 
6002 6 0.834228 0.82716 0.148215 -1 1 -1 
8051 6 0.825621 0.91996 0.144974 2 1 0 
8706 6 0.708239 0.946373 0.141705 2 0 0 
5413 5 0.187294 0.96287 0.14051 5 -2 1 
7295 5 0.439997 0.954338 0.128335 2 -2 4 
7533 5 0.776944 0.00705075 0.143922 -2 4 -1 
6952 5 0.0279701 0.974247 0.141459 -1 -2 2 
8522 6 0.160662 0.980265 0.143603 2 5 3 
5288 5 0.699351 0.0128014 0.166452 -3 5 3 
5331 6 0.816659 0.949414 0.142848 1 -1 1 
5764 6 0.222788 0.982813 0.152024 1 -1 2 
8874 5 0.319789 0.0172525 0.142796 0 1 -2 
8143 5 0.966223 0.985163 0.179059 2 -2 4 
7488 6 0.65289 0.0354947 0.18762 2 1 1 
5696 5 0.676369 0.0247029 0.15041 2 1 1 
7128 6 0.436006 0.0492347 0.143729 -1 0 3 
6016 5 0.85759 0.10296 0.187168 7 -3 1 
6717 6 0.384262 0.0809902 0.166836 -1 -3 0 
8020 5 0.49899 0.0792744 0.193903 -1 1 3 
7726 5 0.15811 0.120704 0.154597 -1 0 -3 
8428 6 0.299426 0.149378 0.190105 -4 0 0 
7792 6 0.0405132 0.174725 0.166912 1 6 3 
7497 6 0.949542 0.117301 0.171413 1 -1 -3 
6656 5 0.178981 0.18358 0.189844 5 4 -1 
7299 6 0.416185 0.16579 0.162544 3 -1 -3 
8218 6 0.139541 0.206369 0.150991 -2 -5 -2 
7370 6 0.96842 0.151175 0.151734 -5 5 -3 
6346 5 0.0564534 0.239342 0.158935 -1 -2 -4 
8934 6 0.907243 0.220808 0.188335 -1 0 0 
5987 5 0.929153 0.201354 0.117943 0 2 -2 
7542 6 0.789422 0.262626 0.180115 0 -2 -1 
8592 6 0.831525 0.210518 0.17411 -3 1 0 
6295 6 0.807674 0.22396 0.147958 0 3 -2 
6359 5 0.395727 0.257941 0.127394 2 -5 4 
5337 6 0.553045 0.279276 0.168954 1 1 -4 
6314 6 0.474264 0.317102 0.183315 2 -5 1 
7731 6 0.619456 0.28906 0.171483 -4 -2 0 
7808 5 0.640363 0.336658 0.165924 0 0 2 
5691 5 0.77425 0.350329 0.191756 1 1 3 
6491 5 0.900999 0.29757 0.205026 -3 -2 -3 
7703 6 0.966162 0.329863 0.186502 -4 3 -1 
7335 6 0.595147 0.354699 0.188325 0 2 -2 
8654 5 0.828429 0.367873 0.188728 -3 0 11 
8892 5 0.889262 0.359676 0.179535 -1 1 -2 
7130 5 0.897474 0.426013 0.179766 0 -2 2 
5545 5 0.269349 0.393128 0.174555 3 -1 4 
6111 6 0.740224 0.401631 0.161261 6 -1 7 
5061 5 0.189995 0.459602 0.159566 6 -3 1 
5315 6 0.309715 0.47313 0.133611 0 -5 5 
5725 6 0.180989 0.510885 0.183899 -2 -1 -2 
8943 5 0.3888 0.472381 0.156908 -2 2 -2 
6665 5 0.645761 0.498113 0.136528 2 -3 -3 
7012 5 0.711747 0.485713 0.213889 4 1 2 
7468 6 0.803156 0.510933 0.129755 -6 1 1 
7451 6 0.353193 0.56026 0.163717 1 0 1 
5905 6 0.256602 0.572431 0.174029 0 0 2 
8338 6 0.339201 0.631997 0.214749 3 -2 3 
7576 6 0.240193 0.597562 0.169442 -2 0 5 
8290 6 0.628193 0.548093 0.160556 -5 -4 1 
6988 5 0.827463 0.635155 0.138297 -1 0 1 
6574 6 0.591718 0.633284 0.151008 4 -1 1 
6940 6 0.850612 0.630879 0.144824 2 2 -4 
5435 5 0.0688592 0.681143 0.162478 -2 6 -2 
8737 6 0.582255 0.703068 0.158304 1 -5 -3 
8747 5 0.777032 0.686182 0.1576 3 -1 -1 
8591 6 0.0837036 0.696642 0.18989 8 1 1 
6154 5 0.0308084 0.701556 0.159607 3 -4 2 
8441 6 0.286161 0.736237 0.195995 1 -2 2 
7125 5 0.263183 0.742329 0.168329 0 0 2 
7857 5 0.587427 0.766817 0.174378 3 6 1 
5190 6 0.205253 0.790497 0.193278 -1 -1 2 
5828 5 0.221072 0.772285 0.181343 -4 5 3 
6515 5 0.263567 0.782862 0.209317 5 -2 0 
5221 6 0.6376 0.775499 0.174877 -6 2 -3 
8042 5 0.107692 0.799739 0.171204 -1 4 0 
5591 6 0.478893 0.78483 0.166053 -3 -1 -1 
5675 6 0.197498 0.855189 0.154566 0 0 2 
7797 6 0.497041 0.836889 0.143968 0 0 -3 
8257 6 0.499694 0.86924 0.175393 2 1 6 
7963 6 0.737852 0.853608 0.143896 -4 1 -3 
6290 6 0.934091 0.827948 0.201578 2 2 6 
8331 5 0.507 0.848715 0.203575 0 3 0 
8999 5 0.851157 0.878397 0.162697 -3 -6 9 
6373 5 0.859661 0.837834 0.178115 1 -2 -2 
8906 5 0.949372 0.900781 0.168878 2 4 3 
5349 6 0.094889 0.968258 0.154299 1 -2 -7 
7482 5 0.45533 0.963039 0.188887 1 -3 -2 
5500 6 0.843002 0.983475 0.18877 0 0 -4 
6237 6 0.562177 0.986601 0.160408 0 3 0 
6189 5 0.63772 0.00782282 0.153781 0 -1 3 
8643 6 0.733686 0.0123612 0.225889 1 -1 -1 
5569 5 0.850092 0.995084 0.152282 2 -2 -2 
5859 6 0.646786 0.0443918 0.220123 -3 -1 1 
6504 5 0.123597 0.0786023 0.167529 4 -2 -2 
8547 5 0.848045 0.0796797 0.192078 -3 2 -1 
6826 5 0.890059 0.126822 0.212942 0 5 3 
5749 6 0.531086 0.154024 0.180122 -3 -3 4 
7180 5 0.907642 0.141004 0.198269 0 -2 -2 
6412 5 0.0134585 0.136139 0.180824 5 3 1 
5430 5 0.0575102 0.174469 0.165249 -4 -2 -1 
5204 6 0.399021 0.162381 0.168946 0 5 2 
5796 6 0.438479 0.189631 0.195626 0 6 6 
5080 5 0.271041 0.207613 0.184925 -5 -4 0 
5996 6 0.371586 0.200899 0.15632 -5 -2 -1 
6892 5 0.43254 0.22676 0.203187 -2 -3 -5 
6599 5 0.408795 0.218552 0.221226 -1 -3 5 
6553 5 0.543056 0.19948 0.23141 -1 -5 4 
8523 6 0.839412 0.237033 0.169219 -3 1 -1 
8638 6 0.0910211 0.213861 0.218668 2 -1 1 
5631 6 0.0823867 0.282986 0.195225 7 -1 -1 
7304 5 0.0482923 0.204275 0.214264 0 3 -2 
5855 6 0.203608 0.264531 0.213401 0 5 -2 
8152 5 0.493254 0.274714 0.220951 3 2 -1 
6212 5 0.890879 0.282659 0.164753 1 -1 -3 
8440 6 0.440654 0.2411 0.134978 3 7 2 
5588 6 0.747933 0.233554 0.173298 -4 -2 -6 
5750 6 0.142247 0.326987 0.175237 -1 3 -4 
8014 5 0.200062 0.314752 0.171581 7 5 -1 
6044 6 0.365661 0.344079 0.178615 -2 1 -1 
8140 6 0.149818 0.357549 0.160124 -2 5 3 
6048 5 0.447359 0.335782 0.193882 4 0 0 
7045 5 0.563046 0.365082 0.23474 -4 2 2 
5618 5 0.721248 0.342978 0.209261 3 0 -1 
6385 6 0.146611 0.381554 0.186953 -3 2 -3 
5667 5 0.295642 0.357795 0.223504 -1 -3 0 
5924 6 0.360898 0.365782 0.213478 1 -3 -1 
8692 5 0.0421854 0.40389 0.216052 0 -1 -1 
8347 6 0.39146 0.396632 0.179038 -2 0 -3 
6669 6 0.970257 0.401926 0.196844 -4 1 -5 
7866 6 0.432168 0.454982 0.178307 1 -1 -1 
7477 6 0.680752 0.414774 0.16241 -1 -2 7 
5891 6 0.750421 0.44445 0.218544 0 4 -2 
8774 6 0.948195 0.41384 0.192904 0 -2 1 
5560 6 0.56514 0.483362 0.193084 3 -1 1 
5711 5 0.253662 0.500972 0.163698 2 -1 1 
7891 6 0.435572 0.483985 0.213563 0 -2 5 
5248 5 0.783206 0.522888 0.170034 2 3 1 
7314 5 0.97637 0.516342 0.20422 -4 -1 1 
7011 6 0.142308 0.579598 0.216983 -2 -1 4 
5093 6 0.209109 0.579297 0.19962 -1 -3 -1 