ITEM: TIMESTEP
20000000
ITEM: NUMBER OF ATOMS
9000
ITEM: BOX BOUNDS pp pp pp
-75 75
-75 75
-75 75
ITEM: ATOMS id type xs ys zs ix iy iz 
8458 6 0.629576 0.00179316 0.00705695 4 -2 4 
5858 5 0.135657 0.0763843 0.00616218 -2 -1 -2 
5332 5 0.299083 0.0597066 0.991098 4 2 1 
7198 6 0.609729 0.0299513 0.00806553 0 -3 -1 
5646 6 0.969952 0.131074 0.0221245 4 2 2 
6156 6 0.0586471 0.155218 0.0191902 -1 0 2 
7377 6 0.607221 0.163258 0.00366843 4 -2 -1 
6592 6 0.675651 0.182567 0.0389139 3 3 3 
7002 5 0.249632 0.207743 0.0288298 1 -2 0 
7662 5 0.407115 0.182812 0.0361366 -2 2 -3 
8829 6 0.00244626 0.22529 0.0422522 1 2 3 
7143 5 0.568092 0.254756 -0.00127234 8 5 -2 
5546 6 0.222563 0.25906 0.0206392 1 3 -2 
6982 6 0.493911 0.290436 0.0245197 0 -1 -1 
7556 6 0.51162 0.282683 0.029188 2 0 2 
8571 5 0.572288 0.28457 0.0348428 0 1 6 
5868 6 0.480777 0.257011 0.0323911 -1 5 -1 
6153 6 0.541223 0.241311 0.970376 -5 5 -2 
6885 6 0.706049 0.32106 0.0427222 0 4 -3 
8936 6 0.897806 0.299963 0.983089 -5 0 -5 
8002 5 0.877572 0.319719 0.977883 -1 0 3 
6362 6 0.776924 0.345695 0.0208958 -3 -3 0 
8416 5 0.12099 0.343958 0.0206773 0 3 -1 
7305 6 0.623253 0.363347 0.00623755 0 2 2 
5589 5 0.283322 0.398928 0.046829 7 -2 -3 
6162 5 0.679371 0.427904 0.0530487 -2 3 2 
7325 6 0.714512 0.389746 0.00506191 2 -1 -1 
7545 5 0.668427 0.398415 0.0130515 -4 3 -3 
6556 5 0.00921161 0.461779 0.0360737 1 2 2 
8712 5 0.48299 0.507405 0.993062 -4 2 2 
7384 5 0.573881 0.403129 0.0227512 0 1 5 
6972 6 0.391614 0.490782 -0.000513442 6 4 4 
5766 5 0.517561 0.496248 0.99513 1 2 0 
8504 6 0.014558 0.501581 0.000320329 2 0 1 
8494 6 0.982246 0.493166 0.981092 -6 -1 0 
8939 6 0.504311 0.5438 0.982658 1 -1 2 
7856 6 0.124759 0.543377 0.972373 -4 -4 -1 
5985 6 0.680089 0.56174 0.996055 -1 -1 3 
8784 6 0.223902 0.567676 0.997444 -1 -4 -1 
8005 6 0.670169 0.545748 0.0188853 -2 0 4 
6295 6 0.0133616 0.602141 0.0503355 -1 1 -1 
7570 6 0.54464 0.581564 0.0195031 1 -4 -2 
7861 5 0.896071 0.620271 0.9649 -2 -1 0 
8287 5 0.987239 0.623245 0.990299 3 1 -1 
8247 6 0.95303 0.674267 0.99207 -3 -6 -3 
7860 5 0.116821 0.661897 0.994254 2 1 0 
6220 5 0.437207 0.668419 0.0443067 -2 -5 1 
7943 5 0.766231 0.634462 0.0178697 -3 2 2 
7598 6 0.817016 0.704883 0.0316202 -1 -4 -3 
8311 6 0.439521 0.689885 0.979337 -3 0 4 
5329 6 0.541527 0.677914 0.982815 0 0 0 
7152 6 0.652386 0.691492 0.983202 1 0 0 
6218 5 0.348943 0.715567 0.0219175 -1 -7 2 
5025 5 0.138945 0.804886 0.030513 -1 -2 -1 
6268 5 0.631021 0.74644 0.997579 -4 0 2 
7092 6 0.0509263 0.751259 0.991881 1 3 1 
5745 6 0.243227 0.79884 0.0331643 1 3 -1 
8937 5 0.179411 0.765253 0.0356084 -4 4 2 
7659 5 0.186347 0.795011 0.00400706 -2 2 2 
7945 5 0.472744 0.806603 0.0494944 -5 3 -5 
8884 6 0.634535 0.793092 0.996943 2 0 3 
5838 6 0.125164 0.844081 0.00426252 -1 1 1 
5850 6 0.378399 0.877929 0.0201714 0 -2 2 
7402 6 0.552155 0.838016 0.0242411 2 -2 -6 
8817 6 0.103618 0.886027 0.0208015 -1 0 -1 
7904 6 0.266423 0.878074 0.0102072 1 -7 -5 
5785 6 0.539224 0.903277 0.0343589 -1 -2 -5 
6744 5 0.792922 0.861457 0.986867 0 2 4 
7342 6 0.855915 0.88338 0.0326066 -5 -4 3 
7472 5 0.915295 0.884479 0.985377 -1 -5 -9 
7126 5 0.435543 0.879889 0.0130913 -1 4 1 
6393 5 0.763644 0.935543 0.00918423 0 -5 -2 
6032 5 0.843254 0.946713 0.035044 0 -2 -1 
8136 6 0.543898 0.988512 0.0369759 -4 -2 -3 
6611 5 0.393329 0.0346035 0.0537628 1 2 -3 
6529 5 0.79019 0.0533554 0.0236878 -2 3 3 
6852 6 0.793746 0.0536175 0.0609861 0 2 0 
6573 6 0.0499127 0.0800489 0.0322725 -2 2 7 
7270 5 0.837699 0.114866 0.0133828 1 -1 0 
8259 6 0.0867423 0.163389 0.0287214 -1 4 -3 
5898 6 0.622048 0.109185 0.994998 1 4 -1 
8516 5 0.695423 0.188525 0.0674106 2 1 6 
6430 5 0.938597 0.180817 0.0603558 -2 -1 3 
5778 5 0.639983 0.185502 0.019419 -5 3 0 
7780 6 0.435948 0.193109 0.0203609 2 0 4 
7611 5 0.658686 0.22305 0.0180895 2 0 7 
5072 5 0.0614594 0.237397 0.996603 3 2 0 
7626 6 0.611085 0.238251 0.00891558 -3 5 2 
8248 6 0.779261 0.232803 0.995766 1 4 2 
8201 6 0.831661 0.211771 0.0110435 2 -1 -7 
8474 5 0.303977 0.257695 0.0189865 5 2 7 
6641 5 0.906332 0.323961 0.0473592 2 -2 2 
6299 6 0.135847 0.382393 0.0425696 2 -1 -1 
8045 6 0.365561 0.377536 0.0120259 -3 1 0 
8744 6 0.404375 0.34888 0.0459367 -2 -1 3 
5750 5 0.582606 0.360536 0.00153124 -1 0 1 
8667 5 0.648784 0.317053 0.00203845 -3 2 -7 
7010 6 0.705729 0.352292 0.0313413 0 2 0 
6436 6 0.0765714 0.352661 0.0579978 2 4 3 
7930 5 0.313696 0.373025 0.0440508 -2 -2 0 
6682 6 0.541805 0.356955 0.0260837 1 0 0 
7041 6 0.0724612 0.402737 0.0794059 -5 4 -7 
5431 5 0.593389 0.390021 0.0394494 -1 -4 -2 
7639 5 0.208428 0.459519 0.0321785 2 -2 2 
5624 6 0.189836 0.450261 1.00018 5 -1 -6 
5343 5 0.499603 0.449142 0.0357154 4 0 2 
5230 5 0.146911 0.478819 0.999195 3 -1 -2 
5361 6 0.925998 0.468619 0.0330224 -4 -1 2 
6361 6 0.20742 0.531418 0.0487495 1 0 4 
5623 5 0.596658 0.502901 0.0505881 -1 1 -3 
8762 5 0.668473 0.453002 0.0269846 -1 -1 1 
8787 6 0.0832075 0.502698 0.00435009 0 2 4 
6640 6 0.623163 0.522915 0.00110847 -2 -1 -2 
5655 6 0.347106 0.564516 0.0137806 -6 3 -2 
8770 5 0.369945 0.51307 0.0378674 0 4 0 
5749 5 0.61021 0.559241 0.0499479 1 0 -1 
5101 6 0.874128 0.536778 0.0644942 -4 -1 2 
8656 6 0.203656 0.575296 0.041017 4 6 -1 
7371 6 0.390486 0.555599 0.0682125 1 1 2 
6758 6 0.782384 0.595803 0.0624205 -5 3 0 
8876 6 0.987399 0.554437 0.0397176 -4 0 -5 
5157 5 0.0274022 0.602907 0.0145264 3 0 0 
8791 5 0.0728962 0.5736 0.0446921 -1 4 -1 
7836 5 0.228398 0.591126 0.0372931 2 -1 -2 
6671 5 0.201521 0.655417 0.0411977 -2 2 -1 
8639 5 0.150132 0.678672 0.984743 -3 2 1 
5460 6 0.427101 0.661611 0.992936 -6 1 0 
5919 5 0.669214 0.689834 0.0227113 -1 -4 1 
7438 5 0.608261 0.688952 0.0365022 0 2 -1 
7480 5 0.944974 0.681345 0.00543062 2 4 2 
5770 6 0.152701 0.718059 0.0248794 -1 4 3 
8368 5 0.389191 0.680682 0.0162928 -2 2 0 
6921 5 0.231524 0.72636 0.024018 -3 3 -3 
6525 6 0.431047 0.762739 0.0439527 0 3 2 
8808 6 0.413656 0.725983 0.0448773 2 -4 0 
7955 6 0.821992 0.750728 0.0566192 -6 -3 -3 
8599 6 0.90164 0.738024 0.0460363 -3 1 0 
8748 6 0.930653 0.726902 0.0314623 1 0 0 
7443 5 0.953355 0.754067 0.00492075 0 -1 6 
8177 6 0.192222 0.781554 0.0351904 0 -1 3 
5829 6 0.381125 0.756399 0.000326151 -2 1 1 
8165 5 0.879997 0.726039 0.0459403 0 1 6 
8129 6 0.952919 0.730845 0.0531245 0 -5 3 
8673 6 0.386733 0.775806 0.0150009 -2 0 -2 
8802 5 0.238843 0.796963 0.987258 6 2 -3 
8243 6 0.310332 0.78688 0.0249315 4 1 0 
5069 5 0.687426 0.809639 0.0407369 0 4 -2 
7769 6 0.149163 0.796648 0.0383344 2 1 1 
8843 6 0.221586 0.834499 0.0316671 -1 3 3 
7663 6 0.66263 0.826351 0.0172705 1 4 0 
6470 5 0.760254 0.846737 0.0100941 1 -3 1 
6121 5 0.658096 0.85109 0.0454871 -2 -4 1 
7037 6 0.425154 0.878997 0.0688731 0 -3 2 
7801 6 0.48224 0.857657 0.0311795 -1 -7 4 
7265 6 0.84715 0.904426 0.02477 -3 -4 -1 
8046 5 0.458778 0.923603 0.0301722 0 -2 -3 
6192 5 0.651607 0.92829 0.0629455 5 0 -3 
5538 5 0.679656 0.933373 0.0366161 -3 2 0 
8601 6 0.950035 0.955272 0.0445284 -2 6 -4 
7083 6 0.244179 0.977924 0.0961627 0 -6 0 
5398 5 0.421216 0.977936 0.072472 1 -3 0 
6242 5 0.517669 0.952763 0.995718 1 4 0 
8221 6 0.372565 0.995639 0.0177065 0 2 -3 
8534 5 0.863933 0.973242 0.0534357 1 1 1 
5722 5 0.0547576 0.0628652 0.0761611 2 -2 6 
8622 5 0.35041 0.988877 0.0436593 3 1 2 
6585 6 0.504132 0.0248244 0.0619145 -2 2 -6 
8607 5 0.480894 0.0316994 0.0387877 1 4 -4 
5543 6 0.583616 0.0430368 0.0270471 -4 -3 -1 
8442 6 0.673805 0.0595731 0.00286519 -1 5 -1 
5788 6 0.178856 0.0951899 0.0462923 -2 -1 2 
8422 6 0.43924 0.073698 0.0468465 4 0 3 
7800 6 0.98624 0.0874502 0.0426236 -2 0 4 
6796 5 0.273689 0.0838442 0.0559035 2 2 3 
7907 6 0.293494 0.108598 0.0673113 -1 -1 0 
7022 5 0.74477 0.103249 0.0595223 0 -2 2 
8533 6 0.500733 0.136404 0.0800907 -6 2 -3 
5906 6 0.685192 0.188919 0.0692589 -3 2 -1 
6280 6 0.106695 0.16809 0.078148 -4 -1 6 
5376 6 0.657868 0.194704 0.0526447 4 2 -2 
6064 5 0.894421 0.152016 0.0277735 -4 -2 -3 
5231 6 0.879585 0.163178 0.082149 -2 4 8 
7096 6 0.866175 0.227073 0.0864852 -1 -1 -1 
8032 5 0.0341006 0.184554 0.0259268 -1 5 0 
7513 6 0.629475 0.215439 0.0314093 5 4 -2 
8959 6 0.686576 0.234369 0.0852598 -5 1 1 
7058 6 0.651739 0.223634 0.0552223 3 4 2 
5061 6 0.06294 0.2126 0.0606519 4 -4 -1 
6372 5 0.260654 0.259212 0.0846643 5 3 -1 
5048 5 0.49603 0.293717 0.038434 -5 -3 2 
8124 5 0.328546 0.288003 0.0634241 -1 -1 3 
8356 6 0.0929244 0.306965 0.0316319 3 -1 -3 
7885 6 0.137081 0.284398 0.042897 3 1 3 
7333 6 0.269378 0.316266 0.0800909 1 -1 -3 
7624 6 0.462141 0.343116 0.0641806 -5 -5 3 
6701 6 0.875368 0.373554 0.103585 -2 -1 5 
7163 6 0.942382 0.339144 0.0672418 -4 -1 -1 
7507 6 0.962684 0.35278 0.038849 -1 -2 3 
8997 6 0.184016 0.39849 0.0407249 6 0 0 
6879 6 0.538855 0.405234 0.0586275 4 -1 0 
6704 5 0.67262 0.384255 0.0184557 1 1 3 
7524 6 0.723995 0.42948 0.0684739 1 -3 -3 
6554 5 0.170055 0.421666 0.0619118 2 -1 4 
6526 5 0.405317 0.431279 0.0381091 -2 1 -3 
5695 5 0.28684 0.43454 0.0585846 1 -1 -4 
8128 6 0.339073 0.454144 0.0830423 0 0 -1 
8173 5 0.52578 0.461675 0.0587258 -1 5 -1 
6837 6 0.145765 0.457394 0.0643507 2 -1 0 
7387 5 0.267271 0.431001 0.026473 1 3 4 
8707 6 0.568837 0.522435 0.0728864 1 -2 0 
5095 6 0.733526 0.492281 0.0646079 -6 0 5 
8200 5 0.967642 0.480912 0.0559568 5 6 0 
8313 5 0.196057 0.525102 0.0529125 -1 -4 5 
8304 6 0.532013 0.505265 0.0582625 3 -3 0 
5754 6 0.243403 0.539081 0.0712084 1 -2 0 
7968 6 0.44735 0.551494 0.0851049 -5 -4 -1 
8850 6 0.575015 0.56814 0.0666772 -5 3 2 
5038 6 0.658678 0.496301 0.0698553 2 2 0 
7878 5 0.606611 0.543738 0.0268709 2 -1 2 
5746 5 0.0737585 0.574296 0.0600993 2 2 -3 
7600 6 0.0879922 0.582354 0.0679707 1 3 -2 
7267 6 0.174221 0.585565 0.0165922 -5 -1 -1 
6357 6 0.529038 0.584669 0.06484 1 -2 5 
7406 6 0.0240776 0.603079 0.0667227 -1 0 -1 
6397 6 0.0883106 0.598612 0.0313563 3 0 -2 
5677 6 0.367001 0.608403 0.0859058 -1 2 0 
7317 6 0.418042 0.619523 0.0529706 0 0 -2 
5877 5 0.842455 0.604113 0.0174107 2 -3 -2 
6793 6 0.961356 0.600286 0.0436125 2 5 -1 
7254 6 0.109565 0.643157 0.0689364 2 1 2 
5503 5 0.876889 0.674344 0.0737661 7 0 -3 
6198 5 0.809996 0.692876 0.0647079 2 -1 -2 
6725 5 0.98026 0.647974 0.0640499 6 2 3 
6731 6 0.0768544 0.682209 0.0548749 -3 -2 1 
7908 6 0.52402 0.725108 0.0514911 -5 3 2 
5652 6 0.694696 0.718741 0.0561414 3 -1 -4 
6709 5 0.0256477 0.726283 0.0809244 -1 -4 -1 
8132 6 0.422633 0.699563 0.0517894 0 -3 -1 
8230 6 0.218545 0.754216 0.0439331 -5 -1 0 
8493 6 0.362797 0.777382 0.00577473 2 -1 2 
8585 5 0.770085 0.700819 0.0327801 4 -1 4 
8974 6 0.474656 0.780483 0.0581909 0 -2 -6 
7676 6 0.616373 0.791742 0.0591826 1 4 -2 
6532 5 0.25676 0.825851 0.0523616 -7 -4 -1 
5537 6 0.287003 0.851538 0.0461989 7 2 -1 
7818 6 0.44925 0.812277 0.0475048 -2 3 -1 
5050 5 0.709254 0.815654 0.0146606 -3 -3 5 
6784 5 0.285209 0.836852 0.0164137 -3 4 2 
8519 5 0.473239 0.81495 0.0627517 -2 -1 0 
6025 6 0.742363 0.853664 0.0393321 -2 -5 6 
7159 6 0.740275 0.822142 0.000159627 -2 -3 -2 
8023 6 0.987704 0.885194 0.0515286 2 -4 0 
5279 5 0.487099 0.879636 0.0655107 4 -3 -8 
8270 6 0.929474 0.873071 0.0583275 2 -3 -2 
7157 6 0.034756 0.880076 0.0440545 -1 -1 1 
5738 5 0.44848 0.863657 0.0838262 -2 0 0 
7093 6 0.754758 0.875154 0.0457175 1 5 4 
8810 5 0.986548 0.921753 0.03823 -4 0 2 
8618 5 0.978185 0.894561 0.0589758 -2 0 1 
5995 5 0.123672 0.965938 0.0409554 0 -3 4 
6569 6 0.338072 0.927062 0.0937039 1 -7 1 
5032 6 0.413145 0.922477 0.0637531 -3 1 -4 
6274 6 0.73229 0.944761 0.0181923 -2 -1 -2 
8893 6 0.805153 0.925874 0.0885234 -3 -6 -4 
6949 5 0.965265 0.984859 0.0805238 1 1 -2 
8995 5 0.946396 0.928154 0.0471214 0 2 3 
6429 5 0.12178 0.00686406 0.069766 -2 -7 1 
5440 6 0.568549 0.00488118 0.0428981 -6 -3 0 
8629 5 0.950087 0.935474 0.0410854 -4 3 4 
6959 5 0.0323205 0.981133 0.112837 4 4 -5 
6812 6 0.175947 0.997793 0.0940349 -1 -4 -2 
6034 6 0.147136 0.0565221 0.0717502 -3 -3 3 
8881 6 0.00381129 0.0512454 0.0830187 0 0 2 
7960 6 0.132245 0.115235 0.0898392 3 1 -4 
5399 5 0.191875 0.0838754 0.0785012 0 3 -3 
7123 5 0.467776 0.0610723 0.114233 -2 5 -3 
7877 6 0.825779 0.0753266 0.100813 0 -6 1 
7253 6 0.955025 0.0739834 0.0967125 3 0 -3 
8281 6 0.740848 0.0966029 0.0767687 -5 4 1 
5676 5 0.85681 0.139236 0.0945406 1 1 2 
7830 5 0.334607 0.114585 0.115717 2 4 -5 
5616 6 0.262781 0.184196 0.0625627 7 1 2 
5276 6 0.313369 0.128698 0.077503 1 2 5 
7865 6 0.61358 0.155544 0.082227 0 2 6 
6510 6 0.803987 0.177007 0.0716044 -7 -6 3 
5365 5 0.992803 0.163358 0.113029 1 -3 4 
5364 6 0.42681 0.203168 0.0563372 0 -1 5 
5857 5 0.125992 0.203016 0.0653528 0 0 1 
6903 5 0.432503 0.208359 0.0814934 -3 -2 -7 
8279 5 0.83273 0.231615 0.0720459 -1 -1 0 
8040 6 0.949414 0.247538 0.0645348 0 -1 1 
6782 6 0.144365 0.253521 0.104395 -2 3 0 
8495 6 0.909618 0.240615 0.0604347 2 0 -2 
6003 5 0.994923 0.297909 0.0683542 -2 3 -2 
8720 5 0.486392 0.288416 0.0592318 0 1 4 
6761 6 0.848364 0.285061 0.0607478 -1 1 4 
8605 5 0.953552 0.260172 0.0654458 -1 2 -1 
6182 5 0.666792 0.311162 0.0664484 0 -3 3 
7648 5 0.694426 0.31738 0.119996 -2 -1 2 
5627 6 0.929063 0.295201 0.074591 -2 0 6 
7285 5 0.658993 0.346706 0.089633 -1 -2 -1 
6177 6 0.835148 0.308196 0.110063 4 -2 -1 
6254 6 0.0895881 0.349131 0.0579192 2 2 3 
6124 6 0.28426 0.359022 0.0691076 -3 0 1 
8454 6 0.616843 0.340006 0.0661051 1 1 3 
7219 6 0.11862 0.384646 0.0878857 -6 0 5 
5174 5 0.303514 0.430507 0.0694071 0 1 0 
8902 5 0.205329 0.432613 0.0636804 3 1 0 
6499 6 0.979254 0.47609 0.0530039 1 -5 -4 
7982 6 0.172394 0.450095 0.0919093 -1 -3 -1 
7320 6 0.562914 0.465874 0.0617668 -2 5 -4 
5862 5 0.404334 0.48867 0.0679565 -2 5 -3 
7107 5 0.559893 0.550031 0.0688612 -5 3 4 
5420 5 0.120456 0.588829 0.0938627 -4 -3 1 
8369 6 0.130605 0.543332 0.077448 1 -3 -1 
5437 5 0.173818 0.53968 0.0629781 2 -2 2 
6275 6 0.319436 0.532008 0.121124 -2 3 0 
5139 5 0.401653 0.577505 0.0672754 0 -1 -1 
6391 6 0.700451 0.6005 0.0886185 6 -9 -4 
7181 6 0.0745491 0.584497 0.108079 -3 3 2 
8845 6 0.45532 0.588468 0.0671812 1 -2 2 
7918 5 0.831972 0.607901 0.0704093 -6 -4 0 
6871 6 0.093395 0.653685 0.0592691 -3 -1 3 
7523 6 0.39557 0.65346 0.0819762 2 0 1 
5949 5 0.177018 0.635671 0.0989072 1 0 -5 
8379 6 0.417239 0.666353 0.0679128 3 -6 1 
6181 6 0.750593 0.674414 0.0738804 -3 2 -1 
7916 6 0.78244 0.688337 0.0318282 0 1 -1 
5813 6 0.0691932 0.696771 0.0827286 2 0 -4 
6290 6 0.0623291 0.692262 0.0612314 -4 5 -1 
6724 6 0.646049 0.695985 0.0521831 2 -3 -2 
6498 6 0.968556 0.697137 0.0899 1 -2 2 
5954 5 0.366111 0.70082 0.0675506 3 -3 -2 
5173 5 0.481935 0.711794 0.0559382 -1 -3 1 
5184 6 0.62618 0.760702 0.114891 -1 0 2 
8063 5 0.608491 0.749721 0.0708357 0 0 3 
7248 6 0.724788 0.769143 0.0689437 -2 2 1 
6932 6 0.934326 0.728387 0.0915148 1 -5 2 
6130 6 0.13821 0.805169 0.0430808 5 -4 1 
6262 6 0.558539 0.736792 0.10353 1 -4 -3 
8427 5 0.7474 0.765052 0.0580234 6 -6 2 
8679 6 0.894335 0.778252 0.0545807 -4 -2 0 
6155 5 0.910159 0.817257 0.0691777 2 2 4 
5580 5 0.945418 0.835561 0.101764 1 2 5 
7223 6 0.879985 0.869319 0.0919976 0 -1 5 
5969 5 0.0405299 0.831876 0.0887325 0 -5 1 
5244 6 0.0675089 0.873071 0.0593565 2 -1 0 
5649 5 0.184422 0.86777 0.116248 0 0 -3 
6004 5 0.553795 0.916361 0.1026 6 0 2 
7903 5 0.958532 0.883659 0.101135 3 -1 1 
6141 6 0.327368 0.928653 0.0565525 -2 2 4 
7788 6 0.465327 0.930026 0.0914316 -3 2 -2 
6948 6 0.316037 0.921748 0.0805779 6 0 -1 
5207 6 0.811875 0.98774 0.109549 -2 -3 4 
5696 6 0.00278859 0.010173 0.081479 8 -3 0 
5654 5 0.102678 0.993766 0.113956 -2 -2 5 
7240 5 0.228313 0.0350074 0.110137 2 0 0 
7536 6 0.827818 0.00405902 0.118797 0 8 4 
8783 5 0.56371 0.0288463 0.116183 4 3 6 
7927 5 0.649741 0.0197772 0.103488 1 -1 0 
7224 6 0.0721347 0.0716422 0.0915833 0 1 2 
5854 6 0.0906351 0.079168 0.123442 0 -1 -2 
8740 6 0.192788 0.0848326 0.108192 1 -1 1 
8565 5 0.234146 0.0755855 0.131085 1 5 3 
6085 6 0.0478495 0.141185 0.0891976 -6 -1 4 
6252 6 0.483749 0.113198 0.141996 -2 5 -1 
7778 6 0.757248 0.0719807 0.101278 -1 -6 -7 
5833 6 0.141107 0.108074 0.0935605 0 3 -4 
6132 6 0.293575 0.164886 0.109156 3 -5 4 
8057 6 0.915237 0.176858 0.129218 3 -3 0 
5280 6 0.446011 0.153952 0.139943 2 -1 4 
8665 5 0.772467 0.147516 0.0730524 -2 0 -2 
6762 6 0.0269847 0.159505 0.0545257 1 -1 -1 
5443 6 0.260658 0.140121 0.0839708 -1 -2 -6 
7774 6 0.937205 0.213361 0.133084 1 2 -3 
5775 5 0.867346 0.212825 0.137129 -7 1 -1 
5961 6 0.80142 0.211721 0.0932911 -3 0 -5 
8158 6 0.96519 0.257048 0.118242 -1 2 2 
7476 6 0.927508 0.245133 0.106602 1 -3 3 
7484 5 0.557454 0.264613 0.0989823 -1 1 0 
5024 6 0.185924 0.353368 0.116529 2 4 -1 
6924 5 0.571215 0.31045 0.121547 0 0 3 
5290 5 0.785694 0.328879 0.105622 1 -2 0 
7144 6 0.92373 0.288196 0.09938 -1 1 5 
5629 6 0.219304 0.353078 0.0869891 2 0 -2 
6243 6 0.667288 0.330375 0.142472 1 2 4 
8980 5 0.057299 0.367599 0.114948 1 2 4 
8199 6 0.104171 0.403347 0.0761644 0 4 2 
6607 5 0.359274 0.374092 0.0965764 2 -2 4 
7349 5 0.877408 0.376953 0.116267 1 1 -2 
8612 6 0.434568 0.417668 0.0953365 3 1 2 
7831 6 0.480859 0.379306 0.0746469 -2 -1 -2 
6764 6 0.565037 0.371399 0.074653 1 1 -2 
5786 6 0.889212 0.452998 0.126371 1 -1 -4 
6401 5 0.170278 0.478309 0.0910118 1 0 1 
7715 6 0.423812 0.498074 0.086802 4 -4 1 
7537 6 0.594026 0.511452 0.0806723 -1 5 -2 
7849 5 0.758394 0.407571 0.116031 2 3 1 
8163 6 0.041445 0.511288 0.12823 0 -1 -5 
7762 6 0.152113 0.509454 0.12276 1 7 1 
8013 5 0.616876 0.479172 0.118119 -2 2 -4 
6849 5 0.138952 0.524711 0.115932 0 0 3 
5269 6 0.120546 0.474061 0.104152 2 1 0 
6404 5 0.339072 0.522416 0.0851237 -8 1 -5 
8963 5 0.341746 0.541327 0.0846896 3 5 -1 
7942 6 0.518364 0.550765 0.0951134 1 4 2 
7862 5 0.785415 0.563353 0.0829514 -3 1 -1 
7798 6 0.838297 0.515115 0.0512582 -2 3 -5 
6973 6 0.908726 0.539114 0.100666 -1 -1 1 
8797 5 0.019475 0.537774 0.136417 1 7 5 
7475 6 0.7114 0.587054 0.095891 0 -4 0 
6504 5 0.885287 0.544545 0.0730044 -5 -3 1 
6980 6 0.948898 0.568113 0.131725 -1 2 2 
6991 6 0.187519 0.564274 0.100372 -5 -1 1 
5298 6 0.175361 0.564763 0.130604 1 -1 -1 
5973 5 0.779024 0.578053 0.0989875 5 -2 3 
8634 6 0.251369 0.606135 0.117587 3 -4 1 
8003 5 0.324916 0.626203 0.116517 0 2 0 
8290 6 0.609533 0.610444 0.121209 -5 1 -1 
8507 5 0.00889179 0.577929 0.111468 -5 -2 4 
5505 6 0.837451 0.642059 0.120495 3 0 1 
8659 5 0.907314 0.580971 0.0803181 -3 -1 0 
5673 6 0.372814 0.662289 0.091153 3 -3 1 
7278 5 0.626326 0.622761 0.0621362 0 -5 1 
8102 6 0.174987 0.727265 0.0732369 2 -4 -1 
6590 6 0.942563 0.665451 0.107902 5 -9 1 
8714 5 0.308732 0.710952 0.12408 3 -3 0 
6745 5 0.495799 0.641591 0.0797612 -4 2 -2 
7095 6 0.0621519 0.69618 0.111249 3 2 -1 
8206 5 0.111785 0.722021 0.114353 3 1 -4 
6746 6 0.202069 0.678231 0.117041 1 -2 -2 
8410 5 0.962072 0.704839 0.098753 -2 3 -2 
7953 5 0.145048 0.744834 0.0548454 0 2 2 
5453 6 0.269052 0.73702 0.0915251 0 -1 -1 
6969 5 0.315329 0.733743 0.0660657 -2 0 2 
6911 5 0.437438 0.714444 0.112983 0 0 -1 
5510 5 0.536846 0.793998 0.0956929 -2 1 0 
6193 6 0.596679 0.775982 0.0817681 0 3 1 
5979 6 0.959024 0.771795 0.0974126 -3 5 -2 
8459 6 0.0289074 0.804059 0.0782489 -5 2 -3 
5159 6 0.330061 0.839488 0.0993634 2 -3 1 
7072 6 0.954338 0.835275 0.0854941 -1 3 4 
8440 5 0.0804825 0.846417 0.105113 2 -2 1 
6005 6 0.323737 0.911707 0.0910928 0 -3 2 
7076 5 0.457721 0.95188 0.0523224 -2 2 4 
7773 5 0.0828175 0.982223 0.111866 0 2 3 
5475 5 0.518 0.00475655 0.0847375 -3 1 2 
6350 6 0.987945 0.972532 0.114902 0 3 -2 
8252 5 0.34391 0.0349083 0.0965833 1 4 0 
8275 6 0.983517 0.0450369 0.142371 -4 1 -2 
6424 5 0.0544134 0.0408826 0.159479 0 -2 0 
5694 6 0.991215 0.0584097 0.118291 -2 6 3 
6831 6 0.203772 0.0170617 0.0928726 4 -3 3 
8546 5 0.56562 0.0413833 0.136326 -3 -5 3 
6123 5 0.0768638 0.0815423 0.0899805 -3 -4 -1 
8456 5 0.475392 0.108003 0.103214 3 4 1 
8398 6 0.115115 0.13744 0.118562 4 -3 2 
7750 6 0.665008 0.137373 0.0968427 -7 2 1 
7597 6 0.609956 0.107657 0.117393 -1 -4 -2 
8989 5 0.972144 0.115207 0.166403 2 -1 3 
8960 6 0.232483 0.16602 0.118856 2 0 -3 
5234 6 0.448957 0.182589 0.159105 1 2 1 
7458 5 0.844929 0.150079 0.111227 4 -3 7 
8264 6 0.852425 0.203431 0.158879 1 0 0 
7886 6 0.363716 0.206671 0.10201 0 5 2 
5490 5 0.423113 0.196492 0.108143 3 -4 -4 
5417 6 0.972542 0.22439 0.109897 2 1 6 
8100 6 0.139824 0.253987 0.152726 -2 0 -3 
7019 5 0.709793 0.172941 0.146975 -7 2 4 
8185 6 0.277694 0.21801 0.128594 -2 3 2 
6059 5 0.440609 0.282582 0.154606 -1 0 1 
6052 5 0.856249 0.324689 0.133814 0 1 4 
7790 5 0.951396 0.312604 0.103352 0 -2 0 
7216 6 0.995178 0.287457 0.0739881 -3 0 2 
7362 5 0.0423933 0.302478 0.141683 0 6 3 
7783 5 0.551924 0.297993 0.148382 -3 -2 5 
5444 6 0.525051 0.363554 0.124548 3 2 5 
5074 5 0.747023 0.358858 0.151014 2 -1 -1 
6935 6 0.941868 0.358972 0.102935 0 2 -1 
7247 6 0.239051 0.377418 0.141932 6 6 -2 
8404 6 0.484308 0.374242 0.108153 -2 -4 -2 
8253 6 0.727753 0.373799 0.119321 3 -2 -3 
6635 6 0.706442 0.367232 0.134001 3 0 3 
6448 5 0.775313 0.384285 0.121241 1 1 2 
8839 6 0.79951 0.385266 0.131721 2 2 -1 
7160 5 0.190685 0.388632 0.119441 3 0 -1 
7018 5 0.316881 0.406253 0.131407 -2 1 4 
8878 6 0.447337 0.416903 0.127298 3 3 -3 
6249 6 0.277351 0.386118 0.133486 2 2 0 
8548 6 0.239413 0.403366 0.117579 -2 -2 -4 
5360 6 0.0948752 0.464031 0.155936 -6 0 2 
7452 5 0.316599 0.450097 0.0996512 1 3 6 
6748 5 0.314701 0.461758 0.154918 2 -2 -1 
8754 5 0.324669 0.457807 0.136133 -1 3 -2 
7421 5 0.38244 0.49921 0.0979471 -1 -7 -5 
7416 6 0.980474 0.478517 0.128897 -2 -1 -1 
5378 6 0.990372 0.526407 0.128833 -3 -4 -6 
7094 5 0.11967 0.548005 0.111221 6 -1 -2 
6786 6 0.223084 0.5268 0.118295 -1 1 0 
5975 5 0.372593 0.576016 0.103007 0 6 2 
5650 6 0.906441 0.597009 0.133132 0 3 2 
6461 5 0.856824 0.594582 0.0887975 -2 -2 4 
5212 5 0.547329 0.629275 0.116784 7 -5 -1 
5411 6 0.994475 0.655161 0.112587 3 -4 -2 
8540 6 0.434072 0.678574 0.096891 0 -3 -2 
8577 6 0.236537 0.726266 0.14334 -4 -2 4 
8606 5 0.531874 0.715833 0.103141 -1 0 0 
5281 6 0.543326 0.735143 0.100202 1 1 -4 
7841 5 0.553353 0.777317 0.143273 3 -1 1 
7756 5 0.245602 0.756775 0.156328 2 -2 2 
6204 5 0.0465675 0.777257 0.131674 -1 1 -1 
5625 6 0.333148 0.819796 0.125683 -3 2 -5 
7178 6 0.460922 0.780109 0.129896 -1 5 -2 
8321 5 0.0195982 0.820741 0.128286 -6 -8 -1 
8921 5 0.153456 0.843908 0.131831 0 2 1 
5790 6 0.135241 0.885579 0.142435 1 -5 3 
6545 5 0.520721 0.893438 0.115187 -1 0 1 
5273 5 0.516327 0.861547 0.13123 0 2 2 
6609 6 0.54325 0.862722 0.0871661 0 5 -9 
5720 6 0.794492 0.876047 0.0801138 2 2 0 
5661 6 0.690314 0.887881 0.108941 -6 2 2 
5792 6 0.893557 0.875211 0.116777 1 2 -2 
7492 5 0.423948 0.872953 0.127914 1 2 1 
5489 5 0.00973384 0.912535 0.194646 0 -2 -4 
5275 5 0.10901 0.89937 0.118003 -2 1 -2 
6783 6 0.31074 0.931666 0.134917 1 -1 4 
6983 6 0.945148 0.956408 0.144462 1 -2 2 
5011 6 0.0597319 0.919123 0.139785 4 -1 2 
7735 5 0.715876 0.950357 0.150779 5 2 7 
5452 5 0.715051 0.951913 0.114384 0 4 0 
5600 5 0.195277 0.0846565 0.134633 0 0 -3 
6515 6 0.237594 0.109032 0.139174 -2 -4 2 
5665 6 0.294072 0.0939262 0.188435 -1 2 -1 
5987 6 0.026446 0.131767 0.135092 4 -1 0 
8117 5 0.266661 0.120878 0.0946308 -1 -1 0 
6421 5 0.621517 0.141736 0.185352 2 0 3 
7206 6 0.710098 0.12971 0.134782 -1 -1 -3 
5562 5 0.876877 0.170638 0.151086 -2 -3 -2 
7707 6 0.356349 0.136152 0.127572 1 3 -3 
5118 6 0.356717 0.191152 0.139065 -1 -1 -1 
7851 5 0.866819 0.165749 0.140572 8 -4 -6 
5385 5 0.959562 0.146406 0.161355 -3 0 -2 
8395 6 0.656028 0.207498 0.14378 2 -3 -2 
5253 5 0.782203 0.198924 0.167688 3 -3 -3 
5233 6 0.499775 0.19482 0.171958 1 2 2 
7396 6 0.860247 0.283084 0.167124 2 0 1 
8355 6 0.660519 0.275031 0.142994 1 -3 4 
7051 6 0.415403 0.289774 0.140458 1 -4 1 
5496 6 0.605227 0.278199 0.129968 -1 0 0 
5462 5 0.989091 0.332233 0.163223 1 0 -1 
7040 6 0.626213 0.345465 0.160938 -3 0 -2 
6444 6 0.951921 0.320925 0.148437 -7 0 1 
6184 6 0.842008 0.378361 0.176067 2 4 4 
8473 5 0.0191046 0.371662 0.168178 -1 0 0 
8018 6 0.216611 0.348705 0.151808 -3 -1 1 
6768 5 0.401939 0.354032 0.156842 1 3 -3 
5853 6 0.754532 0.369278 0.163895 -2 4 0 
5381 5 0.865307 0.374097 0.12011 1 4 6 
7175 5 0.320618 0.441626 0.149673 1 2 2 
5996 6 0.862427 0.443314 0.137716 -1 -4 1 
6864 6 0.224869 0.429732 0.118578 3 -2 1 
6927 5 0.430046 0.44241 0.173013 -1 4 0 
8647 5 0.129117 0.47078 0.169825 0 0 -2 
6282 5 0.412089 0.463948 0.132886 -1 -3 1 
5255 6 0.486602 0.44354 0.132932 1 0 7 
5615 6 0.389454 0.546733 0.176488 2 2 -2 
8024 6 0.551424 0.551896 0.149125 0 4 3 
8649 5 0.582042 0.561848 0.14137 1 2 6 
6855 5 0.307912 0.604701 0.127948 -3 -1 -6 
8971 5 0.440142 0.549238 0.134105 5 -3 -4 
8772 6 0.608898 0.564087 0.134793 0 1 0 
5552 6 0.484882 0.598054 0.124285 0 0 3 
5533 6 0.720041 0.618133 0.154217 -5 -2 6 
6553 5 0.891763 0.573275 0.184308 -3 0 0 
8054 6 0.585246 0.678211 0.144518 -2 1 5 
7680 6 0.894347 0.628041 0.163171 -5 1 2 
5797 6 0.344105 0.67521 0.0859701 5 -5 0 
7995 6 0.346375 0.727992 0.169476 -6 -1 6 
7677 5 0.797135 0.735694 0.134857 1 2 2 
5221 6 0.893497 0.765867 0.13889 -5 2 6 
7793 5 0.0832828 0.771797 0.146044 -4 -1 0 
5149 5 0.247422 0.729365 0.153502 -2 -2 -2 
7373 6 0.109241 0.790099 0.140076 0 3 1 
6840 5 0.584161 0.781766 0.155921 -4 -2 0 
8620 6 0.649838 0.784381 0.154884 -2 -5 -1 
7863 5 0.695268 0.78042 0.149131 -4 3 -1 
8562 5 0.932429 0.736381 0.150178 -3 1 -1 
6817 5 0.915419 0.776384 0.169269 2 -1 -1 
6460 5 0.121126 0.775648 0.132361 0 4 -5 
6171 6 0.481809 0.840011 0.139749 -4 1 1 
6047 5 0.523295 0.805096 0.153831 -2 0 3 
7912 6 0.672818 0.839145 0.160486 0 -2 -1 
5478 6 0.954973 0.817542 0.172311 1 0 7 
5967 5 0.630887 0.855204 0.162604 -3 1 -1 
7890 5 0.985446 0.834408 0.143994 1 2 3 
8657 5 0.138912 0.836025 0.137146 0 -3 1 
8340 5 0.21854 0.841915 0.143631 1 4 1 
6778 6 0.444659 0.932034 0.124524 2 -4 -2 
6679 6 0.173677 0.90114 0.113812 -3 4 -4 
7008 6 0.305472 0.891649 0.103145 -2 1 8 
6279 6 0.46391 0.911122 0.177332 -1 1 3 
8664 5 0.659767 0.907456 0.173477 -2 -1 -1 
6859 6 0.807038 0.917089 0.148996 -7 -3 1 
7383 5 0.878537 0.882982 0.130911 -3 1 3 
6263 5 0.560361 0.897021 0.157488 3 2 0 
8323 5 0.610529 0.943206 0.177888 0 -3 -1 
7326 5 0.40676 0.927673 0.13916 2 -2 3 
6168 6 0.440334 0.969196 0.152146 -4 -3 -1 
6405 6 0.581696 0.928111 0.148194 3 0 -2 
8184 5 0.694104 0.960024 0.146353 -2 -1 1 
5610 5 0.753164 0.947012 0.171059 -1 3 -3 
6669 6 0.786246 0.906848 0.125612 4 -1 1 
6713 6 0.303319 0.999815 0.167261 -1 0 0 
7975 6 0.277865 0.945278 0.109305 -2 -5 2 
5300 5 0.398168 0.977077 0.162368 1 1 2 
8074 5 0.948439 0.96121 0.171392 2 -2 0 
8771 6 0.982014 0.0158015 0.166657 -2 1 -4 
8107 6 0.148757 0.00330392 0.207315 2 0 -2 
7652 6 0.626519 0.979491 0.21514 1 -1 -4 
6836 6 0.00203682 0.0559205 0.174302 1 0 7 
8882 6 0.195453 0.0240521 0.161548 4 -3 -2 
8277 5 0.410028 0.01553 0.154685 -1 -2 -1 
8137 6 0.721398 0.0672255 0.142555 5 -4 2 
6961 5 0.0902977 0.0635488 0.145915 -2 -2 -2 
6968 5 0.701346 0.0647982 0.183019 7 1 3 
8811 5 0.464736 0.0749461 0.221493 -2 1 2 
7713 5 0.101075 0.142036 0.157165 0 0 1 
8641 6 0.0204438 0.155938 0.178003 0 -3 -3 
6233 6 0.687994 0.169933 0.2017 2 8 -4 
8457 6 0.808291 0.129041 0.170143 1 -1 -4 
5591 5 0.837145 0.151733 0.140889 3 3 7 
5015 6 0.194144 0.162278 0.185762 -2 0 -1 
5703 6 0.269878 0.143017 0.167507 3 -2 -1 
8210 6 0.303138 0.199611 0.216062 -2 3 4 
7628 6 0.102276 0.261915 0.157302 -2 0 3 
8348 5 0.324657 0.23835 0.189195 3 -2 -1 
7348 6 0.474759 0.216274 0.145734 -2 -3 3 
8872 5 0.789369 0.215194 0.152932 -1 5 4 
6247 5 0.372159 0.298314 0.163511 1 2 -4 
8799 6 0.814521 0.281056 0.165362 -1 3 -3 
8268 6 0.313729 0.327367 0.161738 1 4 1 
5730 5 0.612518 0.360193 0.205895 0 3 -6 
5759 5 0.410684 0.376507 0.207633 0 -1 -4 
8366 6 0.588759 0.364686 0.125762 1 1 0 
8228 5 0.819025 0.339538 0.167538 4 2 1 
6603 6 0.799571 0.354488 0.208398 -4 -2 1 
5317 6 0.443688 0.362458 0.161431 -4 -3 -7 
7214 6 0.475521 0.328506 0.1592 -3 -1 1 
6340 6 0.898773 0.35879 0.157199 1 0 0 
6527 6 0.293968 0.411513 0.158484 4 5 4 
7894 5 0.308647 0.386907 0.165371 0 2 2 
8550 5 0.755666 0.406567 0.158095 0 2 -2 
7884 6 0.948974 0.423192 0.180325 -2 -1 4 
8208 6 0.931515 0.40302 0.161421 0 5 6 
7729 6 0.124418 0.481677 0.198255 0 3 -1 
7770 5 0.23185 0.427119 0.15926 -2 0 1 
8284 6 0.341218 0.426543 0.164448 0 -3 0 
5102 6 0.45155 0.506943 0.179856 4 0 -3 
8110 6 0.357117 0.486258 0.143369 0 5 2 
8127 6 0.416559 0.516807 0.138549 -2 -1 0 
8265 5 0.340621 0.531524 0.216009 3 -5 -3 
8604 5 0.430488 0.551329 0.169819 -2 2 6 
7988 5 0.664029 0.568711 0.195386 4 -2 -2 
7928 6 0.527287 0.65345 0.184097 -7 -2 0 
5506 5 0.631302 0.611872 0.201631 0 2 1 
7308 5 0.755303 0.660294 0.182905 1 -2 1 
6348 6 0.78942 0.670819 0.162815 -1 0 -3 
6054 6 0.269615 0.733595 0.180719 4 4 7 
7222 6 0.577911 0.653184 0.173477 -2 -1 0 
8669 5 0.778402 0.738332 0.187733 3 -2 4 
8084 6 0.995569 0.726794 0.149914 -3 -4 6 
7503 6 0.443854 0.756505 0.167209 1 0 -2 
8169 6 0.624887 0.719834 0.141848 0 1 0 
5470 5 0.912988 0.724893 0.185297 1 0 2 
7703 5 0.577973 0.77625 0.165079 -2 -3 3 
8009 5 0.588961 0.785455 0.234658 -6 2 4 
7103 5 0.149093 0.829264 0.180388 4 -3 -3 
8407 6 0.609998 0.83352 0.167072 -1 8 8 
8716 5 0.705421 0.812118 0.216801 -4 -1 -1 
8897 5 0.669968 0.849732 0.14913 7 -1 1 
6296 6 0.168381 0.795547 0.182632 3 -2 -6 
5776 6 0.490199 0.840644 0.136026 -4 -2 -2 
5774 5 0.520179 0.828333 0.133605 -4 1 3 
7980 6 0.15885 0.847528 0.155769 3 -2 5 
6571 6 0.186166 0.894671 0.189938 -4 -3 -2 
7410 6 0.871574 0.838375 0.182869 -2 0 -1 
6835 6 0.237386 0.868141 0.209079 3 0 0 
7712 6 0.547602 0.923059 0.174144 0 3 2 
6673 6 0.610689 0.921601 0.174591 -4 2 6 
6997 5 0.130292 0.913754 0.163257 -1 -2 -1 
7498 6 0.316538 0.931759 0.166016 -2 -2 -2 
5406 5 0.693913 0.933209 0.182069 -1 -1 3 
7709 6 0.9491 0.940671 0.210342 -3 6 0 
5262 5 0.323856 0.935014 0.190671 -2 -4 -1 
7478 6 0.960454 0.92559 0.14743 -1 3 1 
6403 6 0.989605 0.944651 0.21231 1 0 -1 
6684 5 0.552127 0.945885 0.16982 -1 -1 -2 
8048 5 0.50038 0.990134 0.161656 2 -1 1 
6324 6 0.790726 0.0624551 0.230124 -2 1 -1 