ITEM: TIMESTEP
20000000
ITEM: NUMBER OF ATOMS
9000
ITEM: BOX BOUNDS pp pp pp
-75 75
-75 75
-75 75
ITEM: ATOMS id type xs ys zs ix iy iz 
8150 5 0.0658569 0.985876 0.00400657 -3 -1 4 
6077 5 0.239212 0.0501934 0.967195 -6 -2 4 
8864 6 0.603884 0.0739098 0.0207815 1 3 1 
7467 5 0.337187 0.0756056 0.0212093 6 1 -2 
7248 5 0.692952 0.104852 0.975123 -7 -1 0 
6403 6 0.185455 0.0699559 0.0202043 -3 -2 6 
8781 5 0.372329 0.0767676 0.0215634 5 3 0 
8237 6 0.762441 0.113717 0.00183313 1 -3 -2 
5286 6 0.235438 0.13984 0.989715 4 1 0 
8296 5 0.670044 0.136142 0.0211144 -5 -1 6 
6269 6 0.844438 0.146734 0.0184287 4 3 2 
6204 6 0.376463 0.189955 0.0108467 2 3 -2 
5091 5 0.468356 0.172702 0.00303304 1 -2 -4 
6943 5 0.802173 0.186437 0.0203094 0 -2 2 
5002 6 0.0448905 0.191367 0.0491733 3 -5 -3 
7060 5 0.350321 0.241782 0.0586294 0 2 -3 
7763 5 0.66702 0.212778 0.0141249 -3 2 -1 
6654 5 0.80433 0.22704 0.0114542 2 1 5 
5419 5 0.0387853 0.231495 0.0085826 -2 -3 1 
7559 6 0.394003 0.276695 0.00774846 2 5 -2 
8869 5 0.972232 0.231759 0.0291954 -4 -2 -3 
6906 5 0.614435 0.296018 0.00385815 -1 2 0 
6487 5 0.451097 0.361779 0.0525196 1 -1 0 
8926 6 0.667037 0.317453 0.0316105 2 1 3 
8798 6 0.0505778 0.357678 0.0220031 5 6 3 
6273 6 0.0398156 0.436434 0.00319413 -3 -3 1 
6340 6 0.77303 0.393963 0.0412157 1 -3 0 
7608 6 0.744821 0.365007 0.00204318 -3 3 -3 
8855 5 0.356151 0.409894 0.0101483 2 -3 4 
8380 6 0.329811 0.445388 -0.00187289 2 -1 4 
5621 6 0.888561 0.410713 0.0243097 1 -3 -1 
6978 6 0.319085 0.427892 0.992554 -3 0 -2 
5023 6 0.332565 0.45285 0.0358751 0 0 -4 
6918 6 0.0748301 0.478509 0.0371609 2 -2 1 
6383 6 0.802493 0.485035 0.999139 0 -6 2 
5326 6 0.715494 0.481081 0.00248581 3 1 -1 
5201 5 0.968122 0.541801 0.0159093 -2 -1 1 
8993 5 0.395031 0.523972 0.993099 -1 4 1 
5541 6 0.529933 0.516619 0.0272189 -5 -3 -4 
6111 6 0.707453 0.54632 0.999931 -1 4 -1 
8493 6 0.221473 0.55152 0.0280148 0 3 2 
7450 5 0.840157 0.524666 0.0229242 -2 -1 -2 
8876 5 0.122163 0.552602 0.997522 -4 -1 0 
7199 6 0.454374 0.560712 0.0290911 -1 -2 -2 
8517 6 0.862746 0.601963 0.00930873 -3 0 -1 
5605 5 0.928849 0.578286 0.987457 -4 -1 1 
5827 6 0.518698 0.585582 0.974719 4 -1 0 
8248 6 0.0533487 0.659148 0.0227218 -1 1 0 
8000 6 0.0825396 0.677525 0.0230124 0 2 7 
8096 5 0.81064 0.664855 0.0169286 -1 -2 4 
8033 6 0.843029 0.68055 0.0331537 3 0 -1 
7183 6 0.855591 0.690521 0.0274828 -2 5 -2 
5553 5 0.723098 0.713054 0.0207597 -1 3 2 
6708 6 0.955853 0.71098 0.999706 1 -4 0 
6797 5 0.22296 0.71772 0.990639 4 1 0 
7114 6 0.99928 0.729005 0.0262407 2 -3 -1 
7420 5 0.706257 0.769157 0.992227 3 -6 -2 
8883 5 0.362732 0.81273 0.0105293 -2 1 3 
7621 6 0.44611 0.80567 0.0191303 2 2 -1 
6117 6 0.457393 0.862157 0.0190466 -3 1 0 
7602 5 0.143853 0.872544 0.00678496 2 0 -4 
7558 6 0.15668 0.895069 0.00811318 -1 -4 3 
7137 6 0.891162 0.961639 0.0393071 1 -3 0 
6076 5 0.563522 0.961328 0.996565 0 0 0 
6676 6 0.796131 0.976362 0.997034 -7 -5 -2 
6039 5 0.86308 0.962711 0.0626007 3 3 1 
8326 5 0.879929 0.944889 0.0218355 0 -1 -1 
6452 5 0.705217 0.990074 0.019536 1 1 -1 
6828 6 0.189259 0.0357982 0.0159951 -2 2 -1 
5591 5 0.402086 0.0347966 0.0173648 -1 2 3 
6963 6 0.45906 0.0209681 0.0587304 0 2 -2 
7236 6 0.879302 0.996624 0.0628433 1 -2 2 
8224 5 0.315368 0.00275658 0.00310392 2 -1 3 
6598 5 0.470613 0.0328207 0.00436812 4 0 1 
7394 6 0.661328 0.0717421 0.0579107 4 -2 -3 
7465 5 0.0726162 0.019119 0.033639 3 -4 -3 
8923 5 0.929428 0.0462989 0.0341525 0 2 0 
5788 5 0.340482 0.0631206 0.0314405 3 2 3 
5829 5 0.656149 0.0784238 0.0396148 -1 -2 -4 
6605 6 0.763559 0.0814874 0.0798 1 0 -3 
6897 6 0.736438 0.0962649 0.0322183 -2 4 3 
8686 5 0.0168517 0.148975 0.00469921 2 4 1 
7528 6 0.072436 0.136374 0.0170467 0 1 -4 
8415 6 0.354967 0.141679 0.00217938 0 0 5 
5249 5 0.804469 0.100257 0.0449364 -1 -1 3 
7774 5 0.0676214 0.129725 0.0328078 1 2 4 
5411 6 0.00792249 0.183754 0.0149255 5 -6 4 
8694 6 0.915679 0.179969 0.0203983 -3 0 4 
8161 6 0.869435 0.203899 0.00766303 -2 -2 1 
6696 6 0.167319 0.24098 7.17973e-05 -3 -2 -1 
5310 5 0.163804 0.232123 0.0340715 1 2 -6 
6846 6 0.252336 0.243562 0.0211222 -5 -3 1 
8100 5 0.32265 0.220327 0.0689292 2 4 -6 
5690 6 0.346949 0.225265 0.0514133 -7 -1 2 
6194 5 0.416126 0.21941 0.0159361 -2 1 -6 
6022 5 0.679538 0.24061 0.0404835 0 1 -1 
6569 6 0.980355 0.206522 0.0107609 -6 0 1 
5179 6 0.303792 0.278701 0.0147529 3 2 6 
7986 5 0.742681 0.284733 0.0390027 3 -1 4 
7918 5 0.0190359 0.271909 0.0243718 2 3 0 
7363 5 0.151265 0.270056 0.0257202 3 -1 4 
8546 6 0.512035 0.274085 0.0509749 4 2 2 
5142 5 0.951901 0.281071 0.0571706 0 3 -2 
5339 6 0.457085 0.296426 0.0407443 -3 -2 -4 
8339 6 0.890741 0.334382 0.037297 -1 0 1 
7471 5 0.146221 0.320059 0.0302956 -6 -2 -3 
8418 6 0.757673 0.337323 0.0254965 1 7 1 
8723 5 0.739926 0.326205 0.0198113 0 2 3 
8760 6 0.605207 0.42433 0.019791 3 2 -2 
7890 5 0.578123 0.410772 0.00931454 -3 -5 0 
7634 6 0.220835 0.418343 0.0712733 2 1 1 
8454 5 0.417005 0.459688 0.0614741 -1 1 4 
5836 6 0.485422 0.445879 0.0444491 -4 -3 -3 
8749 6 0.0295709 0.483259 0.0214362 1 -3 2 
5150 6 0.382188 0.482721 0.0501334 -2 5 3 
5961 5 0.42378 0.502835 0.0204721 -1 2 -6 
7963 6 0.628028 0.519354 0.0196118 -1 -2 0 
7401 6 0.772934 0.533274 0.032583 3 1 4 
8965 6 0.516029 0.566297 0.0670761 1 2 -2 
7053 6 0.646934 0.549884 0.00782528 -6 -3 3 
8705 6 0.0118107 0.605642 0.0555411 0 -1 1 
5875 6 0.480927 0.612992 0.00320005 0 0 0 
8879 6 0.825897 0.619314 -0.0006882 4 0 -1 
6073 5 0.0221503 0.628558 0.994408 -1 -1 3 
8983 6 0.202532 0.645027 0.0211072 2 -4 1 
7006 5 0.18569 0.607567 0.0351426 2 4 3 
5671 5 0.362232 0.632671 0.0520515 4 2 1 
7886 6 0.409553 0.628583 0.0232819 1 -2 -1 
7416 5 0.64811 0.665812 0.0246469 -9 1 1 
7359 6 0.986646 0.670982 0.012062 -6 2 2 
7694 6 0.272047 0.688735 0.0630473 1 5 -2 
5516 5 0.147792 0.687504 0.0451226 -1 2 2 
7194 5 0.153129 0.710598 0.0279199 2 -4 0 
6548 5 0.384246 0.679722 0.00245553 -1 -1 -1 
6960 6 0.0195968 0.717369 0.0639593 -2 -1 1 
8066 5 0.246587 0.737137 0.997261 1 -3 -4 
6988 6 0.834735 0.664739 0.0580962 -1 6 1 
8846 6 0.174796 0.765678 0.0301765 0 4 0 
7338 5 0.796285 0.758593 0.012058 -1 0 2 
7794 6 0.575324 0.811239 0.0141322 -1 1 2 
5853 6 0.211326 0.825024 0.0291236 -3 -2 1 
6206 5 0.759978 0.827103 0.99858 5 -2 -1 
5845 6 0.960864 0.8401 0.0257173 1 -6 0 
8796 5 0.0676088 0.876965 0.0574901 0 -2 3 
6750 6 0.57388 0.856708 0.0366941 -1 1 2 
7356 5 0.784964 0.836263 0.00414251 -2 -3 2 
7773 6 0.0517772 0.869912 0.00225622 1 1 -5 
5809 6 0.16804 0.885932 0.0752839 1 1 3 
7448 6 0.420777 0.898278 0.0448837 3 -1 -1 
5586 5 0.460847 0.848998 0.0555589 2 1 -1 
7722 6 0.820044 0.858591 0.0166227 -5 1 0 
8370 5 0.291419 0.887734 0.0378023 3 -3 0 
6623 5 0.484982 0.918654 0.0779954 2 -2 -5 
5576 6 0.623014 0.892003 0.0464448 -1 5 0 
6425 6 0.0943102 0.941411 0.0283199 3 -6 3 
6445 6 0.262799 0.922755 0.0552938 2 3 -1 
7908 6 0.304002 0.920121 0.0674423 -5 -1 -1 
8557 5 0.308506 0.91477 0.0378946 5 -3 -2 
8568 5 0.249437 0.914224 0.0381386 0 -1 2 
6811 5 0.139208 0.968536 0.0744131 4 1 -1 
8790 5 0.830467 0.941091 0.0610372 -3 -5 -3 
7532 5 0.663047 0.0187171 0.0520571 2 1 -1 
7776 5 0.00936336 0.967894 0.0159655 1 -1 -3 
8974 5 0.0669291 0.0134646 0.0533635 -1 2 -1 
5760 5 0.6891 0.00889383 0.0445663 -6 -1 2 
6349 5 0.531016 0.0552713 0.0878606 -1 1 -2 
6642 6 0.854094 0.10582 0.0221024 -2 -1 -3 
8669 5 0.330239 0.0728521 0.0405662 -1 0 -1 
5980 6 0.470576 0.0820749 0.102114 0 2 7 
8819 5 0.686969 0.0653717 0.0539055 7 6 -4 
8032 5 0.486886 0.0921587 0.0218783 2 -5 -4 
7866 6 0.36208 0.177223 0.0859074 10 0 4 
8696 5 0.61649 0.164011 0.0812909 -5 -2 2 
8246 5 0.293779 0.185289 0.0593372 4 1 2 
7409 5 0.397818 0.237395 0.0598549 2 -3 -8 
8172 6 0.528481 0.18959 0.0521611 0 -3 8 
5528 5 0.592372 0.16583 0.0527276 2 2 2 
5602 6 0.635374 0.219213 0.0801194 1 2 -2 
8793 5 0.822318 0.223491 0.0655431 2 0 4 
8455 5 0.301994 0.19074 0.0276963 6 2 0 
7614 5 0.4332 0.250688 0.105375 -1 1 0 
8538 6 0.462129 0.286725 0.0460386 4 -4 1 
5472 6 0.329667 0.30138 0.0568927 4 -3 -1 
7483 5 0.491444 0.289389 0.0380054 -2 3 3 
7104 6 0.863379 0.313392 0.0703885 0 -2 4 
8910 6 4.85343e-05 0.350126 0.0955067 -4 1 2 
5637 5 0.42237 0.315041 0.0441618 -2 -4 8 
5158 5 0.303895 0.347787 0.060374 2 0 0 
7307 5 0.445925 0.385812 0.0680916 3 -2 1 
8054 6 0.0153532 0.408264 0.0593922 0 -6 -3 
5938 5 0.605069 0.404233 0.061818 -4 4 -4 
8953 5 0.880393 0.415807 0.0752722 -2 -4 -2 
7702 6 0.872151 0.410784 0.0813041 -2 2 5 
5695 6 0.858649 0.420579 0.0893109 1 1 2 
6782 5 0.995166 0.426235 0.042885 0 2 3 
8947 5 0.096787 0.465526 0.0560483 2 0 -4 
8800 6 0.254719 0.495863 0.0572602 4 -2 -4 
8899 5 0.583111 0.483572 0.0597337 -3 2 -1 
7906 6 0.269346 0.521753 0.997358 4 -3 3 
5087 5 0.925819 0.538706 0.0717621 -4 -2 1 
6114 6 0.194414 0.560186 0.0564968 0 2 -1 
6446 6 0.360964 0.501398 0.0490482 1 -2 -1 
6302 6 0.446637 0.542168 0.0378284 -1 -1 0 
6193 5 0.360034 0.570781 0.0181296 2 2 4 
7148 6 0.446614 0.524907 0.015578 -1 2 -3 
5276 6 0.485761 0.492658 0.0175617 0 9 2 
8685 5 0.0966444 0.602487 0.0175303 -4 -3 5 
8502 6 0.660473 0.600958 0.0597853 -3 1 -1 
5874 6 0.649834 0.579523 0.0746676 -2 -1 2 
5041 5 0.800663 0.575206 0.0734624 -5 -5 -2 
5758 5 0.910614 0.558767 0.0557171 -5 3 3 
6477 5 0.065208 0.583099 0.0883797 0 -1 -2 
7606 6 0.356536 0.610364 0.0830107 2 -3 1 
5288 5 0.592666 0.567002 0.0306036 1 -3 -1 
8664 6 0.67868 0.591191 0.0371407 -1 -5 5 
8304 6 0.988007 0.608841 0.0735292 4 -2 3 
6323 6 0.566456 0.626364 0.0923608 -4 -1 2 
5350 5 0.571966 0.644493 0.0775453 -3 -2 0 
7362 5 0.763919 0.672225 0.0372832 -2 -3 -2 
6319 6 0.0831892 0.747166 0.0607735 -1 1 -3 
6717 6 0.234829 0.71076 0.0379362 -2 -2 0 
8130 5 0.257091 0.700579 0.0433461 2 -2 -1 
5410 6 0.517434 0.663913 0.0792238 -1 -2 -1 
7891 6 0.00687852 0.698398 0.0656378 4 -1 -1 
7647 6 0.816253 0.690591 0.0730737 -1 0 1 
8565 6 0.482272 0.737967 0.0514686 -2 6 0 
8780 6 0.0165207 0.740688 0.0598088 1 -4 -2 
8261 6 0.529084 0.786395 0.0803559 -3 -1 -1 
6056 6 0.710599 0.768261 0.0548277 -5 1 -2 
7883 6 0.891389 0.766897 0.00276523 3 -2 -1 
8156 6 0.0342078 0.798656 0.0267647 0 2 0 
8986 5 0.443268 0.796949 0.0759677 2 1 6 
6473 5 0.942447 0.80009 0.0813775 -3 1 5 
5831 6 0.549153 0.799423 0.0261472 1 -1 3 
5153 5 0.101388 0.818061 0.0274538 3 -2 4 
8157 5 0.459833 0.876098 0.0866228 0 2 2 
7996 5 0.487942 0.852217 0.0650687 2 3 3 
7542 5 0.639048 0.890485 0.0787079 -3 2 0 
8396 6 0.267245 0.936538 0.0453537 -1 -1 0 
6344 5 0.964174 0.933485 0.0477668 -1 3 0 
8832 6 0.045885 0.927621 0.0282737 0 2 2 
8594 6 0.299221 0.985556 0.0496788 -2 -5 3 
7615 6 0.149661 0.988618 0.0504868 2 -7 2 
8055 5 0.215622 1.00002 0.0390726 -4 6 4 
5947 5 0.823565 0.00672709 0.0947878 -7 2 0 
8882 6 0.0565682 0.0183275 0.0812535 -4 0 0 
6125 6 0.201491 0.0325053 0.075702 2 0 -5 
8249 6 0.29211 0.066848 0.086378 -1 6 1 
5712 5 0.867292 0.0419825 0.0843703 -1 4 6 
8672 5 0.931855 0.00773611 0.0681056 -4 2 4 
7896 6 0.98902 0.0629433 0.101631 -3 -1 -7 
7871 6 0.368367 0.0906869 0.0626634 1 -2 -1 
8806 5 0.436428 0.0543558 0.117156 3 -3 -2 
6826 6 0.493303 0.0973263 0.114948 1 -1 2 
8644 5 0.591019 0.074167 0.122286 -3 3 2 
5644 5 0.657366 0.117929 0.0937803 -2 -1 -1 
5145 6 0.869396 0.110681 0.074352 3 -1 -3 
6137 5 0.566057 0.142994 0.111236 2 2 3 
7575 5 0.68266 0.117726 0.0687898 -4 1 -1 
6372 6 0.855025 0.126551 0.0760155 -1 3 1 
7618 5 0.694514 0.118645 0.119853 2 -3 7 
8959 5 0.988065 0.143398 0.0834417 1 1 1 
8575 5 0.199917 0.152197 0.053385 3 0 2 
6830 6 0.39524 0.150311 0.0733951 -4 7 3 
7030 5 0.702499 0.172036 0.0574202 3 2 1 
6456 6 0.286149 0.200336 0.100886 2 2 2 
5191 5 0.96331 0.24741 0.0801175 -3 1 0 
7169 5 0.941896 0.258632 0.0767306 -2 2 6 
5061 6 0.0796682 0.281733 0.0436162 2 -2 -1 
6803 6 0.546454 0.287331 0.0810831 0 1 -2 
7734 5 0.653807 0.311837 0.0890309 -3 -3 -2 
5667 6 0.6737 0.364118 0.0800645 3 5 -7 
7174 5 0.326887 0.376191 0.0964181 3 2 1 
7860 6 0.372056 0.363642 0.077264 -2 0 2 
8004 6 0.629814 0.372251 0.0906714 -1 1 9 
7051 5 0.104205 0.398735 0.100428 2 3 3 
5507 6 0.360118 0.402383 0.103914 3 1 2 
8775 6 0.524074 0.417539 0.0722562 2 0 8 
6864 6 0.04436 0.428162 0.0989433 6 -2 1 
6067 5 0.908002 0.429326 0.0571623 1 3 -6 
7105 6 0.0717577 0.433274 0.0552274 0 3 1 
8109 6 0.285608 0.470649 0.0839194 1 -4 2 
8525 6 0.519143 0.47892 0.0673547 2 1 -1 
7640 6 0.633279 0.414317 0.0741801 -4 1 3 
6640 6 0.184842 0.452202 0.0854752 -1 -7 2 
7900 6 0.363628 0.490633 0.0602488 3 -4 -6 
8363 5 0.986774 0.487903 0.0743315 0 -2 0 
5765 6 0.765821 0.504854 0.106277 -4 3 4 
5849 5 0.747704 0.504039 0.129029 0 3 0 
8006 6 0.306532 0.516853 0.0844334 0 -3 2 
7777 6 0.470846 0.571759 0.0565666 -2 4 -1 
6622 5 0.386773 0.602118 0.0929279 -1 -3 4 
7176 5 0.596889 0.621707 0.0829664 1 -2 -1 
5131 5 0.65002 0.622347 0.0704346 -7 2 -1 
8189 5 0.715369 0.640989 0.0665276 1 -4 2 
6901 5 0.245308 0.668502 0.0773551 -3 -7 2 
8309 6 0.667205 0.737811 0.0658115 -2 0 0 
8811 6 0.178843 0.712935 0.0787251 1 6 -3 
7371 6 0.109109 0.761367 0.099557 4 1 3 
7292 5 0.857055 0.715348 0.0868552 -2 2 -1 
7555 6 0.358037 0.770487 0.068529 0 -1 1 
5631 6 0.371024 0.70202 0.049017 -2 -5 4 
7123 6 0.735417 0.719312 0.0946071 0 -1 2 
6664 6 0.880272 0.736607 0.0741082 -4 -5 0 
6781 6 0.00280286 0.774182 0.0972356 -2 -3 0 
6852 6 0.418127 0.787229 0.087466 -3 0 0 
7507 6 0.649979 0.79565 0.112715 0 -3 3 
6608 5 0.707056 0.763979 0.0710766 -2 6 5 
7592 6 0.975597 0.765651 0.0439481 -2 0 3 
7924 6 0.0797118 0.831211 0.052845 -1 -6 2 
7754 6 0.490925 0.830932 0.0850711 1 -2 3 
6371 5 0.610904 0.812257 0.0715198 5 -2 -1 
8241 6 0.224498 0.818144 0.0790152 0 1 1 
8530 5 0.695006 0.851017 0.143742 1 7 2 
7521 6 0.837247 0.845767 0.0955935 1 0 3 
5734 6 0.30514 0.839175 0.0637258 -1 -2 4 
5982 6 0.506163 0.916953 0.0956375 3 -4 4 
5587 6 0.571063 0.850961 0.0890426 1 -2 6 
6806 6 0.395109 0.936794 0.106068 1 2 6 
8990 5 0.710655 0.861407 0.117774 -6 -4 2 
5968 6 0.994036 0.967863 0.0688659 1 -2 1 
9000 6 0.0138803 0.956856 0.0798028 -4 -6 -1 
5004 5 0.421409 0.970319 0.094049 -1 -3 1 
8439 5 0.613514 0.930892 0.0955616 -1 -1 5 
5048 6 0.802961 0.97946 0.0944293 3 -4 1 
8847 6 0.845083 0.943685 0.0551064 -3 0 -2 
8444 5 0.911904 0.0173916 0.0827323 -2 0 -1 
6553 6 0.976975 0.976443 0.0508583 -1 -2 0 
6250 6 0.104766 0.000258233 0.0814792 4 3 -1 
5040 6 0.725554 0.0201033 0.0911741 2 1 0 
6629 6 0.784682 0.0153938 0.078474 -4 -1 -1 
8850 6 0.0706968 0.0627587 0.0506747 2 2 -1 
7110 6 0.901974 0.0319711 0.106003 2 -4 -2 
6545 6 0.152469 0.0803966 0.091513 5 -1 6 
7211 6 0.594002 0.098723 0.108163 -3 3 2 
6657 6 0.65999 0.106881 0.102603 1 4 -2 
7652 6 0.729471 0.107904 0.104153 -1 -1 -2 
6177 5 0.138838 0.112104 0.101484 4 -1 4 
6037 5 0.00160787 0.115977 0.0965567 2 -1 0 
8509 5 0.925833 0.156899 0.117259 0 1 4 
5903 5 0.301877 0.170941 0.0936414 0 1 -3 
8255 5 0.786757 0.188627 0.0962069 0 -6 -2 
5628 6 0.828999 0.188942 0.120444 3 2 0 
5453 6 0.343276 0.181608 0.11779 2 -1 3 
6603 5 0.837998 0.201786 0.115036 -2 -4 -4 
8477 5 0.541131 0.234129 0.132172 1 -4 -4 
8930 5 0.540908 0.219437 0.0689326 -2 2 1 
7410 5 0.912758 0.300082 0.094065 4 2 -1 
7752 6 0.00537115 0.259427 0.103502 2 -1 4 
6644 6 0.651144 0.300174 0.0738768 1 1 1 
5929 6 0.116995 0.322721 0.0773228 0 -4 2 
7238 6 0.712991 0.376407 0.117331 3 5 2 
8797 6 0.251898 0.300271 0.0869084 -7 3 1 
7703 5 0.450976 0.369334 0.0628197 -4 3 0 
6028 6 0.52842 0.365302 0.0775763 -2 2 3 
8957 5 0.56634 0.325518 0.116018 -1 -3 3 
7347 5 0.856431 0.368614 0.114182 0 5 4 
8016 6 0.175637 0.401349 0.0851953 4 4 -1 
6220 6 0.0722505 0.389093 0.0709186 1 -2 3 
5070 6 0.320678 0.421648 0.0996633 1 2 4 
7485 6 0.715776 0.446191 0.100965 -1 -4 -1 
7676 6 0.818499 0.466561 0.0754767 -1 2 -1 
6131 5 0.0240509 0.46583 0.071671 1 -1 -3 
6085 5 0.0398188 0.453652 0.100337 -1 3 3 
6514 5 0.129108 0.470935 0.137025 2 -3 -2 
6962 6 0.603839 0.467942 0.0857729 0 -1 3 
5939 5 0.862831 0.48011 0.0825865 3 6 3 
7716 5 0.682056 0.485247 0.105862 -4 4 1 
8523 6 0.258883 0.483378 0.118878 4 0 2 
5482 5 0.462259 0.533772 0.150002 -2 0 0 
6758 5 0.0185345 0.579558 0.0973438 5 4 5 
6821 6 0.490883 0.531834 0.097134 4 -1 -1 
6385 5 0.83536 0.547443 0.0946202 -4 -3 6 
5889 6 0.972476 0.56438 0.0819991 -3 0 1 
6660 5 0.804247 0.647205 0.0241411 1 5 2 
8589 5 0.754821 0.671606 0.10492 -2 3 -2 
7518 6 0.374148 0.616578 0.0851052 -1 0 -2 
5643 6 0.513024 0.636895 0.122978 0 -3 -2 
7790 5 0.323787 0.704213 0.0907316 -3 -2 0 
6080 6 0.382362 0.643519 0.0761392 0 3 1 
5640 5 0.601596 0.637832 0.133188 -3 2 -2 
5119 6 0.744931 0.707286 0.10844 -2 3 1 
5267 5 0.7832 0.684158 0.132643 1 0 3 
7461 5 0.871343 0.661208 0.111304 6 0 -3 
5584 5 0.939515 0.69129 0.140449 -3 -1 -2 
8639 6 0.14669 0.739945 0.132499 -2 4 -4 
5164 6 0.742508 0.710359 0.102124 -1 0 3 
8521 5 0.915976 0.731449 0.107204 -1 -3 1 
8998 6 0.143084 0.751072 0.085673 0 -2 -1 
6226 5 0.535144 0.757333 0.125148 -1 1 2 
6419 6 0.814388 0.688905 0.0810364 -3 3 6 
8140 5 0.640308 0.738977 0.0895088 -1 5 1 
5454 5 0.707975 0.793367 0.10345 1 -3 1 
7500 6 0.922232 0.752106 0.134021 -1 0 5 
7714 5 0.663651 0.813843 0.100622 3 0 -2 
8763 5 0.637149 0.798092 0.0941692 -6 1 2 
7093 5 0.830203 0.793418 0.088836 -2 -1 -1 
5117 5 0.103757 0.870257 0.0917449 -4 4 2 
8747 6 0.944356 0.803288 0.0988931 -3 -3 3 
8574 6 0.459312 0.850204 0.128688 1 -3 0 
6780 6 0.53214 0.874542 0.077931 -3 2 5 
6046 6 0.714408 0.900861 0.0713585 3 3 -3 
7965 6 0.813611 0.830941 0.103352 -3 0 0 
8555 5 0.402894 0.928903 0.114151 0 2 -1 
6898 5 0.0411331 0.921912 0.079472 -1 1 4 
8817 5 0.181388 0.928364 0.0996079 5 2 5 
7035 5 0.611097 0.928604 0.122706 4 -1 6 
7396 5 0.0418612 0.96528 0.11997 -1 -2 1 
7032 5 0.129056 0.957835 0.107799 -3 -3 -2 
6547 6 0.460573 0.933797 0.131776 -1 1 -2 
7509 6 0.709546 0.968021 0.111676 4 -5 -1 
5918 6 0.151373 0.955473 0.0993535 1 -4 -4 
8646 6 0.354904 0.904403 0.108728 -2 2 -7 
5489 5 0.0660345 0.987102 0.134034 2 3 -1 
7380 6 0.165621 0.0334652 0.103876 3 0 2 
7696 6 0.661988 0.0302028 0.104656 4 0 4 
7280 5 0.901193 0.020441 0.119354 0 -1 -1 
7008 5 0.344433 0.0598905 0.126821 -2 -3 -3 
8198 5 0.0619293 0.0896145 0.133117 2 4 2 
8465 5 0.333912 0.100978 0.106653 4 1 1 
7451 5 0.392484 0.0619044 0.151426 1 -2 -2 
7587 5 0.982933 0.0752625 0.154427 1 1 1 
5341 6 0.0230724 0.124911 0.136828 4 1 1 
6465 6 0.0760577 0.106228 0.135973 2 2 5 
6594 6 0.152975 0.12795 0.149724 -3 0 1 
7741 6 0.232538 0.105904 0.144142 -1 1 -1 
8887 5 0.780318 0.128707 0.137154 2 -2 1 
5582 6 0.924126 0.136287 0.18154 -2 7 -3 
6714 5 0.448135 0.165469 0.127191 -2 -2 -2 
8301 5 0.0561296 0.194759 0.108598 0 5 6 
5902 6 0.0663338 0.250195 0.137905 -3 4 2 
5904 6 0.649032 0.198637 0.128033 2 1 3 
5630 5 0.690345 0.246201 0.147389 0 -3 1 
8079 6 0.997437 0.297306 0.112644 -3 -3 3 
8952 5 0.507843 0.287681 0.100701 -1 1 -2 
6463 6 0.640819 0.285285 0.0907274 -4 0 2 
5662 5 0.35673 0.310812 0.130147 2 2 1 
7858 6 0.383752 0.333569 0.115107 -2 1 -5 
5948 6 0.734041 0.374317 0.0959433 2 3 2 
6168 6 0.709306 0.341197 0.131225 5 6 3 
7476 5 0.225383 0.357989 0.163812 2 1 0 
5817 5 0.431756 0.394707 0.109572 -2 -5 1 
8633 6 0.673259 0.392047 0.138937 4 -4 0 
5992 5 0.3808 0.458687 0.122824 1 0 -3 
7098 6 0.761861 0.431293 0.107537 -3 -1 3 
8677 5 0.36436 0.461262 0.109609 -7 -4 -1 
8127 6 0.470063 0.500006 0.1333 0 -5 1 
8641 5 0.646545 0.528748 0.154667 -3 6 0 
7710 6 0.807322 0.47403 0.132085 1 -2 -1 
5862 5 0.405517 0.515351 0.135879 -4 2 1 
8700 6 0.587707 0.535177 0.158088 2 1 1 
6804 5 0.0071164 0.49525 0.105505 2 0 0 
7779 6 0.107671 0.566392 0.151954 5 -2 1 
7346 6 0.108843 0.523768 0.12893 8 -2 1 
5424 5 0.671661 0.512147 0.121874 3 0 -4 
5752 6 0.258464 0.588184 0.145632 -6 -2 0 
7018 6 0.501259 0.593059 0.080405 3 2 1 
6612 6 0.694714 0.611839 0.162507 8 -2 -2 
5673 5 0.896841 0.595033 0.185099 -1 2 0 
5414 6 0.0972623 0.625475 0.0911064 1 -2 0 
8188 6 0.669175 0.620986 0.129724 4 0 4 
6459 5 0.805416 0.614131 0.127578 -3 2 -1 
8766 5 0.520157 0.604011 0.118314 -3 -5 2 
5670 6 0.719993 0.615287 0.113108 -1 4 2 
8480 6 1.00101 0.667542 0.109355 1 4 3 
5946 5 0.0797439 0.6829 0.123796 -1 0 -7 
8082 6 0.490084 0.647346 0.135899 0 0 2 
6343 5 0.973385 0.722899 0.129378 1 -4 2 
6483 6 0.534001 0.838845 0.121215 1 -1 2 
7531 5 0.682032 0.829127 0.129833 0 2 2 
6666 5 0.441423 0.874712 0.105708 2 -2 -5 
5793 5 0.598035 0.884052 0.137348 0 -7 2 
8412 5 0.565263 0.855372 0.126137 -4 1 2 
6247 5 0.611611 0.929406 0.144941 3 -3 -2 
6201 6 0.523847 0.894745 0.123727 1 -3 4 
6176 5 0.624529 0.912312 0.126682 3 1 -1 
5207 6 0.958582 0.890791 0.115937 1 3 0 
5852 6 0.0981752 0.9459 0.15015 -2 -3 3 
5773 5 0.348651 0.952302 0.0979547 -1 1 1 
7316 5 0.714578 0.0041938 0.13535 3 -4 -1 
6365 6 0.94218 0.94313 0.126577 3 1 2 
7385 6 0.810715 0.972312 0.134394 3 -1 0 
5330 5 0.391414 0.967514 0.142363 3 -2 4 
6972 5 0.0679407 0.0452933 0.158738 -2 1 1 
8844 6 0.173054 0.976613 0.126758 3 -2 2 
7546 5 0.867582 0.0142781 0.111636 0 -1 1 
7630 6 0.275975 0.089233 0.113866 1 2 -3 
5711 6 0.636171 0.0434701 0.18396 0 -1 -3 
7383 6 0.162321 0.0972101 0.102394 -1 0 0 
5539 6 0.519711 0.0747935 0.115571 0 0 -1 
6261 5 0.535956 0.086964 0.129903 -1 3 -3 
8238 5 0.528639 0.0864997 0.195728 -4 0 -3 
8312 5 0.363537 0.124172 0.174546 1 5 -1 
7563 5 0.326517 0.119151 0.139616 -5 -2 1 
5265 6 0.192499 0.138495 0.143155 1 -5 -1 
8653 5 0.259769 0.127735 0.115819 -1 2 -3 
8485 6 0.524896 0.0975774 0.145808 2 -4 -5 
6902 5 0.545753 0.117461 0.128883 1 1 1 
6449 6 0.293013 0.152113 0.153465 -1 -1 0 
5551 6 0.876904 0.131747 0.166781 -1 3 4 
6680 5 0.589056 0.181244 0.138249 1 2 -2 
8933 5 0.239991 0.271454 0.1483 -2 1 -1 
5700 5 0.3105 0.226985 0.12977 -1 -1 -1 
8216 5 0.877382 0.237739 0.135664 -5 -2 0 
8220 6 0.892949 0.19861 0.124011 -5 -1 0 
6156 6 0.925057 0.268267 0.119399 2 2 -3 
5351 5 0.619796 0.259445 0.116465 -4 2 6 
5486 6 0.0294868 0.279379 0.127595 0 -1 1 
7853 5 0.774577 0.297571 0.179034 -2 -6 5 
8459 6 0.30489 0.344957 0.150521 -2 4 3 
6189 6 0.908473 0.29221 0.108601 -2 -4 -7 
7909 6 0.963973 0.275693 0.133284 -1 0 -1 
6496 6 0.125031 0.306003 0.162612 -1 1 0 
6867 5 0.132542 0.314351 0.183746 1 -1 6 
8120 6 0.143797 0.320491 0.163216 2 4 -3 
5799 6 0.500101 0.387744 0.129135 5 0 4 
7755 6 0.914404 0.35919 0.147036 -5 -2 -2 
8391 5 0.202835 0.425827 0.136621 3 1 -3 
5601 5 0.690264 0.426954 0.152315 -5 -3 0 
6646 6 0.0989013 0.4198 0.159272 0 0 -2 
7116 6 0.737905 0.440262 0.142117 0 1 -2 
5086 6 0.715304 0.412151 0.160227 0 1 4 
8288 5 0.947135 0.412884 0.10545 0 -5 3 
8687 5 0.0211795 0.455302 0.181266 4 1 1 
7938 6 0.303797 0.431461 0.131843 0 -1 -2 
5210 6 0.513235 0.484791 0.0949493 -1 -5 0 
5068 6 0.909925 0.461591 0.151663 1 0 -4 
5525 6 0.0536618 0.502463 0.178406 0 6 1 
6470 5 0.235866 0.494129 0.117623 -2 -3 1 
5450 5 0.690449 0.510328 0.157744 6 1 4 
8199 6 0.383456 0.512204 0.128069 -2 0 3 
5759 5 0.848028 0.528228 0.13642 0 -1 -2 
6889 5 0.476594 0.58147 0.152782 1 -4 3 
6742 6 0.577034 0.550815 0.145282 -2 6 3 
7639 6 0.0371064 0.56981 0.155912 -3 1 1 
6130 5 0.443268 0.580677 0.157759 0 8 -2 
5687 5 0.626418 0.575144 0.137666 4 -1 -2 
5496 6 0.967944 0.574049 0.157133 -3 2 1 
5975 6 0.0639347 0.586212 0.15731 -1 4 4 
7811 6 0.268375 0.609745 0.155178 1 -3 -2 
6355 6 0.569827 0.60995 0.133476 -1 2 4 
7503 6 0.504031 0.678946 0.135846 2 -5 0 
6475 5 0.653184 0.629471 0.126598 3 5 2 
6961 6 0.00841338 0.704759 0.159192 1 -4 0 
5093 5 0.111842 0.67417 0.146459 -1 -6 -5 
8893 5 0.708062 0.664562 0.124195 -2 -2 -2 
7085 5 0.308009 0.734762 0.151454 -6 -4 0 
7547 6 0.564671 0.679811 0.135769 2 1 0 
5910 6 0.655449 0.656997 0.154186 0 0 -3 
7667 6 0.794047 0.668481 0.146197 0 3 2 
8260 5 0.138147 0.72686 0.134639 2 6 2 
7430 6 0.315168 0.711087 0.146879 -4 -2 3 
6921 6 0.42001 0.76326 0.125652 1 -7 5 
7445 6 0.399148 0.738189 0.179695 -1 2 -4 
7089 6 0.467639 0.752584 0.125283 -2 -2 3 
5863 5 0.500832 0.712484 0.132487 -3 1 3 
5213 6 0.698146 0.702694 0.140797 -1 0 4 
6515 6 0.952092 0.736871 0.148644 6 5 0 
7845 5 0.961393 0.692092 0.15239 5 2 -5 
5719 6 0.460126 0.743785 0.128037 -2 -2 5 
8838 6 0.957734 0.766712 0.173208 -2 -3 5 
8187 5 0.826949 0.78228 0.13431 1 -1 4 
6713 6 0.9972 0.829661 0.163098 -1 -1 -2 
6681 6 0.797754 0.788825 0.113217 0 0 2 
5651 6 0.0365375 0.812857 0.149627 2 -2 -2 
7818 6 0.470361 0.813848 0.176435 -1 1 -4 
5603 5 0.854443 0.845302 0.198901 -5 -3 2 
6144 5 0.162139 0.860162 0.12767 -3 -2 1 
5579 6 0.0317296 0.870024 0.187316 -2 -2 0 
8550 5 0.492379 0.894434 0.158121 -2 -1 -1 
7887 6 0.66574 0.893175 0.172912 -1 -4 1 
5230 5 0.776033 0.917739 0.161424 1 0 5 
7627 5 0.865954 0.926236 0.11015 1 -1 4 
5317 6 0.948075 0.919089 0.136176 0 0 0 
6014 6 0.58441 0.947419 0.169579 6 -3 3 
5477 6 0.596516 0.942447 0.144459 1 -1 -1 
7382 6 0.595011 0.950698 0.155631 1 -4 0 
8010 6 0.282234 0.973287 0.128091 2 -4 0 
7458 5 0.531451 0.979844 0.134551 1 -2 1 
6631 5 0.63269 0.97986 0.145812 2 5 0 
7326 6 0.29215 0.0117732 0.139952 -1 2 5 
6554 6 0.535439 0.00809197 0.16678 3 2 -1 
8468 6 0.607447 0.983456 0.158918 -1 -2 -2 
6190 6 0.120637 0.0231555 0.150241 0 -2 -1 
7300 6 0.951886 0.04469 0.185987 4 5 -3 
6587 5 0.0493669 0.024585 0.16166 -2 5 2 
5369 5 0.222181 0.0104409 0.169911 -2 6 -1 
8385 6 0.439223 0.0350201 0.175338 -4 -4 -1 
7806 6 0.561575 0.0551489 0.21099 -1 1 -1 
8435 5 0.804218 0.0283786 0.185651 1 6 1 
7898 6 0.0426304 0.0347998 0.172823 5 0 1 
8605 6 0.533557 0.0818203 0.136504 4 -3 3 
7732 6 0.710847 0.0757166 0.162624 -8 -1 3 
6871 5 0.395088 0.111582 0.158808 0 4 -4 
5435 6 0.551862 0.107884 0.195422 -6 -3 0 
5270 6 0.224187 0.151287 0.167064 -2 -3 -1 
7991 6 0.344578 0.123315 0.163457 0 -6 -1 
7588 5 0.763749 0.172961 0.166921 -6 -2 -3 
6999 6 0.218489 0.189403 0.196297 -2 4 -4 
5055 6 0.0579697 0.201044 0.175373 -4 3 -3 
5128 5 0.445337 0.168898 0.171475 3 -2 -4 
5778 6 0.873325 0.180031 0.15275 0 0 2 
6391 5 0.0629218 0.187801 0.208673 1 0 -1 
5894 5 0.0264754 0.268603 0.172675 -1 2 3 
6129 6 0.482344 0.200487 0.174548 4 1 -1 
6289 6 0.924297 0.242189 0.12888 0 3 4 
5530 5 0.0584862 0.242187 0.166679 0 -2 0 
8802 6 0.0839685 0.263274 0.118018 0 -4 0 
6369 5 0.604864 0.233584 0.211846 4 3 -2 
6731 6 0.13291 0.272403 0.192901 1 1 3 
7354 5 0.887778 0.252514 0.180195 1 1 3 
8181 6 0.955864 0.278451 0.141056 -4 1 2 
5019 6 0.994162 0.303098 0.130278 3 -1 -2 
7850 5 0.732793 0.367165 0.182614 -2 1 1 
5856 6 0.258832 0.360825 0.202059 2 -1 1 
7837 5 0.301389 0.381142 0.184625 1 -2 2 
8361 5 0.47225 0.35543 0.172558 3 0 2 
7979 6 0.686568 0.38561 0.147897 0 3 -2 
5217 5 0.0778432 0.349501 0.156082 -3 1 0 
6047 6 0.613772 0.399622 0.136186 1 2 0 
5132 6 0.173402 0.454597 0.201867 1 7 2 
6333 6 0.119962 0.455212 0.17325 -1 0 -3 
8443 6 0.233774 0.449223 0.143692 2 -4 4 
5491 5 0.567501 0.445063 0.214247 0 1 3 
8825 6 0.730507 0.446911 0.17478 -2 -1 1 
5594 5 0.796447 0.453557 0.171096 2 2 3 
7151 6 0.637414 0.460723 0.160776 5 0 1 
5051 5 0.825239 0.469471 0.184107 -1 4 2 
5811 5 0.42123 0.495838 0.17582 -1 0 0 
7216 5 0.347774 0.552944 0.136434 3 3 1 
5300 5 0.238912 0.539838 0.152372 0 -2 -2 
6690 6 0.748744 0.584439 0.131307 -2 1 -8 
5717 5 0.0313435 0.562898 0.19083 1 3 -2 
5066 5 0.699734 0.577685 0.153466 -1 1 3 
5200 5 0.96427 0.611851 0.203668 3 -2 0 
5054 5 0.0839569 0.626846 0.178352 -1 -4 -3 
6008 5 0.445425 0.629736 0.190092 -1 -2 1 
8928 6 0.649579 0.699565 0.159992 2 0 0 
7278 5 0.813444 0.679366 0.220611 0 2 2 
7765 6 0.135146 0.719599 0.180696 -3 3 -1 
5430 6 0.371822 0.720075 0.194784 3 2 -3 
8527 5 0.53076 0.698921 0.201034 -5 5 2 
5336 5 0.0767762 0.728968 0.17355 -1 1 -7 
5033 5 0.207322 0.744489 0.160067 -4 2 3 
6698 6 0.427005 0.803557 0.205452 3 -1 3 
5032 5 0.803099 0.817545 0.176975 6 0 -2 
6180 6 0.0996535 0.813111 0.150665 2 5 1 
8276 6 0.399766 0.829045 0.163719 2 5 -1 
8588 6 0.361349 0.834329 0.18421 4 -2 2 
8045 6 0.600201 0.851819 0.144005 -1 4 3 
8169 5 0.637314 0.820505 0.165676 3 -4 7 
6712 6 0.52533 0.815462 0.121908 0 1 -2 
7337 5 0.5685 0.84645 0.142392 2 0 -5 
7282 5 0.729226 0.863096 0.160446 1 2 -1 
5343 6 0.746478 0.852293 0.196894 1 -2 3 
7477 6 0.131281 0.860051 0.169062 -3 -4 -1 
8756 6 0.235744 0.856163 0.180827 3 0 -5 
8147 6 0.315359 0.859671 0.186455 0 3 0 
7090 5 0.734588 0.952327 0.152109 1 0 5 
8056 5 0.573395 0.985857 0.185728 3 2 5 
6903 5 0.797522 0.963089 0.179657 -1 2 -1 
7336 6 0.0455894 0.985693 0.142319 0 1 1 
8877 5 0.745506 0.995703 0.156169 0 -2 -2 
8070 6 0.786374 0.982697 0.167892 2 -3 -1 
6564 5 0.38244 0.0420044 0.210247 -4 -7 2 
8678 5 0.542503 0.997893 0.192838 -4 -1 2 
6346 6 0.344005 0.053959 0.20269 1 7 3 
6094 5 0.538724 0.0975733 0.175802 2 5 -4 
5498 5 0.695128 0.112137 0.21118 2 0 5 
7425 5 0.107035 0.136284 0.197192 4 -2 0 
7069 5 0.443359 0.108673 0.167997 5 -4 2 
8730 6 0.588697 0.115094 0.187547 -1 -4 -5 
5822 5 0.0329108 0.118475 0.185758 -1 -6 1 
8710 6 0.118741 0.134347 0.178721 -1 3 3 
8429 5 0.392193 0.113078 0.201774 -4 1 -1 
5832 6 0.562897 0.115641 0.241152 -4 2 1 
6101 6 0.859258 0.106362 0.198522 -4 2 1 
7295 5 0.193859 0.178268 0.201842 -5 3 1 
5397 6 0.392341 0.164242 0.19338 1 3 0 
8543 5 0.606412 0.225278 0.178109 1 5 1 
7330 6 0.515405 0.250814 0.181132 -1 2 4 
6379 6 0.233619 0.260364 0.175892 4 0 -3 
7470 6 0.576759 0.264614 0.177641 4 -2 -1 
7159 5 0.353932 0.282864 0.227377 0 2 2 
6544 5 0.0949004 0.320868 0.191828 -2 4 -3 
6743 6 0.124475 0.273512 0.224004 -4 2 -3 
6679 6 0.0931684 0.383743 0.201836 4 2 -2 
8970 5 0.480845 0.345957 0.182122 -4 -2 3 
7674 6 0.734963 0.355385 0.219991 -3 -1 -1 
5642 6 0.625097 0.372873 0.216213 -2 -2 2 
7767 6 0.56508 0.366211 0.193364 -1 -3 5 
6910 5 0.838602 0.382769 0.177936 -4 2 1 
7939 6 0.732324 0.398804 0.223362 2 0 -6 
7493 5 0.477211 0.447242 0.204443 1 -5 -1 
5438 5 0.494883 0.455361 0.216322 -6 -1 0 
8516 5 0.650205 0.442693 0.180907 2 2 -1 
7251 6 0.722933 0.437575 0.206456 5 -2 1 
5848 6 0.291912 0.496757 0.180862 -4 4 5 
7440 6 0.126258 0.58938 0.177038 0 -6 -1 