ITEM: TIMESTEP
20000000
ITEM: NUMBER OF ATOMS
9000
ITEM: BOX BOUNDS pp pp pp
-75 75
-75 75
-75 75
ITEM: ATOMS id type xs ys zs ix iy iz 
8623 6 0.0902232 0.0352448 0.00870187 -4 -3 0 
5436 5 0.0738618 0.967782 0.0304907 0 -4 1 
7350 6 0.85109 0.0116397 0.986897 -9 2 -2 
6888 5 0.158176 0.051833 0.0356596 1 -2 -5 
6036 6 0.768147 0.0174334 0.963869 0 2 -1 
8281 6 0.00207532 0.0517165 0.975559 0 0 -1 
8154 6 0.297741 0.0547551 0.02562 -1 -1 -5 
5446 6 0.495109 0.0892627 0.0107002 -1 -2 0 
8460 5 0.993142 0.122028 0.991578 1 1 -2 
5656 6 0.0531221 0.0957195 0.014411 0 -6 -2 
6074 5 0.251578 0.0736949 0.0161687 0 3 3 
7913 6 0.482818 0.087122 0.00635148 -1 -1 3 
7118 6 0.459789 0.0684738 0.0254014 -2 0 3 
6918 6 0.0936753 0.105245 0.0237223 5 1 -2 
8357 5 0.572657 0.0966279 0.992583 4 4 5 
5822 5 0.410276 0.127686 0.0311406 -3 5 -2 
8294 5 0.493303 0.140563 0.989465 -1 -2 -2 
7001 6 0.616749 0.10927 0.985911 0 1 0 
7124 6 0.211407 0.180199 0.0126323 -2 -2 -5 
6895 5 0.343164 0.140976 0.0217596 0 0 1 
5807 6 0.226362 0.149922 0.0308111 5 -4 0 
7970 5 0.87384 0.190389 0.983202 -4 -4 -2 
7956 5 0.00116248 0.153082 0.992621 1 -4 1 
8522 6 0.809152 0.153792 0.0503386 1 3 -4 
7734 5 0.58044 0.204363 0.00399559 8 -4 1 
7136 6 0.365426 0.246201 0.0420333 1 0 -3 
7364 5 0.443744 0.289714 0.0181822 1 1 0 
8483 5 0.941363 0.244355 0.00472658 2 1 -5 
8743 5 0.969456 0.255662 0.0278931 -4 1 -4 
5157 6 0.0662999 0.282778 0.00970212 1 1 6 
6626 6 0.902414 0.295245 0.0611394 -6 -5 2 
7152 6 0.024522 0.325946 0.0294212 0 -3 1 
7165 6 0.564538 0.376659 0.983539 0 3 0 
7251 6 0.972815 0.365449 0.0107573 1 2 0 
6173 5 0.480824 0.337763 0.00482104 -1 -3 3 
7617 6 0.8996 0.365828 0.025668 0 -3 -1 
5687 5 0.00647848 0.431347 0.982524 -3 0 2 
7466 6 0.0459339 0.452844 0.995882 0 3 0 
7505 5 0.142139 0.437796 0.012345 2 1 0 
8412 6 0.19728 0.45904 0.00918921 -1 -3 0 
5063 6 0.295145 0.441855 0.989854 5 1 1 
8244 5 0.613248 0.456999 -0.000672138 0 -2 -4 
6739 5 0.422537 0.484468 0.0315306 1 3 2 
5478 6 0.534498 0.489909 0.0268429 -6 -4 -4 
5994 5 0.530426 0.484879 0.0377161 2 4 3 
5672 6 0.605652 0.448457 0.0054281 -1 1 0 
7704 6 0.925687 0.489908 0.00380871 1 -2 2 
6646 6 0.504592 0.510477 0.00101427 -3 2 3 
6496 5 0.470947 0.512406 0.020308 1 1 -4 
7779 5 0.441364 0.533784 0.00270057 1 0 1 
6935 5 0.965328 0.579961 0.982089 3 1 -3 
5202 5 0.140977 0.618633 0.0573594 3 -3 -1 
7039 6 0.488862 0.618689 0.984234 -5 -4 3 
7909 6 0.65348 0.592326 0.98618 6 -3 -3 
8945 6 0.759809 0.617289 0.0252335 -2 0 -3 
8384 6 0.0476393 0.609767 0.0237107 -3 6 -3 
7872 6 0.269047 0.612848 0.994849 3 6 -3 
7086 5 0.300542 0.633017 0.996633 1 3 -2 
7784 6 0.414614 0.579466 0.978377 -2 1 0 
7931 6 0.413661 0.619232 0.0142515 -2 0 0 
5586 5 0.540343 0.596611 -4.67933e-07 1 1 -2 
6985 5 0.0497206 0.634794 0.964848 7 0 2 
7498 6 0.214195 0.645988 0.0459379 2 0 0 
8621 6 0.375438 0.642523 0.963485 1 -1 6 
6860 6 0.683984 0.656655 0.996447 -5 3 0 
8403 5 0.812581 0.630463 0.0217066 2 1 0 
5648 5 0.941377 0.644993 0.985833 0 -1 -2 
7689 6 0.0512183 0.657085 0.000749357 3 -2 -2 
5243 5 0.157228 0.660498 0.0162485 -3 -6 2 
7419 6 0.575958 0.721636 0.97851 1 5 -1 
6039 6 0.709755 0.718849 0.00117938 -1 -1 3 
6282 5 0.0834398 0.733277 0.00937949 5 -2 1 
5466 6 0.171301 0.76029 0.034815 -2 -1 -2 
7813 6 0.793386 0.757875 1.0005 1 -2 -3 
5554 6 0.047808 0.790235 0.0116805 -5 -1 5 
6161 5 0.327043 0.79567 -0.000932607 -1 5 -2 
6339 6 0.618446 0.754597 0.0082699 0 2 1 
8861 5 0.97676 0.744981 0.0178544 2 2 4 
7484 5 0.372052 0.785503 0.0268209 2 1 -2 
8738 6 0.487418 0.779869 0.040948 -3 -6 3 
6801 5 0.706092 0.773889 0.0038457 1 0 -2 
6231 6 0.347608 0.831598 0.00948192 1 0 -3 
6723 6 0.525684 0.810845 0.959003 4 -8 -2 
6366 6 0.860683 0.825223 -0.000244737 2 4 -6 
6206 6 0.169147 0.828092 0.0111197 -6 1 1 
7007 6 0.235862 0.83264 0.0224242 2 0 3 
6164 6 0.195064 0.839297 -0.000650485 2 -4 -1 
6469 6 0.336739 0.845998 0.00767003 1 5 2 
5621 6 0.232589 0.87634 0.0173542 0 -1 1 
7249 6 0.405676 0.91304 0.031266 -1 -1 -5 
6763 6 0.593855 0.924547 0.963777 -1 0 1 
8490 6 0.59344 0.905962 0.0438831 -5 4 0 
6310 6 0.854057 0.944053 0.0182664 -1 3 2 
7009 5 0.454205 0.992241 0.0143978 1 -1 3 
6834 6 0.497023 0.980641 0.00976047 -5 -1 -1 
6917 5 0.723306 0.996828 0.0135398 -3 -4 2 
8950 6 0.112135 0.00629865 0.0434079 5 -2 3 
8199 5 0.363017 0.0332421 0.0548507 1 2 -2 
6235 5 0.85536 0.0163815 0.0404595 -9 0 -1 
6649 6 0.318769 0.0881398 0.059798 -1 0 -7 
8299 6 0.588631 0.0270279 0.065587 -10 2 1 
5592 6 0.0142575 0.0876101 0.0372698 3 3 -2 
8343 6 0.25511 0.0809089 0.0181338 -3 3 0 
7863 5 0.272676 0.0908485 0.0520461 -2 6 -2 
8879 6 0.261933 0.0566248 0.0527247 -3 1 0 
5862 6 0.263025 0.103214 0.0492845 4 -1 3 
8406 6 0.315106 0.0993193 0.0233637 7 -3 0 
8100 6 0.206052 0.135482 0.0485986 1 -1 3 
7356 6 0.497304 0.121903 0.0120557 1 -2 -2 
5485 5 0.471823 0.122797 0.0107339 1 3 0 
6460 5 0.449115 0.185728 0.0597556 0 -5 2 
8611 6 0.907296 0.129639 0.0299138 1 3 0 
8153 5 0.219042 0.167593 0.041607 2 -1 1 
5160 6 0.312769 0.145397 0.0727303 1 -1 0 
7063 6 0.0174446 0.19865 0.0588062 -1 0 -1 
8400 6 0.99782 0.219887 0.0568391 -3 -2 2 
5204 6 0.403315 0.223172 0.0430109 -1 0 -1 
6343 5 0.523028 0.221016 0.038617 -1 1 1 
6858 6 0.523573 0.232693 0.028838 -1 3 2 
8437 6 0.749818 0.269329 0.0258157 0 6 3 
7683 6 0.149686 0.270302 0.0216431 -3 0 0 
6212 5 0.268741 0.228673 0.058463 -4 3 5 
6754 6 0.61322 0.268629 0.0139509 -2 -1 0 
6307 6 0.956563 0.249554 0.0162774 1 -2 0 
5061 6 0.0441777 0.273364 0.0242456 -2 -2 3 
6949 5 0.218857 0.294643 0.0328699 1 -1 4 
5402 6 0.91327 0.279773 0.0500704 1 2 1 
7625 6 0.924685 0.278692 0.0400706 -6 7 -1 
6323 6 0.0818338 0.316356 0.0684922 2 -2 2 
6209 6 0.324222 0.32827 0.0105471 1 -3 -3 
6407 5 0.272637 0.318572 0.0282407 0 2 -2 
8515 5 0.382411 0.334433 0.0367492 -1 -1 1 
7877 5 0.07086 0.346212 0.0309462 7 -2 0 
8018 6 0.693914 0.350074 0.0272303 -6 -2 8 
7337 5 0.100398 0.381782 0.0498222 4 -4 -4 
8325 6 0.181953 0.37216 0.0576111 -2 -2 -2 
6448 6 0.745734 0.399805 0.0245514 -2 1 0 
7005 5 0.00833158 0.424098 0.030333 -2 0 -2 
5540 5 0.637192 0.430997 0.0394785 -1 1 3 
7564 6 0.75029 0.409896 0.996782 1 -2 -1 
6591 6 0.164815 0.434571 0.048333 2 -2 1 
5898 6 0.748583 0.433476 0.0749302 -2 -5 1 
7247 6 0.0343052 0.469911 0.0339721 -1 -4 -3 
6885 5 0.709218 0.491134 0.0451136 5 -2 -2 
8678 6 0.155221 0.482949 0.0502987 -2 -1 4 
5111 5 0.379892 0.473935 0.0326803 -2 3 -5 
6136 5 0.830882 0.439028 0.0111934 -2 -2 4 
6253 6 0.350252 0.541475 0.0441885 -4 0 2 
5991 5 0.933606 0.503205 0.0273443 -1 -2 -3 
8183 6 0.0106075 0.503045 0.0436169 0 -1 1 
8392 5 0.157813 0.526189 0.0348362 1 0 -1 
8507 5 0.608256 0.531595 0.0693654 -1 0 2 
5292 6 0.842466 0.517805 0.0228722 0 2 1 
7544 6 0.900654 0.586829 0.995998 4 -2 0 
7263 5 0.143047 0.61007 0.031727 1 1 -3 
8105 6 0.968758 0.601766 0.984432 -2 -5 2 
8339 6 0.28052 0.618082 0.0168333 -3 3 -6 
7936 6 0.839905 0.644534 0.0454642 0 -2 -3 
6299 6 0.0908692 0.672408 0.00813803 -3 -1 0 
7659 6 0.224167 0.600391 0.0344984 5 -3 -3 
8536 6 0.887594 0.656554 0.0747053 2 -5 5 
8457 5 0.945035 0.669902 0.0285811 -3 4 4 
8593 5 0.718608 0.721268 0.0221435 1 4 0 
5343 6 0.188222 0.751429 0.040227 1 0 -2 
6438 6 0.607971 0.778735 0.0299536 -3 1 -3 
6571 6 0.609161 0.749146 0.991321 6 0 1 
5101 5 0.368584 0.787445 0.995452 -5 -4 -2 
5910 6 0.392759 0.774328 0.0441078 -1 -3 0 
7108 6 0.19461 0.788669 0.056811 -1 0 5 
5296 6 0.648817 0.831987 0.0680056 -1 -1 2 
7559 5 0.163962 0.82637 0.0613126 -1 8 2 
7178 6 0.630246 0.867009 0.0649596 -5 -2 2 
5180 5 0.802837 0.843875 0.0571749 -5 -1 -1 
5198 5 0.661499 0.885457 0.0516564 4 -1 2 
5177 6 0.694996 0.87024 0.0693296 -2 2 3 
7157 5 0.82727 0.884699 0.0453035 -5 0 0 
7271 6 0.699956 0.936179 0.0145609 -3 -5 -2 
8800 5 0.727215 0.902269 0.0322762 -3 -1 -6 
6211 5 0.785111 0.898714 0.0210707 0 -2 -1 
5613 6 0.843556 0.883212 0.0252901 4 -2 1 
5955 6 0.174075 0.910308 0.0359804 5 -2 1 
8496 5 0.411762 0.895288 0.0220542 -3 2 0 
8824 6 0.460687 0.893215 0.027697 2 -1 2 
5270 6 0.55285 0.920863 0.0185611 5 -1 2 
7879 5 0.0666611 0.935572 0.0376779 2 0 -1 
8108 5 0.3976 0.917489 0.0212396 1 1 -3 
5544 6 0.61202 0.963446 0.0410232 0 -1 10 
5677 6 0.77642 0.988224 0.0465707 -3 -3 2 
5439 6 0.915788 0.00430298 0.0134741 1 0 3 
7164 5 0.166808 0.015022 0.0616561 2 -5 0 
7531 5 0.588397 0.969708 0.0706804 3 0 2 
8450 5 0.669229 0.99444 0.0210595 1 6 1 
7450 5 0.978623 0.0244599 0.0373379 5 -6 -5 
6261 6 0.313855 0.0469599 0.0836957 -1 0 0 
5520 5 0.393465 0.071839 0.03394 0 -1 0 
5655 6 0.431908 0.0423264 0.072343 -1 0 2 
8107 5 0.684462 0.108944 0.0735393 -4 1 2 
5684 5 0.350564 0.0883246 0.0464424 -1 0 -1 
7353 6 0.469437 0.138108 0.0468837 1 1 4 
8026 5 0.561698 0.0992379 0.0274584 -1 2 -1 
6968 5 0.654456 0.0879276 0.0182981 0 2 -7 
6565 6 0.817378 0.139674 0.0671644 0 0 0 
7782 6 0.817249 0.116949 0.0899488 -4 5 -1 
7363 5 0.144293 0.123108 0.0118228 1 1 -5 
7655 6 0.14681 0.109365 0.062638 -3 1 -3 
8052 6 0.57295 0.130044 0.0855033 -1 2 -5 
7743 6 0.952532 0.159519 0.0292682 0 1 -2 
8329 5 0.697477 0.20917 0.0684548 -2 -1 0 
5126 5 0.918421 0.172724 0.055881 5 0 0 
7835 6 0.91577 0.214967 0.0616343 2 -5 2 
6156 5 0.375207 0.24452 0.0700996 4 5 2 
8929 6 0.14761 0.218332 0.0499985 -6 2 0 
5660 5 0.372973 0.25964 0.0592451 6 0 7 
8130 6 0.83161 0.248796 0.0710991 -5 3 -1 
7522 6 0.614386 0.26349 0.0816511 -1 0 -2 
6704 6 0.582768 0.323516 0.0392585 3 4 -3 
7372 5 0.838166 0.310887 0.0699153 3 -2 6 
5454 5 0.677212 0.306941 0.0503811 2 1 -2 
8354 6 0.446344 0.391363 0.064953 2 -5 4 
8838 5 0.580745 0.347831 0.0933797 1 2 1 
6538 5 0.638424 0.35494 0.0727854 0 4 -7 
7034 5 0.184699 0.396524 0.0531256 3 2 -3 
6101 6 0.186578 0.444464 0.0722007 -3 -3 3 
5019 5 0.712906 0.439103 0.0424331 0 -1 -1 
6765 6 0.811509 0.395924 0.0691285 -4 3 3 
5548 6 0.823049 0.440815 0.0387692 0 -5 7 
6980 5 0.245374 0.466881 0.0653789 2 -2 2 
8431 6 0.0894418 0.437403 0.0706902 -1 4 2 
5719 6 0.100013 0.481136 0.0491175 4 -2 0 
6076 6 0.167345 0.469124 0.0426928 -4 4 -5 
8316 6 0.235385 0.478325 0.0434112 3 1 -1 
6759 5 0.528563 0.477589 0.0497833 0 2 2 
8649 6 0.887265 0.451136 0.047256 2 -1 0 
6864 6 0.22325 0.566754 0.0669505 -2 -1 3 
5236 6 0.348589 0.554097 0.0529405 -4 0 2 
7160 6 0.621095 0.550946 0.0651601 2 -3 2 
7718 5 0.11631 0.628096 0.0632519 -3 1 3 
8773 6 0.130738 0.600163 0.0683075 1 -2 -2 
5336 6 0.317932 0.602612 0.0647785 -3 1 -5 
6249 6 0.66438 0.609428 0.103424 -1 1 -1 
5614 6 0.791354 0.57089 0.0472279 5 3 2 
5435 6 0.951588 0.661544 0.0809129 -2 -1 0 
7362 5 0.0243793 0.705267 0.0551573 -1 5 -1 
6122 5 0.417355 0.690563 0.069765 2 -2 4 
8283 6 0.943835 0.658909 0.0609188 4 2 5 
8177 6 0.530113 0.709688 0.0519018 2 2 4 
7239 6 0.431441 0.772371 0.053089 -3 -5 3 
8161 6 0.167858 0.814085 0.0650897 3 3 -6 
6296 6 0.737476 0.868068 0.0495489 -3 -2 -2 
5941 6 0.147343 0.812599 0.052133 2 0 0 
6078 5 0.102705 0.869558 0.0383979 1 -2 -3 
7577 6 0.069982 0.909497 0.043798 -1 -3 1 
5308 5 0.419403 0.943092 0.0707013 0 -2 -2 
8073 5 0.242472 0.953044 0.0478071 1 0 -3 
7602 5 0.485838 0.949412 0.039883 0 2 -1 
8674 6 0.634357 0.989013 0.0789573 1 -6 1 
5589 5 0.811242 0.992299 0.0766116 2 5 4 
6797 5 0.236572 0.9682 0.0729985 5 1 1 
5984 6 0.423526 0.0307527 0.0951121 -3 7 -1 
7862 6 0.693548 0.00843341 0.0690737 -3 -1 -1 
6002 5 0.240337 0.0361197 0.0811095 -2 2 3 
6482 6 0.641987 0.0524659 0.0842825 0 1 3 
5154 6 0.56804 0.0713936 0.066731 3 -1 -1 
7603 5 0.706052 0.0612875 0.0950504 0 -3 4 
7821 5 0.770137 0.0947728 0.0443513 -2 1 4 
5715 6 0.131423 0.109321 0.0958966 -3 -2 1 
8317 6 0.366316 0.11699 0.11628 0 0 0 
5513 6 0.520634 0.116013 0.0768228 2 4 1 
8188 6 0.802044 0.0948758 0.0741938 0 3 2 
7035 5 0.615156 0.182882 0.0458405 -4 2 -4 
8125 5 0.361017 0.185814 0.116591 -2 0 -1 
6043 6 0.963503 0.202537 0.0772972 -1 -5 3 
5463 5 0.949291 0.223687 0.0599898 -1 4 -2 
7190 5 0.336082 0.231868 0.101666 2 1 0 
6434 5 0.300851 0.247723 0.0940344 0 2 7 
6331 5 0.649768 0.232302 0.104224 1 0 4 
5606 6 0.0472808 0.280357 0.0936335 -3 0 4 
5815 5 0.00681933 0.297118 0.104209 -2 -2 4 
7023 5 0.296798 0.307104 0.114368 -1 0 -3 
6308 5 0.603365 0.320482 0.066787 1 -2 -2 
7230 6 0.358171 0.30344 0.0640504 5 0 -4 
5893 5 0.543789 0.309728 0.111552 5 -4 -2 
8366 5 0.806831 0.305225 0.0807145 3 3 -1 
8987 6 0.332772 0.35976 0.0536023 -2 1 0 
5482 6 0.712313 0.327932 0.049012 -1 -1 3 
5287 6 0.728442 0.334244 0.0449561 -4 2 -3 
7861 6 0.680919 0.360293 0.0610306 -2 -3 -3 
6153 6 0.842618 0.352843 0.0931237 -1 1 -1 
5770 6 0.0298228 0.391644 0.124306 0 -7 3 
5121 5 0.461683 0.386673 0.0959829 -4 -1 4 
8334 5 0.160907 0.40333 0.105463 8 2 3 
8306 6 0.505139 0.403457 0.0900371 -1 0 1 
5996 5 0.0984028 0.453394 0.0732399 -1 0 -2 
7436 6 0.222417 0.410317 0.0813372 2 1 5 
5053 5 0.304302 0.424874 0.0650447 -3 -4 1 
8444 5 0.744053 0.431143 0.0828136 -1 -1 1 
8467 5 0.328723 0.437129 0.0823153 1 0 1 
6735 5 0.117644 0.472677 0.0645295 -2 -2 1 
5949 5 0.445586 0.48546 0.0781282 -5 1 2 
8279 6 0.628234 0.479412 0.0804337 -2 0 1 
7803 5 0.9534 0.493769 0.0741669 2 2 -1 
5836 5 0.283011 0.520878 0.0581224 -1 3 -3 
7894 6 0.74502 0.564841 0.0731988 0 -1 -1 
8812 6 0.0425032 0.533934 0.112684 -3 -8 -1 
7084 6 0.427519 0.551119 0.0897242 -5 3 0 
6784 6 0.493022 0.593238 0.0939537 -1 1 -1 
8109 6 0.918705 0.576003 0.0530399 0 -2 -2 
8835 6 0.269698 0.553406 0.0662271 6 -1 1 
6674 5 0.366406 0.611133 0.0987581 1 -5 -2 
6279 6 0.727986 0.62798 0.0698726 4 -3 1 
5904 5 0.379886 0.558517 0.0828638 6 2 3 
7888 6 0.885771 0.604978 0.0810661 -1 -3 -1 
5663 5 0.987449 0.593204 0.0817467 1 2 -5 
5607 6 0.106055 0.592988 0.0626569 0 2 2 
7033 5 0.112678 0.612792 0.0753967 -1 -4 2 
7912 5 0.0583747 0.666252 0.0652662 4 4 3 
5326 5 0.408077 0.620922 0.115464 0 0 1 
6580 5 0.358569 0.682349 0.0484912 -1 -1 -4 
8462 6 0.832765 0.658931 0.0892155 -2 0 -2 
5119 6 0.0113256 0.718284 0.0978064 -1 -1 -2 
7598 5 0.847122 0.759243 0.0844772 3 5 3 
5035 5 0.468106 0.763756 0.0755364 -1 4 -3 
6022 6 0.596773 0.821012 0.0916028 -1 1 3 
6141 6 0.873043 0.814038 0.086394 3 1 -3 
7011 5 0.0716684 0.831844 0.0814523 -3 5 1 
6816 5 0.581967 0.801046 0.117079 4 3 6 
8395 5 0.6634 0.8371 0.08153 5 -6 2 
5650 5 0.913452 0.85339 0.0346216 1 -3 1 
8129 5 0.940718 0.852737 0.0697962 -4 0 -4 
8954 6 0.494803 0.864901 0.0989503 0 2 -3 
7907 5 0.64918 0.849131 0.080162 6 -1 1 
7059 6 0.211233 0.877763 0.064562 2 0 -2 
7974 6 0.552063 0.879251 0.0565266 0 0 5 
7020 5 0.663001 0.91646 0.0625033 4 -2 -5 
6774 5 0.831271 0.879454 0.0637101 2 3 3 
6720 6 0.985734 0.888798 0.128946 3 -2 -5 
6059 5 0.573302 0.913174 0.0515081 -2 -1 0 
8669 5 0.454167 0.936852 0.0905873 6 -1 2 
5099 6 0.179248 0.970776 0.0387915 1 2 -1 
7826 6 0.774281 0.959139 0.069072 -2 1 3 
8533 6 0.897127 0.982165 0.0857917 0 2 1 
6986 5 0.684785 0.0138562 0.0655978 1 1 1 
7319 5 0.758095 0.963792 0.0940694 -2 -1 0 
6226 6 0.258772 0.999368 0.104605 1 3 -1 
5798 6 0.693193 0.98792 0.121418 3 -1 -5 
6489 5 0.0726078 0.0201907 0.0989552 0 5 -4 
6260 6 0.247282 0.0432093 0.11371 1 -3 -1 
8563 5 0.70713 0.00792072 0.117324 -1 -1 6 
7156 6 0.534366 0.0649063 0.0826103 -4 1 1 
5118 5 0.393764 0.0424177 0.0913908 2 3 -1 
6210 6 0.720969 0.0539833 0.102448 5 2 3 
5028 6 0.750486 0.0989609 0.106011 -2 -3 -1 
6819 5 0.00237783 0.0679257 0.104237 -6 5 0 
6570 6 0.0623223 0.0981295 0.12719 -3 -1 2 
5823 5 0.980984 0.163641 0.112063 -5 7 3 
5293 5 0.401476 0.152523 0.0414727 2 0 4 
5502 5 0.0413423 0.176329 0.0895363 3 -1 2 
8376 6 0.308404 0.182369 0.100849 -5 3 5 
8144 6 0.540675 0.170293 0.0661731 0 2 1 
5001 6 0.342178 0.219656 0.0909637 2 -2 -1 
7550 6 0.505618 0.182624 0.0900603 5 -5 0 
8915 6 0.18872 0.272176 0.0825011 6 0 4 
7593 5 0.274255 0.235588 0.146671 0 -1 -2 
8974 5 0.849051 0.234759 0.0971802 0 4 0 
7983 6 0.489916 0.270083 0.108506 -3 3 -2 
6092 5 0.621755 0.271174 0.132416 1 1 1 
7977 6 0.961501 0.297315 0.0954896 -1 -2 0 
7834 6 0.68781 0.276867 0.0966481 0 -1 1 
7670 6 0.197895 0.298354 0.0887204 2 0 3 
7551 6 0.722038 0.307557 0.125754 -3 0 2 
6493 5 0.0250946 0.355198 0.0899427 3 7 -3 
7496 5 0.541722 0.311041 0.0889653 -4 3 4 
6692 6 0.728514 0.346127 0.0857281 1 3 -4 
7482 6 0.884888 0.394406 0.0826638 3 -2 2 
5188 6 0.360294 0.442404 0.072186 3 2 -1 
6152 6 0.889891 0.473951 0.0444075 2 2 3 
8579 5 0.987359 0.422594 0.106894 0 1 1 
6836 5 0.365482 0.45542 0.115248 -3 -2 4 
8424 6 0.502136 0.486938 0.0763732 2 -7 -1 
8308 5 0.887416 0.488284 0.166075 1 0 -2 
7486 6 0.489066 0.49498 0.118644 4 1 3 
7771 5 0.686938 0.515266 0.109971 -2 1 0 
8280 6 0.582948 0.509946 0.139823 -3 0 0 
6822 6 0.568516 0.510109 0.136777 -2 -3 2 
5503 5 0.920747 0.514636 0.107095 -3 3 3 
7724 6 0.625685 0.499538 0.116011 0 -1 -3 
8690 5 0.638625 0.561761 0.120797 -4 1 2 
5951 5 0.531495 0.576407 0.100436 1 -3 -4 
8228 5 0.0880463 0.55681 0.0904116 -3 3 3 
7622 5 0.43446 0.550272 0.151543 3 -4 -4 
5971 5 0.499034 0.577084 0.140464 2 6 -2 
5608 6 0.946875 0.56649 0.084621 -4 -4 -1 
6828 6 0.778189 0.58653 0.0775124 -1 5 0 
8371 5 0.0435985 0.642994 0.0600439 8 -3 3 
6432 6 0.11225 0.609418 0.130009 0 1 2 
6536 5 0.563514 0.62291 0.143012 3 -6 1 
6661 5 0.102118 0.679964 0.0794781 5 1 -1 
6265 5 0.57147 0.694164 0.0823458 3 -2 2 
6568 6 0.663526 0.642348 0.0913876 -1 -3 -2 
8866 5 0.655159 0.69001 0.0799236 0 -2 -2 
8290 6 0.392125 0.69905 0.105487 -2 3 0 
7820 6 0.532521 0.726693 0.163409 6 1 -2 
8232 5 0.21219 0.753552 0.104418 0 -2 3 
6524 6 0.709184 0.743993 0.117216 -1 1 -4 
7637 5 0.723013 0.753083 0.0836749 -1 -2 4 
5846 5 0.159514 0.808444 0.0815189 2 -1 3 
7067 6 0.437782 0.765169 0.125709 -1 -7 1 
8646 6 0.543153 0.785233 0.12061 -4 -4 -1 
8878 6 0.24386 0.853603 0.071066 -1 -1 3 
8398 6 0.578005 0.842876 0.0986051 -3 -5 5 
5368 6 0.842129 0.812549 0.0816317 -2 -2 0 
5739 6 0.0181939 0.839552 0.136951 0 -5 1 
7294 5 0.286002 0.842549 0.0755258 -1 1 -2 
7028 6 0.431748 0.878093 0.0834677 -6 -3 -2 
8726 6 0.535543 0.842567 0.0758392 -3 -3 -3 
6603 5 0.308958 0.888217 0.0909555 -3 6 0 
7489 6 0.359456 0.874299 0.096369 -2 -1 0 
5115 5 0.729602 0.903872 0.103783 4 -4 -2 
7693 6 0.438506 0.914264 0.121521 -4 -2 -2 
7865 6 0.602158 0.900098 0.101079 -6 3 3 
5713 6 0.336367 0.904695 0.0914129 0 -2 -3 
8922 6 0.705529 0.951857 0.144515 -1 6 10 
5059 5 0.814187 0.981967 0.0972426 0 1 -3 
7792 6 0.0170327 0.958336 0.110134 2 0 2 
5874 5 0.427521 0.946552 0.121785 1 -4 6 
8721 6 0.323567 0.992052 0.105345 4 -4 -4 
5795 6 0.800797 0.0222861 0.144587 -1 -3 -1 
6166 5 0.180734 0.069922 0.121766 -4 -6 2 
5895 5 0.337716 0.0807318 0.078019 2 0 1 
5353 6 0.615028 0.0798964 0.12713 1 2 -1 
5907 6 0.735924 0.103802 0.164779 2 -1 -2 
6802 6 0.919498 0.0664095 0.135185 0 1 0 
5380 6 0.986311 0.0621583 0.156187 -5 -2 2 
8616 6 0.529253 0.115778 0.125455 -3 1 0 
8182 6 0.742425 0.112416 0.135479 -6 -2 5 
6625 6 0.220301 0.196459 0.103329 -9 0 2 
8194 5 0.0949866 0.213452 0.127453 1 3 4 
7889 6 0.0561644 0.243782 0.12473 -2 1 2 
5242 6 0.326213 0.224014 0.107253 0 0 2 
8213 6 0.884077 0.228631 0.133578 -1 1 -1 
8156 6 0.912044 0.213744 0.15458 -1 -5 2 
7187 5 0.824167 0.287417 0.0871405 2 -4 0 
5820 5 0.0357005 0.293957 0.124933 -1 4 1 
5002 6 0.0771404 0.322304 0.0918441 4 -3 -1 
6878 6 0.14264 0.322725 0.141323 -1 3 0 
7526 5 0.429504 0.309522 0.168519 -7 2 0 
6921 6 0.459435 0.312827 0.151754 2 -1 3 
7873 6 0.445134 0.342223 0.088079 0 1 4 
5574 5 0.674914 0.405296 0.128328 -1 -1 5 
8494 5 0.0221785 0.339042 0.134318 2 0 5 
8078 5 0.442325 0.377717 0.161992 -6 -2 4 
7874 6 0.586284 0.378485 0.0822674 2 -2 -2 
5391 6 0.0415064 0.405549 0.144223 2 -2 4 
6882 6 0.236434 0.426611 0.0906866 1 4 -1 
5071 6 0.346924 0.431674 0.119591 0 3 5 
8430 5 0.182901 0.431054 0.106902 -5 0 1 
6239 5 0.432171 0.446134 0.0963247 -1 0 7 
7871 5 0.845216 0.425062 0.131654 -2 0 1 
5381 5 0.612538 0.536456 0.122752 -4 -3 1 
8574 6 0.641467 0.557708 0.160786 -2 0 0 
8978 5 0.855965 0.543887 0.131494 -2 -1 3 
8118 6 0.402257 0.622923 0.137536 0 0 5 
6932 5 0.565932 0.607889 0.11496 -1 2 -3 
5751 6 0.327182 0.597855 0.139694 3 3 0 
5802 5 0.618612 0.595545 0.115089 -1 2 -6 
7225 6 0.729877 0.606852 0.102782 1 2 -1 
5020 6 0.531441 0.655749 0.128202 0 -2 -2 
8410 5 0.965844 0.647053 0.162118 1 -5 6 
5959 5 0.140049 0.627402 0.149487 1 1 4 
5891 5 0.44732 0.668723 0.0867957 -2 -1 2 
5564 6 0.491862 0.614181 0.135097 -3 0 0 
6181 5 0.689788 0.639679 0.146043 6 0 -2 
7766 6 0.077307 0.700196 0.168194 5 -1 3 
6522 6 0.299692 0.687856 0.110098 1 -1 0 
7493 6 0.504589 0.692528 0.164887 0 0 -1 
7527 6 0.304903 0.671366 0.120988 -1 1 5 
6172 5 0.616472 0.685092 0.132511 0 -3 0 
8725 5 0.852574 0.681226 0.106067 -2 3 0 
5498 6 0.373762 0.733633 0.111801 2 -1 -3 
6887 5 0.613546 0.717057 0.128706 -2 0 3 
5384 6 0.780998 0.765069 0.131468 -4 -5 0 
5357 5 0.794244 0.795315 0.105598 4 -3 -3 
6706 6 0.883805 0.820978 0.126415 0 0 0 
8096 6 0.974617 0.839011 0.150505 0 0 3 
6388 5 0.396085 0.888207 0.130738 -4 -5 -2 
6278 6 0.844114 0.923721 0.14475 -3 1 1 
7410 5 0.00638831 0.94823 0.123897 -3 -4 1 
7467 5 0.429943 0.936841 0.0941262 4 -2 4 
6543 6 0.728121 0.934214 0.0950396 -1 -3 5 
7405 6 0.220517 0.940896 0.11275 0 3 -3 
7224 5 0.531336 0.984493 0.147991 -4 0 0 
6190 6 0.678995 0.972987 0.0916062 4 -1 1 
7194 5 0.0708182 0.0275696 0.133683 -1 3 1 
7352 6 0.0650738 0.0698546 0.150323 3 1 -1 
6358 6 0.705953 0.0437088 0.149047 -5 1 2 
8013 5 0.0888534 0.0670007 0.137902 0 2 2 
5500 6 0.773989 0.0239841 0.134899 0 4 -2 
6111 6 0.870612 0.995165 0.138306 -6 -2 1 
5209 6 0.0411089 0.049052 0.137046 2 -1 1 
5518 5 0.784698 0.0597259 0.14311 1 2 -5 
7605 6 0.63624 0.062288 0.112761 -3 -2 3 
8399 6 0.277094 0.182099 0.140286 -2 -5 0 
8606 6 0.79159 0.144736 0.139693 -6 2 2 
8942 6 0.912822 0.182324 0.153664 -6 -2 5 
7285 6 0.626369 0.207895 0.166206 -4 -3 5 
7200 6 0.914498 0.164075 0.135411 -1 0 3 
7994 6 0.118123 0.243776 0.161238 4 -3 0 
8491 6 0.590657 0.185593 0.176442 5 0 0 
8927 6 0.69589 0.239247 0.169231 -1 4 -1 
5696 5 0.915951 0.185203 0.122651 2 -6 0 
6583 5 0.455869 0.236421 0.152076 7 -2 -1 
7117 5 0.397394 0.236759 0.156019 -1 1 3 
6530 6 0.211965 0.276084 0.144009 0 -2 3 
6852 5 0.627813 0.291358 0.170033 2 -4 4 
6247 5 0.245437 0.32601 0.140449 -2 0 0 
8843 6 0.587005 0.355892 0.132516 0 2 2 
8791 6 0.869439 0.295832 0.123874 0 -2 4 
8977 5 0.700064 0.370063 0.141986 -1 -4 0 
7308 5 0.0627765 0.376135 0.152068 -2 -2 1 
5956 6 0.856898 0.409354 0.139689 -1 -6 3 
6792 5 0.916116 0.402068 0.147638 0 -2 0 
7620 5 0.938412 0.400252 0.164052 -1 4 1 
8618 5 0.48266 0.440767 0.179229 1 2 4 
8558 6 0.885894 0.426581 0.128012 2 -1 -2 
6589 6 0.186192 0.458715 0.12999 0 -3 2 
6380 6 0.870055 0.477421 0.171746 -1 3 2 
7074 5 0.19434 0.472069 0.139556 3 0 -4 
7382 5 0.615373 0.519917 0.155882 2 2 0 
8304 5 0.440665 0.523264 0.1667 4 -4 1 
5917 6 0.897665 0.54211 0.163162 -2 -1 1 
6461 6 0.507624 0.53334 0.141902 2 2 -4 
5894 5 0.457144 0.563778 0.154113 0 -1 5 
5258 5 0.292241 0.608265 0.130148 -5 -6 8 
6392 5 0.383789 0.60608 0.142993 -3 -3 -2 
8557 6 0.67511 0.575243 0.146189 -1 -1 -2 
6376 5 0.989494 0.633403 0.177456 0 3 -1 
8416 5 0.183848 0.642628 0.106158 1 6 4 
7076 5 0.034645 0.620389 0.155351 -1 2 -1 
5004 5 0.410872 0.672913 0.15516 2 2 1 
7082 6 0.280995 0.706691 0.151781 3 -4 2 
7749 6 0.805463 0.666233 0.131768 -3 2 -4 
7788 5 0.230945 0.695802 0.156755 4 -2 6 
8123 6 0.398547 0.724056 0.128386 3 1 -2 
8418 6 0.925116 0.694009 0.167843 8 4 1 
8552 6 0.0360942 0.777461 0.142669 1 -2 2 
5127 6 0.369351 0.773681 0.160432 1 -1 0 
6547 6 0.788736 0.829602 0.142487 -1 0 4 
6683 6 0.0512314 0.803587 0.140951 0 1 4 
6958 6 0.432105 0.804868 0.151557 0 0 2 
8599 5 0.793127 0.820906 0.153774 -2 -1 2 
6098 5 0.308653 0.838963 0.163947 -2 2 -5 
6891 5 0.540898 0.849416 0.125535 1 1 5 
6590 5 0.592943 0.851307 0.162116 2 1 -2 
7335 5 0.86095 0.831451 0.149765 2 -1 -4 
8847 5 0.276091 0.865864 0.143951 0 -1 0 
5427 5 0.586284 0.847712 0.163312 -2 -2 1 
8355 6 0.120984 0.922173 0.1451 1 0 -2 
8578 5 0.631651 0.928053 0.155139 -5 4 2 
8031 6 0.454727 0.902084 0.141819 -2 -1 2 
8405 5 0.759979 0.951297 0.175233 3 2 5 
5150 5 0.0274608 0.900871 0.140573 -3 -3 6 
5214 5 0.0916719 0.957734 0.162254 -4 -3 0 
6898 5 0.251239 0.945095 0.151753 3 -3 2 
6333 5 0.611708 0.913307 0.134253 2 -2 0 
5102 5 0.32723 0.967574 0.136692 4 2 -3 
8628 5 0.525269 0.937937 0.119521 1 -5 3 
8980 5 0.585942 0.973571 0.134649 -2 1 -2 
7127 6 0.934088 0.964165 0.133805 2 -1 3 
7150 5 0.278834 0.981594 0.122684 -3 -1 0 
6546 5 0.388055 0.996065 0.129608 2 4 -6 
8582 6 0.517397 0.00248195 0.153469 -1 0 -1 
5261 5 0.732788 0.0151342 0.121735 2 -2 0 
7512 5 0.104299 0.995989 0.198291 0 0 -5 
6170 5 0.503895 0.11863 0.206158 -1 -1 2 
8543 6 0.415809 0.100916 0.194007 3 4 2 
7965 6 0.955062 0.0962746 0.187048 4 1 4 
6595 6 0.846405 0.143621 0.150861 2 -1 -3 
8984 6 0.91053 0.136184 0.136558 -7 1 -5 
6450 5 0.569553 0.172337 0.127598 1 -2 1 
7736 5 0.36795 0.195764 0.185726 10 4 4 
8054 5 0.551974 0.201085 0.153818 2 -1 -3 
8906 6 0.731974 0.249952 0.136537 3 -4 4 
5967 6 0.768152 0.242453 0.216274 0 5 1 
6208 5 0.792427 0.232186 0.167744 4 0 6 
6688 6 0.88471 0.231431 0.105384 -2 -1 1 
6312 6 0.822709 0.19078 0.208009 -1 -5 -1 
6600 5 0.989543 0.181524 0.1389 -2 2 1 
6004 6 0.772106 0.226051 0.173843 -3 0 -2 
6946 5 0.83322 0.282808 0.184981 -7 1 2 
8844 5 0.0313586 0.268587 0.166568 3 1 -1 
5752 5 0.31922 0.265751 0.120462 1 3 -3 
5431 6 0.427147 0.239796 0.139288 4 0 -3 
6596 6 0.501421 0.245061 0.192385 0 1 -1 
6163 5 0.874003 0.248468 0.154332 4 -3 5 
5974 6 0.859904 0.241173 0.165245 1 3 -2 
5298 5 0.0383705 0.319701 0.170988 1 -2 4 
8785 6 0.894532 0.318099 0.17463 -3 2 2 
5145 6 0.0575198 0.356296 0.153776 -1 -1 0 
8874 6 0.278366 0.367841 0.189911 6 -3 -2 
5524 6 0.873696 0.41381 0.154937 -1 -1 4 
7935 6 0.965777 0.381279 0.147289 -2 -1 -3 
7600 6 0.294225 0.392768 0.179374 3 -5 0 
5262 6 0.276012 0.473515 0.1962 -5 2 -1 
6665 6 0.912962 0.464412 0.170929 2 3 -1 
8172 6 0.850509 0.513824 0.201573 0 -2 1 
5349 6 0.918005 0.468357 0.162541 0 2 3 
5416 5 0.458385 0.527144 0.185239 2 0 -2 
7130 5 0.340505 0.516353 0.153179 1 1 6 
5031 6 0.704101 0.54203 0.187376 -1 -3 2 
8217 6 0.794237 0.54562 0.134492 2 2 4 
5915 5 0.944025 0.569812 0.159425 -1 -4 3 
7557 6 0.173045 0.531769 0.160646 -1 0 -1 
8132 5 0.688396 0.546264 0.156397 -1 1 -3 
5867 6 0.346756 0.59927 0.152504 -9 1 2 
8150 6 0.924648 0.623551 0.1256 -3 -1 1 
8562 5 0.0243154 0.648864 0.172219 0 -1 0 
7648 5 0.460508 0.632874 0.188694 3 -1 1 
8010 5 0.0673619 0.67422 0.183398 0 -1 2 
6344 6 0.885073 0.648549 0.183172 -5 -1 0 
8670 6 0.93593 0.647586 0.208075 -5 1 4 
8318 6 0.193048 0.685388 0.176466 -1 3 1 
5782 5 0.839884 0.700977 0.180655 2 -1 1 
5089 5 0.954315 0.661601 0.165064 2 0 1 
7581 5 0.0384267 0.691288 0.159602 1 -5 0 
7729 5 0.321809 0.716018 0.188913 2 -1 2 
6093 5 0.375935 0.703335 0.148884 -2 -3 -4 
6790 5 0.454555 0.671275 0.188336 1 2 1 
6377 6 0.885295 0.675285 0.189249 0 1 3 
7905 5 0.924932 0.66808 0.177056 5 -5 1 
6823 6 0.697795 0.706967 0.189979 -3 0 -2 
8189 6 0.801149 0.697342 0.166027 2 2 0 
7286 6 0.443135 0.728744 0.161606 0 4 1 
5273 5 0.991491 0.795641 0.167577 -3 -4 3 
7262 5 0.123543 0.754719 0.142914 -5 -6 0 
7511 5 0.633196 0.762284 0.166885 -2 -3 3 
8079 5 0.0148936 0.800586 0.186062 5 2 2 
6015 6 0.144498 0.803406 0.141426 -4 2 -1 
6650 6 0.853846 0.781124 0.149834 -1 3 -4 
7583 6 0.185013 0.802199 0.180807 1 1 -3 
8994 6 0.251476 0.831971 0.168883 -1 -5 -2 
5408 5 0.922252 0.865187 0.184355 2 0 5 
7843 5 0.0747485 0.850827 0.186899 1 2 2 
9000 5 0.620918 0.831152 0.152399 6 -2 -1 
7799 5 0.894632 0.886765 0.178369 -3 1 -1 
6431 6 0.911457 0.859104 0.173976 6 0 1 
8993 5 0.153202 0.869692 0.18425 0 2 5 
8857 5 0.220458 0.896042 0.150173 -3 5 3 
5415 6 0.283711 0.896143 0.163406 -2 4 1 
8642 6 0.504401 0.903315 0.163558 -2 0 0 
5023 6 0.757848 0.904366 0.166549 0 2 -1 
7241 5 0.815956 0.906175 0.159265 -3 -5 1 
6112 6 0.518791 0.970453 0.175842 -2 4 2 
7807 6 0.841974 0.95851 0.150769 5 1 2 
6393 5 0.931041 0.930274 0.230469 -2 -3 3 
7960 6 0.814967 0.996742 0.233957 -1 -3 2 
6818 5 0.527352 0.0162864 0.193267 1 -2 1 
7925 5 0.68981 0.0170908 0.204415 3 -3 0 
6114 6 0.862715 0.018654 0.177462 1 5 3 
5577 6 0.0414692 0.0639363 0.181261 -4 1 2 
7424 6 0.74034 0.0943902 0.173095 3 4 0 
6306 5 0.34321 0.0476985 0.219966 -2 -2 -1 
5497 5 0.464722 0.0600439 0.174596 1 -3 3 
5008 6 0.795839 0.141909 0.191921 -1 0 -2 
7026 6 0.577857 0.109653 0.161135 0 2 2 
5561 5 0.493617 0.169314 0.17396 1 1 -1 
8766 6 0.574024 0.134122 0.248532 -2 0 2 
7833 5 0.880577 0.157011 0.226524 -3 -6 -1 
6924 6 0.504164 0.192051 0.197295 -3 1 -4 
6484 6 0.0793827 0.16553 0.195682 0 -4 4 
5952 6 0.657992 0.210484 0.192959 -2 0 3 
7325 6 0.812262 0.23625 0.155376 2 2 0 
5667 6 0.965888 0.218346 0.228804 0 0 -1 
7765 6 0.453413 0.256401 0.183153 -1 -1 0 
8085 6 0.638435 0.241836 0.219527 2 -1 5 
8059 5 0.43903 0.278006 0.176384 2 0 2 
6827 6 0.893538 0.261472 0.208546 -1 0 3 
5241 5 0.9566 0.27151 0.189018 2 4 6 
7643 5 0.556497 0.292839 0.200706 -4 -1 -4 
8475 6 0.660325 0.28595 0.182164 2 5 4 
8291 5 0.178164 0.27129 0.184787 5 -8 0 
8084 6 0.668622 0.278412 0.227022 2 -1 0 
5327 6 0.760022 0.273419 0.202177 -2 6 2 
5255 5 0.295923 0.344706 0.188231 -2 0 4 
6203 5 0.795981 0.318834 0.176385 1 -3 -3 
8701 6 0.0905202 0.339861 0.192177 -5 1 1 
8598 6 0.331791 0.35399 0.234117 2 -1 -3 
5264 6 0.0500832 0.394477 0.198148 -4 0 4 
7838 5 0.4492 0.35923 0.211112 6 2 0 
6236 5 0.895208 0.384842 0.180281 -3 0 -2 
8391 6 0.907963 0.382333 0.179761 0 0 -4 
5868 6 0.0625796 0.383552 0.21595 1 2 4 
8284 5 0.177311 0.370478 0.210814 6 2 -4 
6240 5 0.644703 0.398877 0.221307 6 0 0 
8639 6 0.0926129 0.441106 0.247615 -1 3 4 
8607 5 0.759619 0.415894 0.16043 -1 -1 1 
7146 6 0.83477 0.407806 0.200146 -4 11 1 
7823 5 0.860305 0.412408 0.19568 -2 -4 -2 
5990 5 0.468532 0.430912 0.228385 -1 2 4 
6724 5 0.961643 0.469298 0.171761 3 -1 -2 