ITEM: TIMESTEP
20000000
ITEM: NUMBER OF ATOMS
9000
ITEM: BOX BOUNDS pp pp pp
-75 75
-75 75
-75 75
ITEM: ATOMS id type xs ys zs ix iy iz 
5723 5 0.228172 0.0121644 0.987567 3 4 -5 
8096 6 0.964715 0.997963 0.0268481 1 5 1 
5736 5 0.479504 0.0456314 0.0185934 0 1 5 
7612 5 0.748891 0.0792703 0.999457 -1 -1 -2 
6324 6 0.286769 0.0837223 0.00167775 3 0 3 
6796 5 0.3079 0.0868136 0.00911079 3 4 -5 
5149 5 0.527183 0.0321505 0.0170125 -4 4 -1 
7278 5 0.572877 0.0508012 0.977583 5 1 0 
5172 5 0.620529 0.0283543 0.988873 0 -5 -3 
6096 6 0.655609 0.0787864 0.00354188 -4 -2 3 
8452 6 0.773945 0.0792571 0.031596 1 3 -2 
8432 5 0.184874 0.105984 0.991601 0 1 0 
6300 6 0.654312 0.107598 0.0166043 -1 3 5 
6237 6 0.45193 0.165705 0.00929332 -2 -2 2 
8440 6 0.898259 0.142863 0.999356 -2 2 2 
7070 5 0.00102684 0.133676 0.03457 4 4 -1 
8112 5 0.112819 0.184769 0.0168919 -2 3 4 
8904 6 0.46435 0.211944 0.0424714 -2 -2 5 
7813 5 0.544166 0.237472 0.00911857 7 4 -1 
5590 6 0.959336 0.175047 0.97303 -3 1 -2 
6678 6 0.491032 0.179034 0.00852663 0 -1 0 
5615 5 0.938184 0.187361 0.0144074 1 2 0 
6474 6 0.213052 0.223256 0.0342724 -2 2 1 
5946 5 0.881922 0.249988 0.0372344 3 -5 -6 
8645 6 0.177345 0.273465 0.992647 -1 -5 2 
7484 5 0.196726 0.283767 0.0210498 1 4 3 
5329 6 0.964544 0.23854 0.980885 3 -3 -3 
8189 6 0.976846 0.273261 0.0603227 -1 3 2 
5282 6 0.40587 0.239289 0.995441 -2 0 -4 
6224 6 0.657737 0.284759 0.961114 3 -1 3 
8278 6 0.855884 0.27307 0.0489526 0 -3 2 
8378 5 0.118387 0.283104 0.0124252 3 -4 4 
8655 6 0.227177 0.351573 0.00328756 -4 -2 -2 
7518 6 0.432159 0.29646 0.00942248 0 3 1 
8476 6 0.15013 0.346309 0.0464175 -2 -4 5 
8674 5 0.188079 0.387154 0.00456249 0 -2 -1 
6663 6 0.752189 0.379858 0.974375 0 7 7 
5457 6 0.990327 0.400028 0.037357 3 -1 0 
8568 6 0.098901 0.368172 0.943084 -6 1 -2 
5265 5 0.162767 0.454681 0.987241 -2 0 3 
6906 6 0.292409 0.463773 0.018898 0 1 -3 
8784 5 0.816637 0.449661 0.996887 -1 -1 -4 
6170 6 0.46895 0.452748 0.0348682 -4 1 -1 
7919 5 0.604276 0.492487 0.0250813 -1 -2 0 
5677 6 0.739889 0.486152 0.980246 -1 2 1 
5583 6 0.670807 0.517872 0.975665 -2 2 -1 
7393 6 0.0835708 0.542258 0.034046 -1 4 6 
7875 6 0.141496 0.593525 0.00730774 -1 4 -4 
5746 5 0.676092 0.632314 0.997379 -2 -2 -1 
6894 5 0.93015 0.626353 0.974546 -3 1 0 
5616 6 0.0996242 0.634391 0.0245338 -2 2 5 
5061 6 0.407409 0.675926 0.00433429 -2 -2 -3 
7360 5 0.65072 0.64073 0.978603 -4 4 -2 
7755 5 0.738327 0.705866 1.00263 2 4 3 
8046 6 0.142651 0.723443 0.0217106 4 -6 0 
7496 6 0.274395 0.705126 -0.00190343 -4 -4 -1 
7933 6 0.386879 0.733159 0.992713 3 -2 -2 
6602 5 0.507229 0.771835 0.994085 0 -2 2 
7069 6 0.601353 0.717167 0.0298921 1 1 0 
7782 6 0.737923 0.790223 0.984445 -4 -1 0 
7929 6 0.72804 0.744473 0.0461763 3 1 0 
7900 6 0.619148 0.775719 0.0556343 -4 -1 1 
6194 5 0.406821 0.818826 0.00685114 1 -4 1 
7207 5 0.851601 0.880959 0.970986 -1 -3 0 
7725 5 0.771312 0.850534 0.0367621 1 1 0 
6664 6 0.591768 0.914136 0.0357474 -1 8 4 
8791 5 0.868488 0.882437 0.0142156 2 -1 0 
5343 5 0.947808 0.862818 0.0175183 -1 2 0 
8127 5 0.94871 0.927775 0.0141145 3 1 1 
5064 5 0.241478 0.986914 0.0261739 -3 -2 0 
6415 6 0.492758 0.925442 0.00524363 0 3 1 
8746 5 0.261722 0.976653 0.0237892 0 0 3 
5152 6 0.974055 0.970958 0.00931087 3 0 1 
8037 5 0.960091 0.945001 0.0171094 -1 3 0 
6181 5 0.370788 0.955045 0.0241187 -1 3 4 
7690 6 0.697978 0.997572 0.0272365 3 0 1 
6211 6 0.22208 0.0180063 0.0246577 2 3 0 
6139 5 0.434408 0.00718129 0.0601511 -3 3 2 
7945 5 0.516475 0.0208007 0.0121748 2 -1 -4 
5451 5 0.942276 0.0208609 0.0499301 4 5 -2 
6510 6 0.942473 0.025753 0.0204138 1 5 3 
8837 6 0.0125977 0.975297 0.0436169 -2 1 2 
7843 5 0.363037 0.0426443 0.0207138 -3 -1 -2 
6854 5 0.213249 0.0796555 0.0462512 -2 -2 0 
6000 5 0.628107 0.0679414 0.0556592 -4 1 1 
6505 5 0.552668 0.137768 0.047886 -5 5 1 
7390 6 0.706744 0.0972475 0.0516091 -1 -5 -3 
8768 6 0.023689 0.116586 0.0702225 1 -1 -4 
6153 6 0.655695 0.153725 0.0555655 1 2 1 
8090 5 0.839736 0.180772 0.0388151 2 2 2 
8006 6 0.627505 0.225021 0.0693663 -1 -3 2 
8283 6 0.658596 0.220139 0.0526252 0 0 1 
5314 5 0.753402 0.248325 0.0352083 4 -2 0 
7113 5 0.283342 0.238008 0.0503179 2 -3 -1 
8060 5 0.259872 0.304697 0.053976 6 1 -1 
5027 6 0.323824 0.287296 0.00958391 -3 0 3 
7894 5 0.813471 0.298255 0.0163654 4 -2 4 
5972 6 0.80299 0.299796 0.0442758 1 -1 4 
8794 5 0.157216 0.340031 0.0172864 6 1 1 
5398 6 0.746947 0.346691 0.0798053 -3 0 0 
6010 6 0.163848 0.396723 0.0625196 5 2 0 
7930 5 0.442627 0.376633 0.0552286 1 1 3 
8214 6 0.224709 0.422481 0.059063 1 -1 4 
7773 6 0.41766 0.379775 0.0333695 3 6 1 
8066 5 0.665745 0.380752 0.0438455 0 -1 0 
7413 6 0.693469 0.40157 0.0579285 -3 2 3 
5244 6 0.81249 0.408878 0.0358851 0 2 0 
8802 5 0.481545 0.453933 0.00924707 -4 4 3 
5459 6 0.00235372 0.503514 0.0385296 2 -4 -1 
8553 6 0.641244 0.476168 0.0764937 -3 -2 0 
6485 5 0.735383 0.454346 0.0137364 -7 1 3 
6374 6 0.112529 0.48653 0.994305 -2 -2 -4 
5274 5 0.950846 0.481603 0.0390355 2 -4 -2 
7292 5 0.335065 0.523344 0.0109921 -4 1 4 
8898 5 0.580613 0.517213 0.0183928 1 0 -3 
8473 6 0.786639 0.548838 0.0151862 -4 1 -3 
8948 5 0.20199 0.513124 0.026321 1 1 5 
7453 6 0.60044 0.555841 0.00897907 -5 -4 0 
5403 5 0.0327752 0.547724 0.0528145 1 2 -4 
8862 5 0.137267 0.56837 0.0174971 -2 -1 0 
7294 5 0.627238 0.581143 0.0331311 -2 2 7 
8099 5 0.845431 0.57098 0.0269227 0 0 6 
8710 6 0.895007 0.546724 0.053872 -4 1 -1 
8179 6 0.814036 0.578196 0.0564015 3 3 1 
6417 5 0.877852 0.582243 0.0191766 -4 2 3 
7874 6 0.437726 0.620055 0.0249879 2 -5 -3 
8032 6 0.860662 0.6146 0.0670053 -3 -2 3 
6385 6 0.888377 0.663983 0.0491389 1 3 0 
6405 6 0.324092 0.650203 0.0493166 4 3 0 
5019 6 0.252349 0.729007 0.0378376 0 3 2 
7072 5 0.319667 0.726879 0.0151126 -2 -5 0 
5356 6 0.128397 0.695917 0.011613 5 -1 0 
6556 6 0.364151 0.740703 0.051649 -1 -1 -2 
5648 5 0.469549 0.731902 0.0498512 0 3 1 
6040 5 0.617782 0.684198 0.0319866 6 2 -2 
7429 5 0.804546 0.759793 0.0492491 -1 -2 -2 
6495 5 0.785262 0.708183 0.0182771 6 -1 2 
5084 6 0.408949 0.745579 0.0599812 1 -3 0 
7662 6 0.121504 0.760781 0.0761949 -6 -5 3 
7431 6 0.533984 0.766884 0.0460464 2 -5 4 
6991 5 0.742221 0.778423 0.0307428 -1 1 1 
8576 6 0.821566 0.751521 0.0645625 0 -2 -1 
6089 6 0.23651 0.78345 0.0569539 4 1 -2 
5139 5 0.487789 0.817544 0.0383687 9 -1 0 
5234 5 0.677546 0.829013 0.0573944 -1 5 -2 
7668 6 0.778417 0.841279 0.022076 1 -4 1 
5732 5 0.90769 0.811777 0.0174104 -4 0 1 
8829 6 0.617036 0.906766 0.0510424 2 1 4 
6431 5 0.394009 0.907745 0.0335398 9 -3 -1 
5738 6 0.618901 0.917094 0.0337249 0 2 -4 
6928 5 0.144735 0.915742 0.0152171 -1 2 -3 
7444 6 0.487436 0.876935 0.0688401 -4 6 -3 
7171 5 0.765919 0.916543 0.011595 2 -4 3 
7014 6 0.873454 0.899754 0.0418182 -2 -4 3 
8246 5 0.522409 0.964542 0.058282 2 2 5 
8525 6 0.300898 0.941963 0.0379902 -4 -4 1 
5312 5 0.0179687 0.999851 0.0742214 3 -1 5 
8712 5 0.114552 0.0148718 0.0298242 3 -1 -4 
7535 5 0.412051 0.00942231 0.0517168 6 -2 5 
8694 5 0.501538 0.0231937 0.062055 1 -6 6 
8409 6 0.889119 0.0441267 0.0441589 -1 4 -4 
8858 6 0.139995 0.0835616 0.0741665 1 1 1 
8008 5 0.409675 0.0566805 0.0681141 -2 4 3 
6988 5 0.657868 0.0408052 0.0497238 1 -3 -5 
8471 6 0.691705 0.0360135 0.0903875 -3 -2 1 
5719 5 0.285475 0.0808975 0.0353948 0 1 -2 
8410 5 0.44 0.0793598 0.0794399 1 -1 -1 
6686 6 0.826832 0.082211 0.057704 2 -1 -2 
8963 6 0.0869224 0.0510208 0.0741838 -1 6 0 
5273 5 0.0323157 0.142149 0.0528607 1 1 4 
8806 5 0.331606 0.132542 0.0848395 -2 3 -2 
7539 5 0.480558 0.1533 0.0469213 -3 -1 0 
6126 5 0.84694 0.145435 0.0893635 0 -3 -5 
5585 6 0.882121 0.110996 0.0609448 0 6 -1 
6347 6 0.260949 0.199914 0.0815984 -1 -3 4 
7581 6 0.424648 0.162636 0.0643397 1 0 -2 
6459 6 0.391497 0.134627 0.0210758 2 1 1 
6676 6 0.966345 0.134659 0.0606489 3 3 -2 
8114 6 0.0562498 0.184506 0.0339616 1 1 5 
5022 5 0.401488 0.205585 0.10105 -1 5 3 
7289 6 0.61586 0.193165 0.0187629 1 3 -3 
7110 6 0.831508 0.198778 0.0718731 -1 -5 3 
5819 5 0.460141 0.204142 0.061289 -3 -1 -1 
8942 5 0.183136 0.235948 0.0859466 0 3 -3 
5683 6 0.334422 0.261619 0.0315328 4 4 -5 
6966 6 0.983 0.241844 0.0455649 -1 5 -1 
6624 6 0.869179 0.285789 0.0471918 2 -1 0 
8427 5 0.760683 0.302858 0.0537974 -1 -3 2 
8200 6 0.281764 0.364096 0.0435235 2 -1 -1 
8198 5 0.465831 0.319797 0.056498 -2 -1 0 
7159 6 0.939066 0.307269 0.0585115 -2 1 4 
8907 5 0.138728 0.365196 0.0405758 5 1 -2 
5587 5 0.352653 0.366891 0.0407251 3 3 2 
6281 6 0.340657 0.401349 0.0668696 2 1 -1 
6022 6 0.660246 0.378285 0.0229711 -4 1 4 
7999 6 0.0496129 0.394648 0.0660808 -1 0 -1 
5692 6 0.177922 0.412778 0.0557417 4 7 3 
5016 6 0.435562 0.448057 0.0705782 4 1 5 
6807 6 0.482969 0.408202 0.0414491 -2 0 1 
8218 6 0.825198 0.441476 0.0724791 -2 -5 5 
6967 6 0.271695 0.422354 0.0599566 3 2 1 
6285 5 0.903044 0.432539 0.015549 0 0 2 
7197 5 0.293265 0.413881 0.0457355 -2 6 1 
8402 6 0.577471 0.458916 0.0210185 1 -4 0 
5030 5 0.0661906 0.451503 0.0776614 -3 -7 2 
7384 6 0.00770022 0.516177 0.0203852 4 -2 2 
7837 5 0.543837 0.495208 0.102991 1 -1 -1 
6511 5 0.582725 0.508298 0.0632363 2 2 -2 
7529 6 0.230015 0.563947 0.0140419 -3 -5 3 
7709 6 0.714855 0.525179 0.0596806 -4 -1 3 
8400 6 0.744251 0.546762 0.0729884 -1 0 2 
5051 6 0.342086 0.620458 0.064592 -3 0 -1 
6612 6 0.591306 0.622773 0.0553137 1 -2 -2 
7222 5 0.921826 0.615075 0.0269615 -2 -1 0 
5220 5 0.936327 0.630062 0.0403415 -2 3 0 
5187 6 0.977394 0.640588 0.0359027 -1 -5 0 
8703 6 0.50758 0.690683 0.0439946 2 0 2 
8369 6 0.634361 0.629621 0.0246311 -1 0 0 
6750 5 0.821692 0.670508 0.0172407 -9 1 -3 
5600 6 0.0555793 0.662991 0.047155 6 -1 -6 
5990 6 0.285494 0.703761 0.0347274 0 4 0 
7733 6 0.474088 0.682397 0.0708321 0 4 -4 
7978 5 0.760355 0.705399 0.0181087 -2 4 0 
7530 6 0.0428166 0.740736 0.0288096 0 1 0 
6291 6 0.735432 0.686068 0.0659141 -2 4 -2 
5518 5 0.241428 0.75393 0.021155 0 -1 2 
5219 6 0.466096 0.741055 0.0201115 1 -2 4 
5383 6 0.0259401 0.782536 0.0707754 -3 0 0 
6677 5 0.476701 0.747518 0.0757984 1 -4 0 
7348 5 0.493451 0.752603 0.0313156 -3 -3 2 
7001 5 0.357572 0.76859 0.0528903 -7 -3 2 
6502 5 0.387727 0.822908 0.0663536 2 3 -4 
8930 5 0.437606 0.770765 0.0542426 0 3 4 
6794 6 0.736087 0.761308 0.065903 -3 3 -1 
6742 6 0.237495 0.819006 0.0398029 0 0 1 
7677 6 0.422262 0.796033 0.0709818 -3 -4 0 
6062 6 0.21637 0.840847 0.0533679 2 3 5 
5472 6 0.499656 0.864645 0.0664035 1 1 0 
8322 5 0.905307 0.84333 0.0687469 -2 5 5 
6178 5 0.328968 0.814914 0.0641395 0 -1 3 
7804 6 0.78619 0.861448 0.0558126 2 -1 -4 
6839 5 0.0282127 0.888414 0.0797296 -3 4 -1 
8479 5 0.613599 0.884967 0.0407147 -3 3 2 
5806 5 0.974474 0.872077 0.0406456 1 3 3 
8726 5 0.128072 0.94086 0.0659576 4 2 2 
6220 5 0.774022 0.915471 0.0616417 -3 -3 -2 
6741 5 0.839115 0.925764 0.0328152 0 -5 4 
8374 5 0.499476 0.930649 0.0496951 6 -1 4 
8035 6 0.441145 0.940219 0.0758659 -2 -5 -3 
7302 5 0.640266 0.0351729 0.0614646 3 -1 3 
5190 5 0.715618 0.942121 0.0545578 2 0 1 
8124 6 0.719538 0.954651 0.0524498 4 -2 1 
5678 5 0.778975 0.956316 0.093934 -2 -2 2 
8195 6 0.205641 0.00392327 0.0778467 0 1 0 
6801 6 0.267933 0.0217185 0.0732219 -4 0 3 
7985 5 0.59119 0.032268 0.0572318 3 4 -2 
5293 5 0.657564 0.0758924 0.0387728 1 -4 -1 
7358 5 0.0259878 0.104082 0.08806 0 -2 -1 
6140 5 0.527073 0.0865788 0.10842 -5 3 3 
7325 5 0.570193 0.131298 0.0849174 4 -3 -1 
6884 6 0.675884 0.119635 0.04345 3 -2 -1 
5882 6 0.641049 0.154464 0.112516 -3 -2 -1 
6349 6 0.377027 0.199773 0.0892722 3 -3 1 
8915 6 0.449108 0.211443 0.0834246 2 1 2 
6161 5 0.509718 0.202431 0.0796108 0 3 1 
6157 5 0.258059 0.180727 0.0990957 -3 -2 0 
8277 6 0.963883 0.214516 0.109369 -3 -4 -3 
8827 6 0.14362 0.206862 0.0562233 2 6 1 
5820 5 0.225453 0.275193 0.0346633 -1 3 5 
5205 6 0.425718 0.255931 0.0792486 2 -1 2 
8205 5 0.164115 0.269032 0.080306 0 -5 -2 
7179 6 0.0174092 0.282225 0.114059 1 0 3 
8026 5 0.562213 0.298123 0.0475024 0 1 2 
8979 6 0.146678 0.28997 0.07195 -2 5 -7 
6087 5 0.0431078 0.336786 0.0805489 3 1 -1 
7015 6 0.277415 0.330301 0.102565 0 -1 2 
6949 5 0.314084 0.314645 0.0496069 7 3 2 
8962 6 0.814412 0.329537 0.0966877 -4 3 2 
7721 5 0.875167 0.345515 0.0629793 -3 1 2 
8536 5 0.680776 0.341068 0.0732055 4 1 -4 
6042 5 0.734191 0.366382 0.0839458 3 -2 -1 
8260 6 0.600032 0.351891 0.107181 2 4 2 
6369 5 0.790018 0.375426 0.0661022 -3 -1 -6 
7681 6 0.598262 0.397102 0.0579524 0 4 2 
8365 6 0.00746538 0.423323 0.0720564 -2 3 6 
6811 6 0.420982 0.430812 0.0907248 -1 0 -1 
6085 6 0.17579 0.446916 0.0912071 -1 7 4 
8892 5 0.343669 0.499503 0.133093 -5 4 5 
6639 6 0.613312 0.436469 0.0620967 0 -5 2 
8543 5 0.26951 0.493028 0.0745479 0 -4 -1 
7353 6 0.685524 0.454233 0.0584712 2 -2 3 
8517 5 0.863939 0.451218 0.074528 5 1 5 
5099 6 0.92052 0.462285 0.0453805 -1 1 -2 
8798 6 0.706395 0.458446 0.0761305 -3 1 -3 
6230 6 0.0297679 0.53522 0.0843314 2 -6 -4 
6200 6 0.0809933 0.524393 0.0242634 2 0 0 
7438 5 0.24953 0.527782 0.0864919 1 -2 -4 
5512 6 0.587781 0.519773 0.106611 0 2 -3 
7600 6 0.214104 0.514028 0.0793842 -1 -5 -2 
5073 5 0.713715 0.518833 0.102519 -1 1 1 
8999 6 0.0484839 0.569696 0.0676225 -1 4 0 
7666 6 0.859397 0.511248 0.0893562 3 1 -2 
5183 5 0.224853 0.570555 0.0434068 -1 1 1 
8417 6 0.980122 0.602878 0.0761076 0 -5 2 
5796 5 0.504046 0.645088 0.105484 0 -4 -2 
6465 6 0.892598 0.629785 0.0698659 -1 2 -1 
6381 5 0.530719 0.67245 0.0734603 -5 -3 5 
6013 6 0.0144097 0.639295 0.0863937 -1 1 -3 
6667 6 0.0915481 0.68349 0.0496624 0 0 -1 
8351 6 0.555197 0.692768 0.0843476 3 2 0 
5911 5 0.899084 0.682277 0.118473 2 -2 1 
5898 5 0.7944 0.716434 0.0952597 -10 0 -3 
7665 5 0.196344 0.711864 0.128782 -1 -3 4 
5919 5 0.272945 0.751263 0.0662766 -3 -4 -4 
6408 6 0.86018 0.709277 0.0748347 4 0 -3 
6295 6 0.965667 0.689883 0.0956429 1 4 -3 
7996 5 0.819908 0.772438 0.0703857 0 3 -1 
7366 5 0.704264 0.796951 0.114351 0 -3 -3 
5846 6 0.159898 0.799719 0.0760512 5 -1 -2 
5725 5 0.126933 0.784247 0.0973251 -2 1 4 
5893 5 0.367785 0.808252 0.105944 1 3 2 
7622 6 0.160877 0.831635 0.109384 -1 -2 -1 
6636 5 0.562882 0.824309 0.083435 2 1 -3 
8121 5 0.53008 0.856822 0.0663995 -1 -5 4 
6681 6 0.841759 0.883481 0.0468495 0 0 4 
6173 6 0.438503 0.895494 0.0644013 -1 -1 -4 
7967 6 0.701323 0.889347 0.0928071 3 -3 1 
7562 5 0.0658665 0.950889 0.0964181 0 -5 0 
6890 6 0.67611 0.903757 0.108892 0 4 -1 
6079 5 0.120649 0.95636 0.0879873 -2 1 -1 
8762 5 0.187329 0.966057 0.0986996 0 -1 4 
5349 5 0.173404 0.934158 0.0768123 6 1 6 
8886 6 0.948805 0.959973 0.0473415 1 0 1 
6600 5 0.0646204 0.00324246 0.0877197 1 -1 -1 
8797 5 0.820089 0.977574 0.0804695 -1 -2 3 
7223 6 0.0413595 0.00674895 0.0972366 -1 2 4 
8180 6 0.0587276 0.00915823 0.0649083 3 1 2 
6309 6 0.500394 0.00273319 0.0830209 0 0 0 
5994 6 0.491905 0.0473537 0.0793314 0 4 2 
6462 5 0.671115 0.0115824 0.0988134 -2 4 1 
6074 6 0.95284 0.0631051 0.0898544 -4 -1 3 
6317 5 0.364405 0.0566299 0.105358 3 3 5 
6779 6 0.583227 0.079425 0.121322 -3 3 8 
6679 6 0.298261 0.112135 0.0758165 3 -5 -3 
7493 5 0.887656 0.110129 0.0840929 -6 -3 0 
5090 6 0.391131 0.0797677 0.0990173 2 -1 2 
6313 6 0.418347 0.10096 0.118244 -2 3 5 
7917 6 0.501946 0.135774 0.0767015 3 5 1 
8961 6 0.531283 0.0899572 0.135079 -1 1 -4 
6932 6 0.185129 0.16942 0.157398 2 -1 2 
8426 5 0.76568 0.116392 0.122564 2 -1 1 
8049 5 0.817597 0.180198 0.130953 1 -1 4 
7466 6 0.063079 0.175587 0.10151 0 -2 -4 
5818 5 0.547362 0.234608 0.126433 -7 0 4 
7335 6 0.33136 0.234905 0.107009 -1 -1 -3 
5315 5 0.715604 0.22983 0.125555 5 0 3 
6809 6 0.999896 0.244577 0.119328 1 2 0 
8367 6 0.798199 0.311747 0.120114 0 1 -5 
7125 5 0.929244 0.264337 0.0913841 -5 -2 3 
8985 5 0.347186 0.280054 0.0883209 3 -2 -1 
6353 6 0.17335 0.337927 0.103532 -1 -1 1 
5954 6 0.408103 0.34404 0.10821 -2 1 -4 
8350 6 0.880833 0.356847 0.113934 6 0 3 
8975 6 0.359423 0.379484 0.117034 -4 2 2 
6323 5 0.386492 0.391163 0.0943861 -1 3 -1 
6470 6 0.421508 0.356894 0.115545 4 2 0 
9000 5 0.45695 0.410465 0.024883 -3 4 0 
5204 5 0.710091 0.467103 0.089914 -2 5 0 
5511 6 0.107393 0.428651 0.0507819 1 2 -6 
6963 6 0.814624 0.431604 0.127083 1 -4 3 
6461 6 0.107007 0.452755 0.0988808 1 -2 1 
8352 6 0.151172 0.442865 0.0914044 2 -2 4 
7033 6 0.339721 0.472682 0.106267 3 1 0 
8889 6 0.437438 0.479124 0.129067 1 2 -5 
5526 5 0.457503 0.458737 0.0866737 1 -4 -3 
8623 6 0.72813 0.504051 0.124799 1 3 5 
6660 6 0.402586 0.494478 0.0976459 -1 -2 0 
8850 5 0.531292 0.484553 0.102747 2 1 -1 
7354 6 0.868247 0.485512 0.0953622 -1 0 -1 
7980 6 0.134993 0.464667 0.114017 -3 -1 0 
5206 5 0.509474 0.52315 0.128817 3 0 0 
8641 5 0.359767 0.513267 0.098338 -1 -4 3 
6618 6 0.513123 0.527362 0.103128 -2 1 1 
5105 6 0.854672 0.528983 0.0956473 -3 0 2 
7434 6 0.269475 0.530247 0.0515559 -2 1 0 
7790 5 0.752773 0.600995 0.0685868 -5 -2 -1 
5831 6 0.0555708 0.568902 0.116625 0 5 0 
7829 5 0.312373 0.567919 0.0755688 4 -2 2 
8326 6 0.977486 0.554016 0.121663 0 2 3 
8848 6 0.173385 0.596359 0.1086 -1 1 0 
8504 6 0.629765 0.56065 0.0977015 0 -1 3 
7625 5 0.632223 0.604398 0.0891232 -2 -6 -4 
6063 6 0.805364 0.575287 0.104943 3 -2 -1 
8618 6 0.0538952 0.61905 0.0912504 2 -5 1 
5291 5 0.789962 0.648392 0.127069 -1 3 3 
5306 5 0.880381 0.661756 0.0696363 -4 1 0 
8034 5 0.54146 0.659388 0.113077 -1 5 -2 
8505 5 0.673807 0.64163 0.118598 -1 -1 -1 
8286 6 0.758672 0.647814 0.0876399 -4 1 0 
6629 6 0.78275 0.650755 0.11365 -1 -1 -1 
8887 5 0.859143 0.672628 0.10061 1 3 2 
7476 6 0.0199224 0.701932 0.101626 -2 3 -1 
7270 5 0.51188 0.713635 0.089522 5 5 3 
5156 6 0.762239 0.719525 0.059462 -3 -3 2 
5679 6 0.563571 0.691419 0.0946191 1 0 1 
5705 6 0.0883918 0.737485 0.103867 -3 1 -2 
6959 6 0.714151 0.722005 0.0809621 -1 -6 3 
6399 5 0.567584 0.737189 0.0968608 0 5 4 
8770 5 0.557034 0.760018 0.0958165 -2 0 4 
8879 5 0.737867 0.768159 0.0980338 0 -1 0 
6428 6 0.388006 0.806011 0.0743855 -1 0 5 
7548 5 0.568482 0.768628 0.118262 -2 -5 -1 
5937 6 0.838379 0.787242 0.100154 -2 -2 1 
7497 5 0.445228 0.823043 0.112996 5 -2 4 
8943 5 0.404759 0.826874 0.0926411 4 2 -1 
7904 6 0.729482 0.830798 0.0934726 -2 1 -3 
8753 5 0.868302 0.845141 0.109293 0 4 1 
5305 6 0.0293872 0.876284 0.0800535 -2 -3 -2 
5833 5 0.614277 0.887032 0.0919939 -1 -4 0 
6896 6 0.319674 0.91046 0.165841 3 3 -4 
8983 5 0.292027 0.923898 0.0864694 0 0 -2 
6579 6 0.675876 0.899422 0.069984 3 -6 -3 
8154 6 0.959716 0.970881 0.0737418 -1 0 3 
5456 6 0.989528 0.955152 0.109663 -1 0 3 
8128 5 0.968042 0.00222255 0.0856096 2 2 0 
5582 5 0.572064 0.0206407 0.102883 -1 2 5 
6376 6 0.173829 0.0524189 0.164779 1 -3 6 
5877 5 0.786753 0.00972124 0.0887897 1 3 2 
7452 5 0.786617 0.0666528 0.117602 -3 0 -2 
7942 5 0.892504 0.0124068 0.122148 -4 -2 -1 
5279 6 0.05111 0.0625757 0.11894 -2 1 -1 
6565 5 0.547301 0.0449897 0.121487 -5 -3 -6 
7903 6 0.609518 0.111002 0.0991832 1 -2 -1 
7949 6 0.431842 0.098596 0.101681 1 1 1 
5195 5 0.013971 0.139585 0.114448 -1 -1 -4 
6244 5 0.77709 0.116285 0.0810552 -3 -2 0 
7021 5 0.000440911 0.156832 0.15025 -2 2 2 
8700 6 0.0482799 0.168348 0.129927 1 1 -2 
6800 6 0.426954 0.159299 0.159797 3 3 -1 
8067 5 0.75689 0.204527 0.119826 -1 1 -1 
5656 6 0.150946 0.229776 0.141455 -1 1 3 
6641 5 0.384028 0.211045 0.0853827 -3 -1 1 
8647 5 0.493749 0.242291 0.119812 -1 1 2 
5643 5 0.676852 0.225781 0.0950958 -2 -3 -7 
7132 5 0.365521 0.236641 0.132746 1 3 0 
8955 5 0.608832 0.247174 0.115536 0 -1 -1 
6527 5 0.280121 0.258249 0.119803 -3 0 -2 
8788 5 0.254563 0.265083 0.160044 2 3 0 
6143 6 0.47959 0.248914 0.156318 1 -2 4 
7465 5 0.778186 0.28053 0.0882808 0 2 0 
7972 6 0.177293 0.329936 0.131573 -6 -3 0 
7833 6 0.565124 0.322213 0.114103 -1 -3 0 
8502 6 0.573682 0.308921 0.140912 -1 -1 -4 
7859 5 0.258381 0.319949 0.0961019 -6 0 -7 
5471 5 0.441996 0.378149 0.114772 3 -1 -1 
6131 5 0.450941 0.329676 0.14044 0 -2 -3 
7571 6 0.0353771 0.376469 0.133964 0 1 1 
5263 5 0.366827 0.408648 0.133101 -2 -1 -1 
6095 5 0.485162 0.406201 0.119165 -2 3 0 
7864 5 0.541736 0.389916 0.129428 2 2 1 
7916 5 0.578173 0.410513 0.100554 -5 1 1 
7076 5 0.339677 0.433792 0.123268 0 0 0 
8934 6 0.819905 0.466283 0.0979079 -1 -4 3 
6708 6 0.940091 0.43183 0.143005 -1 -2 -2 
6356 5 0.165651 0.479453 0.0813603 6 1 2 
7796 6 0.885643 0.438913 0.134436 0 -4 0 
6613 6 0.202499 0.503798 0.0921936 -1 2 -6 
7494 6 0.977124 0.445219 0.121739 3 -2 2 
8431 6 0.563151 0.48093 0.148289 4 0 -5 
6457 5 0.119824 0.545486 0.155154 0 4 -1 
8982 5 0.544873 0.48997 0.172822 1 0 -2 
7329 5 0.581513 0.500227 0.124342 -1 -2 1 
7821 5 0.704734 0.541556 0.125049 -1 -1 5 
5325 5 0.0335568 0.578258 0.124986 4 -4 -1 
8138 6 0.0846408 0.574885 0.137165 0 1 1 
5408 6 0.963489 0.538376 0.135393 1 2 -1 
8116 5 0.224625 0.559705 0.133546 -2 -4 2 
5034 6 0.668422 0.591001 0.150047 0 -2 1 
8912 6 0.864569 0.566042 0.10754 1 4 -5 
8069 6 0.788344 0.547239 0.16075 -4 0 7 
8628 5 0.895344 0.592986 0.119803 -5 0 2 
7436 5 0.378875 0.679577 0.146401 2 5 0 
8489 5 0.520801 0.664003 0.140672 0 1 -1 
7851 5 0.642362 0.632877 0.118446 -5 -3 2 
5196 6 0.308499 0.7049 0.0827509 -2 -3 -2 
8361 6 0.977961 0.746693 0.113455 3 -3 -2 
6135 6 0.229791 0.733802 0.160323 -4 0 3 
5498 6 0.640226 0.699091 0.0962423 1 -5 0 
6872 5 0.460405 0.717615 0.106405 3 -2 -1 
6473 6 0.887431 0.714234 0.135805 4 -2 2 
5835 5 0.0274274 0.776496 0.135476 -2 1 4 
5983 5 0.147295 0.792219 0.132382 1 0 0 
8626 6 0.526315 0.78702 0.0913596 -2 -1 -3 
8836 5 0.819232 0.753395 0.144565 0 0 2 
8160 5 0.733119 0.848713 0.080475 -1 1 0 
5567 5 0.966947 0.873664 0.14029 3 3 -4 
6332 6 0.493318 0.882079 0.126952 -6 -2 2 
8692 5 0.562143 0.904868 0.0930465 4 -4 -3 
6222 6 0.656699 0.875235 0.141291 0 -2 -2 
8298 5 0.0697378 0.892962 0.106052 0 6 0 
5568 6 0.859628 0.956931 0.109473 1 2 1 
7501 6 0.0756392 0.965805 0.126997 3 -2 -4 
8393 5 0.371326 0.936568 0.19437 1 -4 1 
7995 6 0.712056 0.943227 0.159597 -1 3 1 
7117 6 0.435841 0.00431963 0.16265 3 1 0 
5191 6 0.0507497 0.058745 0.150414 2 0 -3 
6106 6 0.283053 0.0525228 0.123423 -1 5 0 
7210 5 0.720109 0.023521 0.135006 -6 1 1 
7935 5 0.864088 0.0409928 0.180385 5 2 1 
5841 5 0.599342 0.0749778 0.14565 0 -2 4 
8625 6 0.0243515 0.0882391 0.14351 -1 -3 -1 
6498 6 0.207422 0.0861331 0.131119 -1 0 1 
5446 6 0.25144 0.141459 0.179524 7 1 -1 
8809 5 0.236434 0.185967 0.174799 0 1 -1 
6293 6 0.275831 0.226674 0.156894 0 1 3 
5082 5 0.277057 0.207422 0.128577 -3 1 0 
5070 6 0.324099 0.182857 0.171364 0 -1 3 
5304 6 0.4909 0.194426 0.135703 5 3 -3 
8468 6 0.200961 0.198898 0.172994 7 3 1 
6859 6 0.445963 0.191992 0.155831 -7 0 -1 
6156 5 0.629847 0.241876 0.181957 1 -3 0 
8083 6 0.827119 0.186776 0.134808 1 1 0 
7940 6 0.0285406 0.272053 0.118226 1 -1 4 
7007 5 0.133349 0.29036 0.144492 0 1 0 
5477 5 0.362849 0.266983 0.133137 2 -1 4 
6895 5 0.723334 0.293139 0.141507 0 -4 -1 
7133 5 0.823109 0.310411 0.147657 -5 -1 1 
7250 5 0.320955 0.3033 0.183773 -3 3 4 
7052 6 0.595937 0.296459 0.108579 -1 0 -3 
7064 6 0.964842 0.324155 0.157463 6 3 2 
5385 5 0.873462 0.342632 0.147923 -2 0 0 
8475 6 0.892987 0.370774 0.153544 1 -1 5 
5074 5 0.318746 0.387493 0.169833 1 -3 0 
5497 6 0.56974 0.383543 0.135784 -1 -1 -1 
5003 6 0.896753 0.350614 0.164482 -2 -5 2 
5530 6 0.0579957 0.414659 0.177906 1 3 -6 
5227 5 0.307493 0.415167 0.135629 -2 1 -1 
5365 6 0.651553 0.394402 0.183813 -2 -4 -5 
8372 6 0.0216413 0.425696 0.185286 4 1 -4 
8967 5 0.177594 0.424498 0.132979 -1 -1 2 
8587 6 0.97787 0.455241 0.160826 -2 3 1 
6709 6 0.837418 0.430663 0.157752 2 -3 5 
6876 6 0.826581 0.540886 0.177716 2 2 1 
6924 6 0.123264 0.554395 0.154507 2 5 7 
7339 6 0.249107 0.542542 0.0990944 1 1 -2 
6544 5 0.0124371 0.604935 0.17437 1 -1 2 
7814 5 0.477472 0.616398 0.155484 -3 -1 1 
5836 6 0.857222 0.612268 0.16472 2 0 -4 
8594 5 0.0756724 0.66238 0.160422 5 -4 3 
6133 5 0.0973881 0.632351 0.152429 -3 -2 -1 
5957 5 0.95508 0.717049 0.130029 3 7 -1 
5389 6 0.00419829 0.668346 0.135311 -2 3 2 
5532 6 0.263879 0.643785 0.127696 0 2 -5 
7128 5 0.601194 0.683466 0.156302 -2 3 0 
6114 5 0.035227 0.743129 0.105758 1 6 -2 
7893 6 0.029853 0.70697 0.117367 1 4 1 
6804 6 0.405075 0.723968 0.145457 -5 -3 -2 
6939 5 0.56885 0.714875 0.143182 1 -3 2 
6499 6 0.501815 0.744545 0.173823 2 -1 9 
7258 6 0.133406 0.797147 0.189857 2 2 -3 
7123 6 0.478025 0.808375 0.155031 -1 -1 2 
7359 5 0.990212 0.822485 0.131232 -2 1 1 
5075 6 0.236097 0.790533 0.157292 1 -1 0 
8976 6 0.884389 0.801344 0.150171 1 -3 5 
6419 6 0.830924 0.877961 0.153805 -3 -4 2 
6099 6 0.686987 0.877499 0.124197 0 -1 3 
8666 6 0.683056 0.888068 0.182915 -6 1 1 
5869 6 0.699454 0.934244 0.14638 3 -3 0 
5510 5 0.359361 0.976671 0.152692 3 -1 -1 
6208 6 0.640907 0.981577 0.175584 1 0 5 
8152 6 0.581022 0.0450575 0.170628 0 -2 2 
5959 6 0.647976 0.0803862 0.173005 -2 6 0 
8084 6 0.191868 0.0527466 0.125708 -1 0 -1 
7054 6 0.415996 0.0575972 0.161907 3 -3 1 
8001 6 0.709131 0.0713087 0.195898 3 -1 0 
5960 5 0.355846 0.142014 0.226923 -1 4 1 
8895 6 0.741401 0.0855104 0.18164 -1 2 2 
8355 6 0.928942 0.0981814 0.158361 -4 -1 0 
5936 6 0.983683 0.13122 0.141001 0 -1 3 
7630 6 0.658842 0.169528 0.191554 -5 4 3 
8627 6 0.151498 0.153317 0.185206 -2 0 -2 
5669 6 0.383298 0.1633 0.203505 5 2 1 
5364 5 0.938781 0.226876 0.174645 1 1 3 
8606 5 0.672427 0.214009 0.167469 2 0 1 
8813 5 0.881053 0.219948 0.178532 3 0 2 
7396 5 0.00450472 0.223206 0.185469 1 1 -1 
8012 6 0.45732 0.265371 0.193071 -1 -3 -1 
5848 6 0.580131 0.237447 0.190551 2 -2 2 
5621 6 0.826469 0.262456 0.181272 -2 1 -1 
8675 5 0.820483 0.298504 0.178362 6 -1 2 
5264 5 0.683463 0.33391 0.19788 -1 0 -2 
7567 5 0.129064 0.372457 0.18629 5 2 2 
8921 5 0.325449 0.373912 0.153125 -1 -5 1 
6204 6 0.863631 0.318206 0.180405 -6 3 1 
6915 6 0.451047 0.347559 0.157317 -1 -4 -1 
6747 5 0.615449 0.31719 0.182355 7 -1 4 
5117 6 0.739744 0.40688 0.171473 3 -1 4 
5110 6 0.587411 0.389584 0.156204 -1 1 0 
5780 6 0.241336 0.45754 0.1786 0 3 4 
6413 6 0.364738 0.447825 0.148415 4 1 -3 
8184 5 0.555672 0.468883 0.144505 1 3 -3 
7418 5 0.303575 0.462331 0.226403 2 2 -3 
7986 5 0.684703 0.493179 0.159252 3 2 2 
5663 6 0.781731 0.532889 0.209307 1 1 -4 
7715 6 0.488051 0.534448 0.166121 -2 4 -4 
7810 6 0.776786 0.515742 0.142425 -1 0 -3 
5770 6 0.894529 0.520102 0.163263 0 -2 4 
5668 5 0.127809 0.564601 0.151025 -1 0 1 
8445 6 0.937394 0.566418 0.192149 0 5 -1 
6696 6 0.416189 0.633665 0.175386 9 1 7 
7490 6 0.335274 0.602005 0.188053 -3 3 0 
8830 5 0.548241 0.629379 0.138663 0 3 1 
7750 5 0.660096 0.654475 0.191356 0 -3 -4 
5415 5 0.0692403 0.614776 0.15311 -3 1 4 
7097 6 0.590654 0.673137 0.166285 0 1 -3 
6537 5 0.886379 0.63336 0.157601 -3 1 -2 
7688 5 0.49189 0.63269 0.196235 2 2 3 
7000 6 0.879126 0.712125 0.160644 0 3 3 
8564 6 0.0453475 0.724479 0.199168 1 0 2 
7148 5 0.319016 0.706719 0.163901 1 5 4 
7914 5 0.760907 0.67554 0.192818 1 0 1 
7700 5 0.566818 0.744782 0.132774 2 1 1 
8404 5 0.21565 0.82134 0.136269 1 -4 -1 
6562 5 0.96204 0.794847 0.158057 -2 2 0 
7100 6 0.533238 0.819267 0.200763 -6 -2 -2 
6645 6 0.820143 0.87009 0.208317 -2 -2 0 
6748 5 0.905011 0.84396 0.128173 3 1 3 
5849 5 0.947844 0.871086 0.184387 -5 3 0 
7048 5 0.45696 0.820442 0.178529 4 0 2 
6881 6 0.611354 0.896396 0.165951 2 -1 -2 
7240 5 0.0208454 0.934883 0.15088 2 -2 3 
6561 6 0.194708 0.919253 0.172778 3 1 3 
6183 6 0.18282 0.858986 0.181919 0 -1 -2 
5080 6 0.565782 0.914149 0.167108 0 -3 1 
5500 6 0.183022 0.962359 0.192694 5 -1 -2 
5791 6 0.951645 0.928543 0.160645 1 -2 2 
7057 6 0.203847 0.991157 0.166739 0 0 4 
6597 6 0.26706 0.996033 0.165231 1 -1 -1 
6265 5 0.0571711 0.99781 0.196565 2 0 2 
6673 6 0.125189 0.973099 0.212455 2 0 -4 
8570 6 0.117075 0.0394271 0.20246 -3 -6 -1 
7931 5 0.118763 0.0133146 0.180878 -3 5 1 
5295 5 0.601322 0.020477 0.199993 -3 0 -2 
5508 6 0.393829 0.0827469 0.187619 -5 -8 -5 
8863 6 0.711335 0.0616546 0.211119 3 0 1 
8545 5 0.0665613 0.0757255 0.215673 -2 -1 -3 
8946 5 0.301339 0.10477 0.215321 -1 6 -1 
7160 6 0.68708 0.099607 0.192762 -1 0 -1 
5973 6 0.507045 0.176638 0.18843 6 -1 -1 
6191 6 0.533755 0.115488 0.205763 -3 -3 1 
5824 6 0.506268 0.160289 0.174182 0 -1 4 
7381 6 0.534653 0.147754 0.197064 0 -2 1 
6053 5 0.650559 0.154156 0.19473 -5 1 3 
8617 5 0.503496 0.18686 0.189303 -1 -1 3 
6954 6 0.167327 0.165302 0.223867 4 -4 3 
6573 5 0.363478 0.177458 0.208504 3 0 7 
5755 6 0.422612 0.181512 0.206943 2 0 0 
5987 6 0.737936 0.195959 0.194938 -1 3 -3 
8487 5 0.960857 0.1885 0.216541 1 -1 -2 
5453 5 0.984103 0.210902 0.180582 4 -3 -1 
5917 6 0.178783 0.225882 0.173774 0 -2 2 
5467 5 0.735949 0.192705 0.183982 3 5 6 
6242 6 0.37696 0.246525 0.224247 -2 -2 3 
7032 5 0.681846 0.271491 0.160358 -2 -4 3 
6103 6 0.193174 0.28197 0.217602 -2 1 1 
5042 5 0.793539 0.277823 0.218726 -5 2 -4 
6198 6 0.891956 0.264545 0.145351 -2 1 0 
8614 6 0.921436 0.253896 0.22152 -1 4 0 
8219 6 0.570636 0.317117 0.132007 -5 6 -5 
6487 5 0.665036 0.325701 0.197087 -3 -2 -1 
6958 6 0.0121358 0.351319 0.182145 -1 2 -4 
5586 6 0.495807 0.390104 0.159781 0 -1 4 
6669 5 0.319903 0.358317 0.159373 3 2 1 
5762 5 0.914628 0.367082 0.167004 -4 -4 -5 
5828 6 0.348437 0.393776 0.176112 -1 4 -4 
5880 6 0.369763 0.429603 0.195166 2 -2 1 
5715 6 0.452318 0.344796 0.180163 -2 4 -1 
6707 6 0.967128 0.402192 0.188965 -4 1 1 
5894 6 0.919309 0.397016 0.205439 3 2 -1 
6463 5 0.17323 0.444378 0.190191 -2 3 -5 
5840 5 0.698329 0.452218 0.179498 -3 2 2 
6554 6 0.147632 0.454445 0.19754 0 -2 1 
5588 6 0.156505 0.46521 0.187387 0 2 -2 
5858 6 0.437086 0.452614 0.199839 -3 7 5 
6151 5 0.714673 0.495102 0.214448 1 0 1 
5347 5 0.0971821 0.511903 0.19224 -5 2 -4 
8094 6 0.55761 0.506827 0.174472 3 -2 0 
5554 5 0.210932 0.57022 0.233525 1 2 0 
8362 6 0.0180982 0.560191 0.210224 2 1 2 
5089 6 0.253943 0.557647 0.189386 1 -5 -3 
5639 6 0.416585 0.572474 0.205891 -3 3 -4 
7044 5 0.816409 0.603807 0.192731 0 0 1 
6771 6 0.028351 0.54807 0.185965 2 3 -4 
5358 6 0.319832 0.570448 0.154404 -2 -6 1 
7936 6 0.664968 0.592338 0.261192 -4 -1 4 
6576 6 0.0236158 0.63346 0.195433 0 0 4 
5436 5 0.116167 0.609663 0.210371 2 -1 0 
8945 5 0.147846 0.586676 0.178885 0 -6 3 
8816 6 0.358376 0.625904 0.177228 1 2 -2 