ITEM: TIMESTEP
20000000
ITEM: NUMBER OF ATOMS
9000
ITEM: BOX BOUNDS pp pp pp
-75 75
-75 75
-75 75
ITEM: ATOMS id type xs ys zs ix iy iz 
5565 6 0.210872 0.0313046 0.005487 -2 5 -1 
6838 5 0.252188 0.0405213 0.989911 1 -1 4 
8668 5 0.602269 0.996233 0.0140451 -1 2 2 
5626 5 0.545482 0.0136496 0.0132739 6 0 0 
7113 6 0.569026 0.970058 0.0305227 2 1 4 
5980 6 0.894715 0.0410486 0.999381 4 0 -2 
5069 6 0.322311 0.989751 0.0267292 1 -2 -2 
5655 5 0.48436 0.0418521 0.992562 -1 4 4 
6029 6 0.621079 0.0564493 0.993002 -3 1 -4 
7105 5 0.156979 0.0361214 0.0486273 -4 0 -4 
6881 5 0.168585 0.0651506 0.0481836 -2 -1 3 
5105 6 0.677935 0.0629062 0.949688 -1 3 4 
8987 6 0.306411 0.0771347 0.0224026 2 1 0 
5429 6 0.368885 0.0575652 0.965928 -5 3 4 
8114 6 0.762078 0.0823554 0.994429 -3 2 -2 
7108 6 0.231795 0.0880173 0.973579 5 -1 -2 
6529 6 0.857442 0.0887776 0.989762 2 4 -4 
6485 6 0.367301 0.147097 0.0454527 4 -2 0 
7879 5 0.530425 0.18752 0.0295682 5 4 3 
5005 6 0.0107435 0.177389 0.988796 6 0 0 
6772 5 0.99004 0.208194 0.995978 -1 0 1 
8385 5 0.397484 0.186511 0.052439 2 1 1 
6406 5 0.429244 0.252368 0.0410812 -6 0 -1 
8040 6 0.922915 0.254644 0.00983545 4 -4 -4 
6180 5 0.336751 0.229022 0.0225866 -2 2 0 
8088 5 0.0228953 0.268303 0.015576 9 -2 3 
7154 5 0.364264 0.289033 0.00957661 4 3 -1 
5887 5 0.472304 0.350854 0.965759 1 3 0 
5783 6 0.633508 0.29786 0.026413 1 0 0 
6449 6 0.394869 0.362223 0.0336884 -1 -2 -3 
5062 6 0.452073 0.378215 -0.0032601 3 -5 5 
8100 5 0.177938 0.387832 0.988474 1 -1 3 
8013 5 0.189733 0.455115 0.0546313 1 3 -4 
5080 5 0.535973 0.414663 0.00363082 -3 0 4 
7165 6 0.722849 0.406167 0.0135794 1 0 1 
6375 6 0.389882 0.473453 0.0560326 -4 2 1 
6376 5 0.164175 0.477369 0.0182772 6 -1 2 
5011 6 0.46707 0.478451 0.0161103 2 -2 6 
6605 5 0.488642 0.443937 0.0155394 -1 1 2 
7546 6 0.588823 0.460053 0.99576 0 4 3 
8678 5 0.102703 0.455162 0.985462 0 -3 -1 
8895 6 0.274134 0.503711 0.981626 -1 -2 4 
6324 5 0.532553 0.517077 0.0216748 3 3 0 
6418 5 0.708582 0.471884 0.0193843 1 -3 1 
5712 6 0.952775 0.486974 0.978377 -5 -2 2 
6157 6 0.263226 0.511617 0.0445825 3 -2 5 
7332 6 0.971243 0.558662 0.995974 0 3 1 
6845 6 0.265051 0.550154 0.0113163 4 3 0 
7835 6 0.822203 0.4989 0.98609 3 1 -5 
7502 6 0.90416 0.592244 0.980594 -2 -2 2 
6197 5 0.778566 0.615354 0.992628 5 -3 1 
5397 6 0.971879 0.619079 0.00958532 1 4 1 
6735 6 0.0629926 0.671739 0.00810043 3 -3 0 
5251 6 0.0618325 0.646772 0.0375768 0 0 2 
6464 5 0.958594 0.650989 0.0170959 0 -2 0 
7594 6 0.652922 0.670979 0.0449656 -1 0 -1 
6038 5 0.0256026 0.639246 0.0256017 -1 -3 -2 
7265 6 0.553724 0.671283 0.0364931 -5 0 -5 
8620 6 0.926991 0.759405 0.990869 2 0 4 
7989 6 0.951195 0.730343 0.977322 -2 -4 -2 
8159 6 0.490846 0.742268 0.00379343 3 -7 2 
6028 6 0.58763 0.805584 0.0403069 -1 4 4 
7020 6 0.837876 0.769855 0.00809563 -4 -1 -2 
5238 6 0.0216569 0.830516 0.0413429 1 2 -4 
5044 5 0.536963 0.813452 0.991221 3 -1 -3 
7069 5 0.429139 0.844156 0.0294997 -3 0 3 
5491 5 0.0253591 0.914638 1.00102 -3 -2 2 
8858 5 0.385057 0.898786 0.0207508 1 -4 1 
6745 6 0.733027 0.929945 0.00183331 1 -2 -1 
5729 6 0.824519 0.948741 0.0302737 0 3 4 
7230 6 0.558879 0.972267 0.033542 3 0 2 
5091 5 0.640614 0.976147 0.0170292 -7 -1 2 
6011 6 0.748383 0.966874 0.00309637 1 -1 -4 
7704 5 0.833864 0.932728 -0.000259888 0 1 0 
8680 5 0.957904 0.948538 0.0165207 3 1 1 
8197 6 0.987414 0.968041 0.0267627 -1 0 2 
7920 5 0.0643285 0.00295725 0.0211394 -3 3 -5 
5785 5 0.279397 0.062598 0.0874621 1 3 -3 
5631 5 0.38223 0.0317501 0.0992771 -6 2 2 
7768 6 0.457453 0.057365 0.0135607 1 -2 1 
6943 5 0.449801 0.0745285 0.0178609 -2 -1 2 
5863 5 0.949105 0.0517901 0.0187289 6 -1 1 
7790 5 0.25034 0.0836338 0.0442455 -1 -4 0 
6661 5 0.41131 0.107765 0.0181876 0 0 3 
7322 5 0.878076 0.0980372 0.0627953 0 5 -3 
5966 5 0.775432 0.146575 0.0395584 4 0 3 
6052 6 0.912716 0.147734 0.0230405 -3 -1 -4 
8711 5 0.0693417 0.169131 0.06094 -1 -2 -1 
6327 5 0.187594 0.169041 0.0325418 4 -5 5 
7895 6 0.642408 0.133334 0.0660167 3 1 2 
6210 6 0.982362 0.190233 0.036882 3 0 -4 
8689 6 0.0726792 0.223692 0.0512185 2 -2 2 
8242 5 0.0446816 0.193935 0.00536082 1 -5 2 
5641 5 0.307142 0.204546 0.0271266 -1 1 -1 
8628 6 0.383924 0.215383 0.0186926 2 1 -3 
8127 6 0.936231 0.17901 0.0418328 -1 -2 -3 
6751 5 0.848652 0.234299 0.0290985 -3 1 -3 
5209 6 0.0617393 0.329525 0.0264176 -2 3 2 
7596 5 0.190771 0.278603 0.0024103 -1 -2 -3 
5906 5 0.435962 0.292251 0.0331106 1 3 0 
6281 5 0.326936 0.29834 0.01447 1 3 1 
8352 6 0.46997 0.336875 0.0579831 0 0 4 
7413 5 0.583972 0.357421 0.00382684 0 -5 -6 
6027 5 0.817678 0.336463 0.0653742 -1 -1 0 
6854 6 0.861605 0.341794 0.0163242 1 -3 0 
7367 6 0.958557 0.294386 0.0581705 3 3 3 
5255 6 0.433798 0.312098 0.0484868 2 -2 1 
6270 5 0.124844 0.363089 0.0145795 9 8 4 
6456 6 0.141546 0.38258 0.0584179 -2 -1 0 
7631 5 0.706436 0.348644 0.0535965 -2 2 4 
7030 5 0.428409 0.378532 0.0382003 -2 2 2 
5556 6 0.504353 0.377147 0.0302666 0 2 -3 
8499 6 0.0551291 0.419288 0.064611 2 4 -2 
8402 6 0.719351 0.417096 0.0428977 -2 -2 3 
5665 5 0.315944 0.467712 0.037879 -2 2 4 
8364 5 0.53383 0.474763 0.0188622 -3 -4 -4 
5495 6 0.0338704 0.503226 0.0114974 2 3 5 
5933 5 0.0760826 0.482348 0.0247111 -4 -2 -1 
5594 6 0.339719 0.470976 0.00780077 4 -3 -3 
8330 5 0.249813 0.497009 0.0691382 0 -1 -1 
8579 6 0.406936 0.484992 0.0394467 1 3 5 
5023 5 0.98305 0.530922 0.0470932 3 -1 -3 
7417 6 0.856742 0.521863 0.0180215 -2 6 2 
7310 5 0.244207 0.587998 0.0094577 4 2 -2 
8412 6 0.363896 0.553019 0.00395937 1 -1 -2 
8856 6 0.474734 0.524491 0.0293796 0 -2 4 
8520 6 0.493324 0.56055 0.0305806 -5 1 -1 
6778 5 0.537267 0.564236 0.0146402 3 -4 -1 
6190 5 0.617329 0.537999 0.00730345 0 0 4 
5983 6 0.322651 0.584501 0.065681 1 0 0 
6974 6 0.551646 0.562003 0.0719738 -2 0 3 
8810 5 0.369728 0.582317 0.0276321 -2 0 -1 
6566 5 0.609163 0.604137 0.0665695 0 -3 -1 
8112 5 0.684699 0.61618 0.996787 -1 4 0 
8151 5 0.250121 0.612722 0.00400968 2 3 6 
8749 5 0.171992 0.665983 0.0194348 5 4 3 
7752 5 0.543868 0.658567 0.0567505 1 1 0 
8693 6 0.179402 0.708747 0.0735466 -2 4 1 
7582 6 0.735956 0.69106 0.0061429 -4 4 -1 
5700 5 0.779672 0.701621 0.0274 2 -3 3 
6586 5 0.0922516 0.714298 0.0889155 0 -4 2 
7086 5 0.273855 0.749825 0.0377419 -5 1 2 
5531 5 0.396211 0.73451 0.0350741 1 -4 2 
5364 6 0.226048 0.77629 0.0259705 0 -4 -3 
7690 6 0.407996 0.738007 0.0266239 -3 0 5 
8878 5 0.667635 0.753078 0.040616 5 0 -3 
7406 5 0.578377 0.773749 0.0411688 2 6 -2 
7228 5 0.859374 0.827269 0.0413717 -8 -1 -1 
8604 5 0.367865 0.772881 0.0461869 1 1 4 
7727 5 0.904305 0.770402 0.0512077 -3 3 7 
6438 6 0.717591 0.843068 0.0676544 0 -3 -3 
5671 6 0.227591 0.850342 0.0378585 2 -2 4 
5597 5 0.875612 0.892557 0.0281252 -4 1 0 
8185 5 0.492111 0.85725 0.0146184 -4 0 4 
7047 5 0.503544 0.943033 0.0021662 -2 -2 2 
7746 5 0.654752 0.920393 0.0494292 1 -2 2 
8000 5 0.463411 0.89959 0.0401834 0 -5 -1 
7078 6 0.875511 0.905516 0.0561448 -1 -3 2 
8110 6 0.165361 0.947081 0.053573 0 3 4 
6013 5 0.0239662 0.946532 0.0502163 2 -2 0 
7204 6 0.65544 0.960986 0.0237652 -1 -3 3 
5048 5 0.873294 0.990065 0.0127602 2 -1 -1 
6637 6 0.271727 0.00510837 0.0648992 0 0 -1 
8116 5 0.836717 0.989062 0.0240194 -2 0 -2 
6092 5 0.711025 0.0583903 0.047353 -6 1 -6 
5070 5 0.88909 0.0218407 0.0979938 0 2 -3 
6379 6 0.712389 0.0410643 0.0669221 -6 1 4 
5794 6 0.474877 0.0992074 0.0342335 -1 -1 2 
7815 5 0.742158 0.119192 0.0738288 1 3 4 
7116 6 0.0133865 0.112729 0.0185583 -4 -3 1 
8607 6 0.838477 0.0928416 0.0909553 -1 -4 1 
8974 5 0.314201 0.135659 0.0337966 3 6 2 
6648 5 0.360901 0.137231 0.0667726 1 0 1 
5680 5 0.939262 0.1284 0.0427794 -1 -2 -2 
5245 5 0.239184 0.149638 0.0531847 0 -1 6 
6081 6 0.330882 0.189955 0.0523361 0 0 1 
7179 6 0.727749 0.182418 0.0519764 2 2 -1 
7156 6 0.718734 0.163584 0.0551935 1 1 1 
7932 6 0.0905697 0.254811 0.0563914 -1 6 -1 
6514 5 0.38796 0.223831 0.045005 -3 3 -1 
8064 6 0.375212 0.267768 0.0476697 1 5 3 
6016 6 0.655203 0.257344 0.030847 2 3 4 
7495 6 0.848412 0.257439 0.0715506 2 3 0 
5942 6 0.194954 0.306422 0.0475927 -3 4 3 
8034 5 0.552636 0.261258 0.0724206 0 0 -3 
8503 5 0.774111 0.315667 0.0146471 -1 1 0 
7160 6 0.581194 0.332174 0.0661115 -6 0 3 
5522 6 0.974039 0.309551 0.0671522 -3 -2 -3 
8051 5 0.100083 0.356268 0.0641586 -1 0 2 
5153 5 0.198916 0.314909 0.072002 1 -3 -1 
5885 6 0.297979 0.3327 0.0384653 -1 7 2 
8881 5 0.49032 0.393211 0.0382503 -2 -2 1 
8253 5 0.960014 0.438826 0.0670549 -1 1 1 
5704 5 0.634448 0.450258 0.058139 -2 -2 2 
6579 5 0.193376 0.444191 0.0400296 1 -1 0 
6444 6 0.118684 0.485233 0.0693049 -1 0 0 
5035 5 0.115272 0.452083 0.0560622 0 -2 4 
7246 6 0.654906 0.469358 0.0242581 2 -2 0 
7225 6 0.650797 0.48774 0.017565 0 -5 -4 
7306 5 0.895134 0.493466 0.0777374 1 4 3 
5181 5 0.0219106 0.49939 0.0433149 -1 3 -3 
5865 6 0.572899 0.536071 0.0439876 2 3 2 
8929 5 0.896614 0.539222 0.0803866 -7 5 1 
6734 6 0.977592 0.515476 0.0665977 -1 4 4 
5740 6 0.696658 0.509742 0.0748273 1 -3 7 
5285 6 0.751324 0.534866 0.0911946 0 -5 0 
6370 6 0.494114 0.560063 0.0613107 5 -4 -1 
7938 6 0.62953 0.545781 0.0557566 -1 0 -1 
6872 6 0.804946 0.599249 0.0182261 3 0 0 
6719 6 0.117683 0.611052 0.0843054 -3 1 -1 
5305 5 0.604977 0.597173 0.0747294 3 -2 3 
5258 6 0.948926 0.615989 0.039267 -6 -1 1 
7017 6 0.432346 0.668788 0.0695725 1 0 0 
6556 5 0.549743 0.681019 0.0659249 1 -5 -4 
8157 6 0.706359 0.633496 0.0429694 0 -2 1 
6426 5 0.714693 0.657353 0.0337404 4 -5 -4 
8084 5 0.813729 0.676869 0.065074 -3 1 0 
8387 5 0.959589 0.695943 0.0716541 3 -4 -1 
7756 6 0.167855 0.713868 0.0550793 -5 -1 -3 
5930 6 0.139773 0.697446 0.059589 -2 -1 -3 
6254 6 0.510845 0.691296 0.0548031 1 -4 1 
8169 6 0.725698 0.755748 0.0280224 1 -2 1 
7846 6 0.751139 0.704934 0.0434309 -2 -2 0 
7070 6 0.180385 0.74199 0.0427512 9 5 -5 
8045 5 0.455925 0.72267 0.0321455 0 3 1 
5490 6 0.0639835 0.774262 0.0467286 -2 -2 1 
6877 5 0.0928298 0.817205 0.0679349 -3 4 5 
6137 5 0.365499 0.803919 0.0827041 0 -2 -4 
5813 5 0.455475 0.779468 0.0404698 -8 2 3 
6774 6 0.605888 0.816187 0.0543005 4 -5 4 
6890 6 0.881661 0.807578 0.0870961 3 -2 0 
5513 6 0.509008 0.851189 0.0645668 2 1 -5 
6792 6 0.112564 0.864182 0.0453176 1 -5 2 
6047 6 0.224231 0.911848 0.0412344 -1 -1 -6 
7954 6 0.234886 0.908244 0.059084 -1 2 0 
5309 5 0.688259 0.851438 0.0618449 1 -2 5 
5692 6 0.515809 0.925101 0.0409327 -1 0 -4 
5814 5 0.596839 0.894992 0.0846749 2 -1 -3 
7034 5 0.620521 0.910553 0.0319407 -1 -5 -2 
5186 5 0.419635 0.949423 0.0391462 -7 -2 3 
5378 6 0.0858117 0.939409 0.0616191 0 1 -2 
8587 6 0.286059 0.973812 0.0615897 -3 -4 3 
7640 6 0.782642 0.992017 0.0270973 -4 2 2 
8958 6 0.986679 0.999156 0.0641788 -4 -4 3 
8284 6 0.290807 0.0141402 0.115085 -1 4 6 
5298 6 0.482845 0.0183842 0.0769174 -1 0 -2 
6721 5 0.568662 0.0174476 0.0730796 -2 1 -3 
8717 6 0.615111 0.0204706 0.0792003 1 2 3 
6528 6 0.807278 0.994252 0.105639 3 -3 1 
5358 5 0.030032 0.0813458 0.0853071 -1 3 0 
8627 6 0.605448 0.0502549 0.0491615 1 4 2 
8759 5 0.953164 0.0301448 0.0763111 -1 -2 -2 
5329 6 0.00463967 0.134693 0.0899437 -2 -1 2 
8707 5 0.83107 0.0942422 0.0817635 -2 -1 -1 
6597 5 0.0762219 0.125986 0.0532483 2 -1 1 
6706 6 0.391334 0.134091 0.100031 2 4 1 
6007 5 0.470282 0.130894 0.0537105 -4 -3 0 
7584 5 0.659103 0.179742 0.105272 2 5 3 
7643 5 0.845526 0.162673 0.0836284 2 5 4 
6508 6 0.117579 0.189711 0.105699 0 2 -2 
8011 5 0.184156 0.202323 0.0833444 0 -2 -2 
6208 6 0.545433 0.203163 0.0461574 2 -1 -1 
5806 6 0.854822 0.221663 0.0436444 2 4 0 
8548 6 0.15731 0.277162 0.112184 -2 5 2 
6908 5 0.723247 0.179158 0.10282 -2 -2 1 
6097 5 0.775192 0.272937 0.104157 0 -5 -2 
7283 6 0.167641 0.300982 0.0713263 0 -1 6 
7705 5 0.974495 0.293722 0.0738226 -3 1 -1 
7551 6 0.204404 0.296048 0.033633 0 1 0 
5640 5 0.461297 0.318966 0.0806402 -2 4 -7 
7127 5 0.0834005 0.356247 0.0656341 2 1 -5 
5453 6 0.161125 0.356776 0.0974853 2 0 2 
7769 6 0.189473 0.350698 0.0695831 0 -2 -3 
7110 5 0.951299 0.37393 0.0933236 -4 -2 -1 
8205 5 0.950258 0.369758 0.0737016 -5 -1 5 
5072 5 0.656093 0.353575 0.0920663 5 5 4 
5024 5 0.704606 0.355119 0.0723443 -3 0 2 
5664 6 0.0663293 0.426363 0.0680335 -1 -1 -1 
7472 6 0.127906 0.394825 0.0538699 2 5 2 
8153 5 0.444996 0.422003 0.0540877 3 3 1 
8146 5 0.807213 0.400549 0.0971467 -2 -2 1 
5646 6 0.80452 0.415357 0.128762 3 1 0 
8334 6 0.103802 0.443254 0.10577 5 -1 -1 
5250 6 0.504251 0.418817 0.0899475 -5 1 1 
5553 5 0.972962 0.451693 0.0412033 -2 1 -3 
5947 5 0.894975 0.483401 0.0738108 -5 0 3 
5777 6 0.171817 0.518816 0.0408518 -2 3 -2 
7190 5 0.924624 0.539571 0.0687468 -1 -3 -2 
6154 6 0.00778985 0.523297 0.0561855 6 0 -5 
6780 6 0.399655 0.546202 0.0588121 1 -2 -3 
7937 6 0.438252 0.572936 0.0821332 1 -5 6 
7186 6 0.970095 0.54618 0.0860964 0 -5 3 
5801 6 0.950747 0.608423 0.0795277 3 -2 0 
7850 5 0.154162 0.639945 0.0522578 0 -5 -1 
6548 6 0.289339 0.626421 0.0736977 1 1 1 
6233 5 0.0745299 0.651508 0.0734852 3 -1 3 
5524 6 0.16965 0.654045 0.0919048 2 -3 1 
6675 5 0.437174 0.691384 0.0776025 3 0 0 
6015 6 0.702663 0.721834 0.102454 1 -2 2 
5755 6 0.271186 0.718904 0.0730102 -1 3 -2 
5219 5 0.399914 0.722159 0.0855992 5 -1 7 
6708 5 0.513092 0.715301 0.0899754 3 4 1 
6598 6 0.543941 0.723484 0.0734337 2 3 3 
7563 6 0.00493263 0.712961 0.0939974 4 0 -2 
5190 5 0.698915 0.713492 0.0594148 -1 1 2 
5338 6 0.702485 0.759466 0.0721752 3 0 2 
7352 5 0.404641 0.740787 0.117497 6 0 0 
5564 6 0.476927 0.815849 0.0505702 2 -2 1 
8234 6 0.60107 0.735225 0.0792445 3 -1 -1 
7527 5 0.677725 0.740321 0.0892429 1 3 0 
8582 5 0.293098 0.799763 0.120727 0 1 1 
5842 6 0.807567 0.792868 0.0601091 0 -1 -2 
7986 5 0.276056 0.823784 0.0868255 3 0 -2 
5511 5 0.686037 0.823693 0.0936774 -2 -1 1 
8072 5 0.161042 0.843112 0.0914722 0 1 -1 
6410 5 0.169502 0.792115 0.0954748 -1 -4 -5 
8685 5 0.198921 0.836379 0.0711346 4 -1 0 
6962 6 0.595083 0.846833 0.0687296 -3 1 4 
7451 5 0.440475 0.894893 0.101912 6 -1 5 
5946 6 0.446242 0.827853 0.0881651 2 1 1 
5586 5 0.711092 0.878172 0.0949464 3 -3 2 
5977 5 0.0920932 0.933161 0.0734622 1 2 0 
6126 6 0.760215 0.923242 0.0819088 3 4 2 
7929 6 0.796882 0.955775 0.0603995 -3 4 8 
7088 5 0.825662 0.903981 0.0839789 -3 3 4 
6662 6 0.927125 0.972602 0.0900002 3 1 0 
6138 6 0.0899136 0.980662 0.0211161 -5 1 2 
5063 5 0.0929727 0.0108732 0.0656758 1 2 -1 
6984 5 0.0253575 0.0356717 0.0959988 -1 -3 -3 
7534 5 0.406873 0.956823 0.0985185 3 -1 -3 
5656 6 0.990832 0.0113534 0.0986654 0 -5 2 
6700 6 0.232653 0.0623342 0.0973537 3 2 2 
5292 6 0.978665 0.0976735 0.0796204 4 2 -3 
7324 6 0.260687 0.124105 0.10508 0 4 1 
8419 6 0.910182 0.111894 0.116893 -2 5 1 
5612 6 0.0812386 0.0975791 0.105726 -1 2 -2 
8921 5 0.0866741 0.151747 0.0928428 0 6 -2 
5161 6 0.193384 0.141515 0.161199 3 4 2 
8865 5 0.218384 0.122855 0.0872253 0 -2 3 
6188 6 0.364606 0.172815 0.0941175 4 1 -1 
8093 6 0.394916 0.171171 0.132045 -1 0 2 
8291 5 0.428547 0.16287 0.0941763 -1 2 -2 
8790 6 0.481011 0.156546 0.0766199 0 1 5 
7240 5 0.68977 0.134728 0.0734564 3 -1 -1 
6798 5 0.225831 0.224242 0.0700936 1 -1 -1 
6855 5 0.696729 0.237498 0.0724417 1 4 -3 
5992 5 0.478595 0.238964 0.0982893 0 2 2 
8839 5 0.508092 0.260271 0.0689927 0 2 1 
8192 6 0.584594 0.271489 0.0821046 4 5 -1 
5177 5 0.47022 0.265605 0.0911385 5 -5 9 
7115 5 0.0349928 0.305789 0.118671 -3 3 -1 
8564 6 0.583068 0.299412 0.108067 3 3 -3 
8017 5 0.553143 0.354218 0.109567 -2 1 -4 
5622 6 0.72641 0.327301 0.0726022 2 1 -2 
6603 6 0.78416 0.331793 0.0998804 -1 -1 6 
5146 6 0.545329 0.356098 0.0657621 -1 -2 -3 
8511 5 0.801088 0.376008 0.121036 -4 -2 -1 
8880 6 0.969721 0.366959 0.0847045 -1 2 3 
5628 5 0.730144 0.398285 0.0951637 3 6 4 
5737 6 0.995814 0.413499 0.100549 2 -1 -1 
7383 6 0.366404 0.415253 0.0856716 0 -5 -2 
5566 5 0.901817 0.441332 0.0937496 4 1 2 
6041 5 0.146883 0.47433 0.09542 1 2 3 
6014 5 0.227517 0.488552 0.0965424 2 -4 1 
6660 6 0.910226 0.470345 0.108912 -1 -5 0 
6982 6 0.163448 0.503418 0.0909144 -3 1 -2 
7856 6 0.504736 0.490792 0.142419 -4 -1 -4 
7053 6 0.471359 0.544233 0.0860173 6 -4 5 
8870 6 0.602227 0.499134 0.115678 -1 2 6 
6470 5 0.473551 0.488885 0.127689 2 1 7 
7388 6 0.0153156 0.545533 0.107356 3 4 0 
6002 6 0.149877 0.556095 0.0919831 -1 5 0 
6655 5 0.59933 0.534858 0.104698 -1 -1 -1 
7717 6 0.691513 0.571531 0.0650713 4 3 2 
6501 5 0.0362962 0.587778 0.143466 3 -2 -1 
5135 6 0.00990159 0.575859 0.0979571 -4 6 -4 
5847 5 0.948753 0.619356 0.0942979 3 2 -7 
6359 5 0.411099 0.626751 0.105099 1 0 0 
8408 6 0.75757 0.632668 0.110862 -4 0 1 
6500 6 0.0415605 0.63867 0.122185 0 -2 -1 
7549 5 0.46002 0.644683 0.0784805 2 -2 4 
6935 6 0.757856 0.639432 0.118827 -4 1 -6 
7409 5 0.116255 0.686114 0.103229 3 4 -2 
7841 5 0.371742 0.728032 0.141133 0 -1 -2 
6596 6 0.534165 0.678687 0.091213 1 -3 2 
8161 5 0.435513 0.693867 0.0859882 -3 0 -3 
5768 6 0.104636 0.738706 0.0830392 2 1 -1 
7478 6 0.304238 0.703438 0.107863 -2 -1 -3 
8235 6 0.606685 0.689055 0.0996294 3 2 -2 
6397 5 0.948482 0.691518 0.106449 1 -3 0 
7315 5 0.597558 0.716297 0.0951566 1 2 -4 
6702 6 0.830379 0.709977 0.102279 7 -5 -3 
7256 6 0.849688 0.729635 0.120467 -6 0 3 
8479 5 0.839114 0.72157 0.112013 0 3 1 
7456 6 0.223006 0.759126 0.0954127 0 -3 6 
7348 6 0.294228 0.781757 0.155504 -3 -1 0 
6150 6 0.469512 0.770024 0.0708379 4 -1 1 
6756 6 0.0253138 0.7852 0.146452 0 -4 -1 
6338 5 0.225542 0.768784 0.14739 1 -1 -3 
8225 5 0.711337 0.806913 0.107039 2 5 0 
6241 5 0.740694 0.788458 0.126205 0 0 1 
6678 6 0.697543 0.780912 0.118256 -5 -1 2 
7675 6 0.828853 0.793214 0.0820797 -6 -4 -2 
6698 5 0.45017 0.820821 0.111101 -1 -3 3 
5973 6 0.73719 0.847261 0.137694 -6 0 -8 
7235 5 0.864535 0.850178 0.0905368 4 -2 -1 
7922 5 0.983505 0.847015 0.0953155 6 -2 0 
8642 6 0.519329 0.828136 0.108588 1 -3 3 
6673 6 0.767857 0.893152 0.0493616 -2 -3 2 
8831 5 0.30752 0.860263 0.0921723 3 2 2 
8304 5 0.072982 0.881844 0.0901169 0 -4 0 
8837 5 0.652584 0.953413 0.117911 1 4 -3 
5926 5 0.67078 0.929541 0.0949852 -1 1 1 
8362 5 0.707995 0.946311 0.0982595 -1 2 3 
6669 5 0.748472 0.947493 0.0910831 -2 2 2 
6628 5 0.816642 0.916235 0.117474 5 -6 3 
6021 6 0.71457 0.970199 0.134292 -2 -3 -3 
6986 5 0.577021 0.968569 0.125541 3 3 -4 
7262 5 0.634625 0.0122953 0.118392 1 -1 -2 
8132 5 0.915701 0.983088 0.111306 2 -2 1 
6199 5 0.12951 0.0528761 0.140702 -2 -1 1 
7321 5 0.479106 0.0114188 0.140662 3 0 1 
6823 6 0.239283 0.123558 0.0928299 -2 -4 0 
7735 6 0.830646 0.13458 0.143278 2 -3 0 
6072 6 0.232309 0.140521 0.120622 -1 0 -2 
5580 5 0.118654 0.154645 0.119624 -2 0 2 
5455 5 0.61074 0.19044 0.161274 3 3 1 
6794 5 0.650919 0.193197 0.109733 2 -2 3 
5550 6 0.740879 0.201038 0.125346 0 -1 3 
5099 6 0.931759 0.16073 0.131797 -1 4 -1 
6733 6 0.342749 0.189961 0.151236 4 0 -4 
8497 6 0.80962 0.194207 0.100418 -2 -1 -1 
5368 6 0.843796 0.194527 0.132928 -1 1 3 
6934 5 0.327754 0.252681 0.132445 2 1 -3 
8275 5 0.761158 0.229827 0.122683 4 0 1 
8667 5 0.150221 0.22788 0.126474 2 -2 -3 
8751 5 0.209146 0.223893 0.157948 -1 -2 -3 
8531 6 0.332529 0.281759 0.0981302 2 -4 4 
6365 5 0.854399 0.259621 0.101246 0 0 1 
8257 6 0.998047 0.23191 0.121075 7 1 -1 
6082 6 0.521983 0.276792 0.0755018 -1 0 -2 
7019 5 0.0582362 0.301167 0.107166 0 0 0 
7734 6 0.578561 0.328862 0.14622 2 2 -2 
8199 6 0.264235 0.320118 0.127787 3 2 -1 
7671 5 0.411944 0.322393 0.119703 -3 6 2 
6203 5 0.287752 0.399016 0.138627 -2 -2 3 
6729 5 0.623411 0.384285 0.137695 -2 -2 1 
7237 6 0.787338 0.389765 0.145695 2 -1 -2 
8977 6 0.908037 0.382489 0.0886258 -1 -3 1 
7935 6 0.451663 0.394889 0.11231 3 4 1 
5018 5 0.461318 0.442107 0.1462 2 0 3 
6389 5 0.499992 0.426991 0.1215 1 -5 -4 
5086 6 0.827374 0.432686 0.135929 2 -1 5 
7908 6 0.41168 0.476369 0.104939 1 0 -2 
6864 5 0.653537 0.432906 0.108228 2 3 2 
7693 5 0.56877 0.453376 0.103973 5 1 5 
8976 5 0.759093 0.47586 0.128394 0 3 5 
5790 6 0.26271 0.467182 0.0991209 -5 5 -7 
5773 5 0.512465 0.465498 0.137512 -2 2 0 
7215 5 0.887038 0.494149 0.120658 1 4 4 
7795 6 0.335766 0.554754 0.142573 3 -7 0 
7376 6 0.742873 0.475117 0.143106 0 0 0 
8682 5 0.142898 0.547538 0.150159 5 -3 3 
7480 5 0.290898 0.525892 0.155522 2 1 2 
7452 6 0.298562 0.541546 0.144543 3 3 -2 
6008 5 0.576222 0.534115 0.100242 1 -2 -2 
6084 6 0.57414 0.556014 0.0893224 -1 2 -2 
8337 6 0.777936 0.529873 0.122219 1 1 1 
7965 5 0.999648 0.524862 0.127737 -3 3 -1 
8056 6 0.0548993 0.56624 0.0876353 1 -2 2 
7578 5 0.26174 0.594064 0.142925 3 2 -3 
7753 6 0.16528 0.589951 0.135873 1 0 0 
6654 5 0.762172 0.641876 0.107331 -6 1 0 
5140 6 0.153944 0.626441 0.128273 -2 -1 -1 
8148 5 0.289218 0.657115 0.0865485 3 5 5 
9000 6 0.751167 0.679689 0.161951 -3 -2 -4 
5470 6 0.0550931 0.715165 0.082484 3 2 4 
5095 5 0.0735696 0.707134 0.111111 -3 -2 0 
5521 6 0.201726 0.736101 0.131089 -1 -2 -8 
6469 5 0.350471 0.698529 0.149901 0 -8 1 
5614 6 0.960149 0.717174 0.110901 -3 3 -5 
7887 5 0.113617 0.691539 0.141172 0 -3 0 
6525 5 0.187621 0.705422 0.109516 -2 -3 2 
5657 5 0.935744 0.735582 0.129982 4 1 2 
7907 6 0.977058 0.709779 0.120908 -1 -1 0 
5844 5 0.234577 0.773296 0.122843 1 -4 1 
6274 5 0.473236 0.73877 0.111368 0 -1 -2 
6567 6 0.674014 0.741617 0.139751 -1 -2 1 
8038 6 0.748696 0.738011 0.110028 2 -1 0 
7763 5 0.839991 0.734003 0.132243 3 1 4 
8829 6 0.439273 0.793903 0.151985 4 1 3 
5191 5 0.659669 0.810617 0.143712 2 -2 -3 
8365 6 0.148982 0.793745 0.122647 -6 -4 -1 
8010 6 0.911613 0.810671 0.147614 -3 1 -2 
6569 5 0.022735 0.827679 0.0832814 -1 -2 0 
6153 5 0.23349 0.830681 0.142057 1 -3 4 
7941 5 0.352241 0.861389 0.117135 -4 -2 5 
6407 6 0.374013 0.846817 0.105945 3 -2 3 
7163 5 0.717675 0.874224 0.143965 2 3 4 
5164 6 0.816939 0.870256 0.12124 -3 0 -2 
7402 5 0.0543772 0.906572 0.107217 5 0 1 
8145 6 0.254965 0.865029 0.156807 -2 -1 3 
7330 5 0.920558 0.912343 0.11071 1 0 3 
8079 6 0.98853 0.929522 0.0967393 -6 -1 8 
7181 6 0.153198 0.93695 0.117361 -8 -3 -2 
7271 5 0.390405 0.946556 0.113567 0 -5 2 
6916 6 0.48562 0.898394 0.155723 0 -1 3 
7238 5 0.413175 0.929443 0.127461 -3 1 -2 
8310 5 0.713419 0.931328 0.119774 -1 4 -1 
6496 5 0.353058 0.978704 0.111654 -1 -2 4 
5496 6 0.593001 0.00516924 0.138208 1 2 4 
5148 6 0.126764 0.03833 0.164181 -2 2 4 
7758 6 0.108972 0.0326058 0.157884 0 3 3 
6860 6 0.514327 0.0404133 0.123452 0 -4 -1 
8559 5 0.867866 0.0512187 0.158277 -1 1 -3 
8244 5 -0.00228129 0.0672628 0.149061 3 -1 2 
6888 5 0.196106 0.0491974 0.16153 -2 -3 5 
5838 6 0.852594 0.0444709 0.152634 4 -4 -4 
7148 5 0.441362 0.108819 0.135859 3 4 3 
7553 5 0.441685 0.0955738 0.115295 2 -4 3 
8055 6 0.837142 0.0612794 0.133544 -1 4 5 
7212 5 0.0780671 0.164849 0.12058 -5 -1 0 
5346 6 0.191565 0.129705 0.167309 3 1 -1 
6901 6 0.281481 0.168739 0.145662 -1 0 -1 
5819 6 0.300694 0.121619 0.156079 -4 -3 1 
7418 5 0.755019 0.220327 0.139819 -3 2 -4 
8508 5 0.215253 0.195438 0.1801 -2 4 0 
6104 5 0.646397 0.190599 0.192931 0 0 -1 
5487 5 0.155751 0.251061 0.128632 9 2 3 
6181 6 0.465274 0.257306 0.14949 5 -1 3 
7992 5 0.0675565 0.244745 0.164611 1 1 3 
8639 6 0.606162 0.280602 0.147414 3 -1 3 
8054 6 0.654325 0.284209 0.208364 2 5 0 
6847 5 0.706437 0.287342 0.132875 7 -1 0 
5587 6 0.126445 0.267026 0.106076 -1 -1 -1 
7845 5 0.772724 0.346573 0.137211 0 1 -1 
7804 6 0.361159 0.350655 0.097952 -1 2 -1 
6495 6 0.853318 0.310718 0.124681 -3 -7 -1 
5432 5 0.154398 0.363722 0.185666 0 -3 4 
6580 5 0.0121883 0.428584 0.155153 -1 2 -2 
6878 5 0.00593781 0.439491 0.114335 -2 4 -1 
7608 5 0.334858 0.407838 0.141774 5 5 6 
5131 6 0.408234 0.417443 0.190928 -7 -2 2 
7700 6 0.987716 0.447078 0.158226 -2 -2 2 
5421 6 0.156995 0.461077 0.161326 0 1 1 
5871 6 0.447883 0.455019 0.182782 -3 -3 -3 
7764 6 0.873245 0.485178 0.185293 -1 -5 -4 
8496 5 0.930228 0.46143 0.126271 1 5 0 
8529 5 0.731667 0.499006 0.171201 -3 4 0 
5107 5 0.0607889 0.498339 0.119627 0 -2 -3 
7382 6 0.529098 0.506047 0.126156 1 1 -1 
8489 5 0.341725 0.522528 0.172408 -5 0 1 
6737 5 0.787527 0.585755 0.114632 -3 -1 2 
5327 6 0.865056 0.614763 0.167057 -5 -3 1 
7040 5 0.595214 0.681318 0.11025 0 2 1 
6117 6 0.629713 0.636039 0.131995 6 -4 3 
7426 5 0.435903 0.683675 0.148656 -5 0 0 
6130 5 0.0395888 0.713443 0.126111 0 -1 0 
8927 5 0.282099 0.724489 0.148697 1 -5 1 
6576 5 0.541987 0.724972 0.175879 -1 3 2 
6436 6 0.968041 0.752057 0.17667 -5 -2 -1 
8198 5 0.415105 0.811049 0.107039 4 3 2 
7056 6 0.800428 0.820227 0.181879 -1 -1 1 
7396 5 0.0252074 0.866306 0.11999 0 -3 1 
8461 5 0.400206 0.861109 0.119988 -2 -1 -1 
7131 5 0.465707 0.849306 0.135261 -2 4 1 
8335 6 0.708352 0.83851 0.156794 -2 1 -4 
8591 5 0.812672 0.835848 0.120904 -3 -1 6 
7797 6 0.0451888 0.856409 0.147111 0 2 1 
8241 6 0.245409 0.883403 0.122646 -4 -2 -2 
7210 5 0.663226 0.877318 0.149129 0 -3 4 
7443 6 0.498408 0.893485 0.153848 2 -2 1 
7060 5 0.557338 0.905371 0.134415 -1 1 -1 
7964 5 0.0885065 0.877009 0.132306 0 -4 0 
7844 6 0.0903019 0.978981 0.168662 1 -2 -1 
8303 5 0.279585 0.95941 0.153723 2 4 2 
7759 6 0.467717 -0.000102807 0.142749 -1 -2 3 
7859 5 0.896277 0.944846 0.14286 3 1 3 
5330 6 0.878659 0.973031 0.160862 -1 0 4 
6429 6 0.245824 0.995465 0.143146 -4 -1 -2 
5713 6 0.225958 0.984854 0.137274 0 -4 0 
8482 6 0.958319 0.981832 0.154689 -2 -3 4 
7214 6 0.0268804 0.0590805 0.166739 2 3 2 
8742 6 0.0837221 0.0191905 0.159399 -2 -2 2 
5570 6 0.296685 0.0699163 0.164175 3 5 0 
5643 6 0.812082 0.051341 0.179858 0 2 0 
7985 6 0.538615 0.105943 0.171267 -3 2 0 
8948 5 0.450884 0.0709397 0.177865 1 0 -7 
6517 6 0.886957 0.141239 0.158215 -3 2 -2 
6907 6 0.16482 0.167639 0.13778 2 -1 -3 
5689 6 0.702764 0.156201 0.161507 -1 -4 1 
5762 6 0.72352 0.153953 0.167765 -3 0 0 
7927 6 0.887592 0.180136 0.178986 3 -3 2 
7349 6 0.115118 0.150505 0.210197 -6 4 5 
8454 6 0.363675 0.190333 0.201777 1 -1 1 
5967 6 0.360209 0.177111 0.175589 3 -2 -1 
8633 6 0.421203 0.14988 0.186439 -3 6 2 
5872 6 0.64509 0.148554 0.144437 -2 -1 1 
6521 5 0.71871 0.198816 0.172282 -3 5 3 
7346 5 0.751062 0.136833 0.174338 -5 0 -1 
7888 6 0.955937 0.151586 0.158048 -1 9 0 
8888 6 0.417896 0.227599 0.164271 3 3 -1 
6859 5 0.552471 0.17737 0.162286 3 2 5 
8555 5 0.27815 0.245773 0.139947 4 1 0 
6286 5 0.30851 0.231737 0.130926 0 7 1 
6162 6 0.340466 0.229586 0.178858 -2 0 -5 
6291 5 0.889354 0.231551 0.162909 2 -1 0 
7576 5 0.909166 0.244004 0.146313 0 1 -1 
5228 6 0.842765 0.322954 0.200367 3 2 1 
5130 6 0.560571 0.319431 0.11906 -4 -3 -1 
5085 6 0.324405 0.377081 0.198866 3 1 -1 
7924 6 0.753259 0.34103 0.17588 -3 2 2 
6674 6 0.0440013 0.394649 0.161781 -3 -3 1 
6240 6 0.437177 0.387628 0.224699 3 2 -1 
5318 5 0.177756 0.377305 0.160115 -3 -2 -6 
6582 6 0.548704 0.403422 0.171205 0 -4 5 
5362 5 0.67056 0.397278 0.217326 1 3 0 
6219 6 0.964863 0.428982 0.163446 -3 -2 2 
8560 5 0.399543 0.394388 0.175556 4 -7 4 
7124 6 0.351029 0.428569 0.177544 0 -3 4 
6541 6 0.422192 0.427015 0.174246 0 2 0 
7200 5 0.879134 0.466687 0.180522 0 1 -3 
8488 6 0.943321 0.459044 0.170123 -3 1 -3 
8494 6 0.909026 0.454381 0.17106 3 -4 3 
8600 6 0.0428142 0.47896 0.17274 0 -5 -4 
5543 6 0.823266 0.475807 0.18472 1 -5 3 
8787 6 0.470461 0.53395 0.225516 -5 5 -1 
6523 6 0.988369 0.512377 0.200725 5 3 -2 
6498 6 0.13765 0.605382 0.146355 2 -2 1 
5538 5 0.212417 0.643984 0.128456 2 1 3 
5293 5 0.339918 0.609937 0.177681 1 -3 2 
6131 5 0.917387 0.650953 0.185061 -3 -4 -6 
7745 6 0.45515 0.635297 0.204231 1 0 -2 
7602 6 0.929873 0.66344 0.175441 1 4 0 
8647 5 0.0154558 0.643878 0.214348 2 1 0 
5869 6 0.164739 0.670173 0.14924 2 -4 -6 
6325 6 0.770924 0.648469 0.172901 -3 4 -3 
5649 6 0.0906021 0.665725 0.194974 4 0 1 
8649 5 0.812215 0.721549 0.207994 6 0 1 
6960 6 0.446345 0.709664 0.163168 -2 1 7 
8216 6 0.92598 0.727276 0.184092 -5 -2 0 
6380 5 0.214006 0.730356 0.174701 -3 1 -3 
6165 6 0.222934 0.772307 0.173462 -1 3 0 
5207 5 0.966136 0.798503 0.169946 2 -3 3 
5128 6 0.411455 0.797631 0.151233 1 -4 0 
5270 6 0.46158 0.759845 0.194962 -1 -4 4 
5719 6 0.28876 0.801244 0.126762 2 -4 2 
8002 6 0.461642 0.811164 0.170372 -1 -1 0 
5726 6 0.996722 0.815881 0.167946 -3 0 -3 
6283 6 0.216443 0.861671 0.161691 -7 -4 -2 
7446 5 0.0515815 0.890367 0.166227 0 2 0 
8070 6 0.0653266 0.86454 0.162057 4 4 -4 
5705 5 0.876154 0.86033 0.150024 2 2 -2 
8409 5 0.163941 0.871403 0.179947 -1 -2 -5 
8920 6 0.59807 0.919667 0.166903 1 -1 1 
5418 6 0.653168 0.89729 0.163094 -2 2 1 
8315 6 0.0569783 0.0324351 0.156422 1 -4 5 
8844 6 0.0854245 0.965527 0.174856 -6 1 0 
6762 6 0.484505 0.00333215 0.16088 -1 -1 -1 
8894 6 0.133479 0.00696918 0.183241 1 4 -2 
8885 5 0.337768 0.0443826 0.215441 -5 -2 -3 
8456 6 0.581277 0.0477068 0.184606 -2 -1 2 
7475 5 0.554326 0.0460193 0.183183 1 1 4 
5158 6 0.524843 0.0398731 0.164106 -2 2 -1 
6006 6 0.14596 0.0500129 0.184386 4 -1 3 
6442 5 0.463822 0.103304 0.193284 2 0 -3 
7767 6 0.899189 0.126965 0.191428 -8 1 1 
6522 6 0.896236 0.117225 0.208689 2 5 3 
7455 5 0.0300584 0.234463 0.168931 3 2 -1 
8502 5 0.827787 0.234353 0.171985 1 0 3 
5837 6 0.139631 0.251615 0.169813 2 1 5 
5003 6 0.88792 0.303038 0.182249 -3 0 2 
5390 6 0.125126 0.261882 0.187979 -1 1 -2 
5196 6 0.965822 0.301304 0.207199 0 -3 -1 
8912 5 0.30395 0.320559 0.172876 1 2 -1 
8272 5 0.584013 0.284431 0.189542 -6 -4 -2 
7862 6 0.93195 0.268943 0.214709 2 4 2 
5173 6 0.22094 0.330761 0.220299 2 2 2 
5748 6 0.929803 0.355345 0.205277 0 -2 1 
6779 6 0.27447 0.392024 0.181256 1 3 10 
5022 6 0.291374 0.389803 0.173595 3 4 3 
8219 6 0.64785 0.426582 0.158811 0 0 -5 
5494 5 0.773169 0.40104 0.167328 -4 -3 -1 
7114 6 0.0769136 0.454212 0.210503 1 -1 -1 
8634 5 0.400291 0.439418 0.210208 3 -2 0 
5971 5 0.78583 0.446778 0.196939 2 2 -2 
7025 6 0.440797 0.471271 0.191615 -3 3 1 
7232 5 0.685046 0.47468 0.206133 4 -2 -2 
8129 6 0.987537 0.43358 0.206421 0 -1 3 
7185 6 0.731819 0.526238 0.150735 -3 0 1 
6806 6 0.795458 0.530085 0.157162 1 0 0 
2314 1 0.829472 0.539347 0.195365 0 0 0 
2324 1 0.820472 0.523966 0.202308 0 0 0 
2323 1 0.82686 0.523191 0.203259 0 0 0 
2322 1 0.826507 0.527664 0.198811 0 0 0 
2321 1 0.828394 0.522267 0.19636 0 0 0 
2316 1 0.828258 0.53462 0.190132 0 0 0 
2320 1 0.822738 0.524343 0.194499 0 0 0 
2318 1 0.82426 0.528245 0.18775 0 0 0 