ITEM: TIMESTEP
20000000
ITEM: NUMBER OF ATOMS
9000
ITEM: BOX BOUNDS pp pp pp
-75 75
-75 75
-75 75
ITEM: ATOMS id type xs ys zs ix iy iz 
6969 6 0.524985 0.983578 0.0334063 -2 -4 -2 
5798 6 0.259624 0.0349285 0.0163135 2 -1 5 
6252 6 0.589909 0.984538 0.0365275 3 -2 -2 
6246 5 0.880248 0.00888172 0.991348 4 2 0 
6841 6 0.267209 0.0699767 0.99655 1 2 0 
5809 5 0.823662 0.0793517 0.991974 -2 -4 -4 
7346 5 0.381202 0.0904211 0.989968 0 -1 -2 
5759 6 0.740877 0.145657 0.0167402 3 -1 2 
6646 5 0.868599 0.13334 0.997191 4 -2 -1 
8121 6 0.832075 0.107489 0.973283 1 -5 -2 
6747 5 0.312468 0.105273 0.0441887 4 3 10 
6154 5 0.811755 0.139196 0.980871 1 -1 0 
6508 5 0.21964 0.15209 0.980075 2 1 0 
8869 5 0.477144 0.114882 0.0121942 -1 -1 -4 
7310 6 0.454421 0.191075 0.999085 -3 -2 2 
8797 5 0.0176604 0.201744 0.0515967 -2 -3 1 
8259 6 0.136272 0.200253 0.997208 -2 5 3 
8199 6 0.676199 0.203792 0.0261599 -3 3 0 
7193 5 0.725488 0.238006 0.0302265 -3 -1 1 
8917 6 0.576614 0.202092 0.0430664 4 -2 1 
7982 5 0.696952 0.188674 0.0375854 1 -1 4 
6868 6 0.534824 0.219006 0.998377 -4 -1 1 
5869 6 0.745929 0.239043 0.00923571 4 2 3 
7514 6 0.853215 0.227 0.0296152 2 5 1 
6654 5 0.890394 0.224769 0.0391993 2 -1 2 
8091 5 0.877796 0.235907 0.0232256 -1 1 4 
8762 5 0.954616 0.22082 0.0304561 1 -1 5 
7607 5 0.300866 0.261871 0.0235822 4 3 2 
5532 6 0.0773783 0.249448 0.988691 3 4 -1 
8184 5 0.0984428 0.28347 0.989984 -4 -2 -3 
5768 5 0.654653 0.267478 0.99356 -5 0 3 
5890 6 0.814433 0.318382 0.023492 1 6 2 
7396 6 0.981084 0.331619 0.0103795 3 1 -1 
8075 6 0.0208088 0.357253 0.0269435 -2 -4 -2 
8706 6 0.0475026 0.385161 0.993857 4 -1 1 
5344 5 0.628941 0.363271 0.00324209 1 1 1 
8935 6 0.884824 0.372463 0.000788306 -1 4 -4 
8377 6 0.92236 0.360075 0.0095035 1 -2 2 
8712 6 0.0192118 0.403428 0.0253913 -1 -2 0 
6208 5 0.381109 0.409921 0.000317898 -2 -3 -1 
7251 5 0.77775 0.422036 0.0235616 2 1 0 
5848 6 0.334838 0.424209 0.00600305 1 -1 1 
5483 5 0.75671 0.438655 0.0440057 -2 -4 -1 
5810 5 0.861494 0.453564 0.97155 -1 1 -3 
7426 6 0.586681 0.436928 0.0253949 -2 4 1 
6742 6 0.108205 0.53742 0.0158265 2 8 0 
6384 5 0.316111 0.497555 0.961011 -2 -5 -6 
5779 6 0.532449 0.536991 0.0317329 -3 -4 5 
5940 5 0.665389 0.550756 0.993641 2 0 1 
8779 6 0.943855 0.539089 0.00681629 1 -3 -4 
7051 6 0.062968 0.579932 0.0373667 -2 5 -3 
5846 5 0.143045 0.520997 0.0768027 0 -2 2 
7155 5 0.696905 0.550064 0.99583 2 0 1 
6748 5 0.710451 0.557144 0.00529845 1 -2 0 
6491 5 0.888648 0.563135 0.0102148 1 2 1 
8618 5 0.187379 0.542646 0.0206422 -3 -1 -3 
8010 6 0.0784494 0.56371 0.00553782 -1 0 -1 
8786 6 0.288802 0.564267 0.0573465 2 -7 5 
9000 6 0.31833 0.617088 0.00769807 -4 7 -2 
6036 5 0.875493 0.58932 0.0414526 2 1 -2 
5620 6 0.394024 0.610106 0.00855668 2 0 2 
6139 5 0.273981 0.625736 0.06959 -2 4 2 
6198 6 0.277009 0.6756 0.980576 0 4 -2 
6025 6 0.877662 0.623442 0.97889 1 1 -3 
6667 6 0.10221 0.635624 0.00766161 -2 2 3 
5907 6 0.213042 0.716887 0.0328892 0 -4 -3 
8475 5 0.266709 0.654171 0.997013 7 -1 -4 
7847 5 0.0330476 0.694617 0.983417 3 -4 0 
7200 5 0.168517 0.650322 0.968624 -1 -1 -4 
7474 5 0.682157 0.712598 0.997457 -2 -4 0 
5239 5 0.343739 0.736564 0.00322439 0 -4 -1 
7808 5 0.392936 0.764346 0.0217752 -3 2 -1 
8873 6 0.861742 0.755776 0.00831887 -2 -5 0 
6233 5 0.221904 0.753772 0.0305131 1 3 4 
7807 6 0.833259 0.764555 0.0280362 0 2 -1 
6449 6 0.845895 0.757581 0.0337403 0 2 -4 
6076 6 0.946958 0.776346 0.981645 1 3 2 
6044 5 0.216254 0.784908 0.0156743 -2 -2 1 
7395 6 0.527253 0.768928 0.995319 2 5 0 
7874 5 0.282617 0.801528 0.993643 6 1 -1 
5176 5 0.545611 0.82469 0.988823 -3 1 0 
5225 5 0.677547 0.828868 0.981913 -1 -1 -3 
6688 5 0.864945 0.819221 0.0143692 -2 1 2 
5244 6 0.275637 0.861084 0.99 -4 3 1 
7884 6 0.390799 0.903124 -0.0040219 0 -2 0 
5209 6 0.259294 0.939989 0.986254 -4 -2 2 
5963 6 0.507559 0.933257 0.996057 -1 -1 -4 
6302 5 0.941847 0.924906 0.0146257 5 1 2 
6364 5 0.169098 0.980278 0.0497189 -1 1 3 
8667 6 0.615972 0.947698 0.0127125 3 4 5 
8749 5 0.901267 0.903515 0.0361928 -2 -3 -1 
8390 6 0.998612 0.995462 0.993898 0 2 1 
6268 6 0.644669 0.986236 0.0379215 -1 -2 -4 
5793 6 0.305817 0.979406 0.0236488 0 1 2 
8161 6 0.326254 0.987668 0.0180107 -3 -2 3 
8819 6 0.740793 0.976067 0.00205811 -3 4 -2 
5011 5 0.741172 0.964061 0.978657 0 -5 -5 
6840 5 0.05863 0.0245112 0.0357742 0 2 0 
5155 6 0.879493 0.10764 0.0591988 3 -4 -2 
8684 5 0.6597 0.0925016 0.0597066 -1 2 5 
7648 6 0.849883 0.0700597 0.00506599 0 1 1 
5265 6 0.654166 0.114051 0.00612548 1 4 -1 
8948 6 0.216515 0.113781 0.0186939 0 4 3 
6710 6 0.660875 0.126057 0.0287317 5 -1 0 
8735 5 0.682676 0.166032 0.0280792 -1 0 1 
7673 6 0.00236339 0.136798 0.976878 1 5 -2 
7926 6 0.770148 0.169553 0.0512161 -2 5 0 
6367 5 0.929819 0.218801 0.0153622 -1 -2 3 
5958 5 0.180557 0.188705 0.0474368 3 -7 2 
8462 5 0.145775 0.279131 0.0477933 0 0 -1 
5584 5 0.434273 0.233765 0.0446621 1 0 -2 
5619 6 0.504056 0.2345 0.0407564 -2 -1 -1 
5684 6 0.262018 0.268334 0.0373845 2 -3 3 
7712 5 0.278722 0.270085 0.039995 2 -4 -3 
8163 6 0.482159 0.305247 0.0680594 4 -4 2 
8212 6 0.870824 0.300832 0.0563835 -5 1 -2 
8297 5 0.4143 0.322602 0.984618 3 0 -2 
7015 6 0.426571 0.317143 0.0390984 -4 2 -4 
6561 6 0.962249 0.312954 0.0227397 1 -2 -2 
5482 5 0.367574 0.379132 0.0247794 3 0 0 
8340 6 0.992223 0.409361 0.023487 2 -1 5 
7333 5 0.223151 0.373868 0.0448177 -5 -3 0 
7602 6 0.0136629 0.373074 0.0795196 -3 1 2 
6270 6 0.202878 0.39713 0.0239925 -2 -2 3 
5407 5 0.309412 0.45334 0.0511833 -2 2 1 
8253 6 0.788217 0.444062 0.0375849 3 -2 1 
6738 6 0.797426 0.452422 0.0101891 -3 -5 -4 
5117 5 0.0188553 0.500887 0.0485298 -2 2 1 
7138 5 0.49961 0.480366 0.0425841 -1 -2 8 
6564 6 0.357119 0.499326 0.0494666 3 7 5 
8634 5 0.523108 0.480895 0.0191954 -2 1 4 
5097 6 0.367982 0.562282 0.0456774 -3 1 -5 
7418 6 0.94004 0.586985 0.0291155 4 -1 3 
7940 5 0.0265083 0.584332 0.0487842 -1 0 4 
7361 5 0.185041 0.627197 0.0575551 -1 -2 2 
5464 6 0.383677 0.638334 0.0547668 2 1 -4 
6617 5 0.227985 0.671141 0.0435515 0 -2 -1 
8495 5 0.313406 0.636175 0.0373764 0 4 0 
8046 5 0.663526 0.648459 0.0811936 4 2 5 
5293 5 0.679847 0.647583 0.0449574 1 -1 -3 
7130 5 0.213485 0.716524 0.0142218 3 0 7 
6111 5 0.532162 0.676068 0.997926 -4 2 4 
6983 5 0.754104 0.68542 0.0153415 1 -1 3 
5245 5 0.738158 0.669469 0.0502387 5 -8 -4 
7804 6 0.0934457 0.722498 0.0589073 2 4 1 
6161 6 0.266169 0.695362 0.0532663 -4 2 3 
6706 5 0.338836 0.72512 0.0372258 0 0 1 
7337 6 0.343255 0.771581 0.0187295 -1 3 -1 
5533 6 0.712477 0.769594 0.0182906 4 6 0 
6644 5 0.811581 0.74861 0.00975593 0 -2 6 
5576 6 0.18432 0.771509 0.0342592 4 0 8 
5089 5 0.213399 0.758374 0.0372662 2 -1 3 
7945 5 0.314016 0.767739 0.00992286 -5 2 6 
6206 6 0.425947 0.758478 0.0203157 4 -2 -2 
8816 5 0.894151 0.77387 0.0230393 1 -3 2 
6723 6 0.00263102 0.807176 0.00956558 4 6 -1 
7902 5 0.292873 0.772561 0.0111299 1 5 -1 
6858 5 0.378932 0.804342 0.0130634 2 1 -1 
8456 5 0.272384 0.831781 0.0676586 5 -4 -2 
6677 6 0.329339 0.835645 0.0478952 -3 1 4 
6433 6 0.38794 0.853294 0.0473135 -1 0 -1 
8776 5 0.409576 0.851458 0.0407167 0 2 -4 
6500 5 0.970192 0.875056 0.0371132 -1 2 0 
7663 6 0.589946 0.895323 0.0733298 -1 -2 -1 
7021 5 0.940803 0.875679 0.00557996 0 2 -5 
5875 6 0.762818 0.876478 0.0300337 -4 -3 3 
7803 6 0.944927 0.918088 0.0610147 3 0 0 
5819 6 0.953633 0.917061 0.0473047 -2 2 -2 
8235 6 0.418139 0.979808 0.0252136 -1 3 -4 
6187 5 0.333207 0.995907 0.0019404 3 0 -2 
7261 6 0.131165 0.00645765 0.00819421 0 -4 3 
7241 6 0.813237 0.0144789 0.103675 -3 2 -5 
8449 5 0.874153 0.00689885 0.069823 -8 -1 -1 
6660 6 0.0713594 0.033083 0.0777078 -4 0 3 
8160 5 0.424667 0.0340677 0.0753348 -4 -2 1 
8004 5 0.715575 0.0532029 0.0350664 -4 -2 4 
8599 6 0.373762 0.0452472 0.0606128 -4 2 0 
7438 6 0.706168 0.0329835 0.0389614 0 1 4 
7131 6 0.0937664 0.101784 0.0544955 2 2 2 
8464 5 0.540123 0.115442 0.0852416 2 1 1 
8919 5 0.551266 0.138291 0.0869492 1 0 -2 
5449 6 0.801394 0.0893757 0.0910368 -5 3 -1 
7941 6 0.793534 0.12506 0.0696694 6 -3 2 
5014 6 0.463045 0.124175 0.0686822 -1 2 -3 
6779 6 0.584937 0.143825 0.0253295 1 -1 -1 
5217 5 0.874056 0.154245 0.0512827 0 0 -3 
7244 6 0.50418 0.187305 0.055172 -5 0 -6 
6560 5 0.542738 0.191518 0.066704 -4 5 -1 
6861 5 0.00662189 0.188053 0.0584822 4 0 5 
8572 6 0.341747 0.191741 0.0415214 5 -1 2 
6597 6 0.841412 0.231222 0.062941 0 1 -5 
6370 6 0.877901 0.236874 0.111946 -1 -2 -1 
5577 6 0.385286 0.239381 0.0575763 -6 -2 4 
7423 5 0.625403 0.247438 0.0676057 3 4 -1 
8188 5 0.895782 0.19396 0.0460289 7 2 -5 
5886 6 0.980595 0.238621 0.0303444 0 1 5 
5791 6 0.234579 0.229865 0.0375088 1 -2 -4 
6458 5 0.202293 0.268078 0.0384057 -5 1 0 
5842 5 0.131641 0.281329 0.0378212 0 3 2 
8748 5 0.332502 0.293914 0.0463784 4 -3 -2 
7077 6 0.335173 0.322774 0.0326363 1 -2 0 
5366 6 0.383938 0.320363 0.0793367 3 -2 -3 
6419 6 0.472076 0.35773 0.0376619 6 -1 0 
5553 6 0.623762 0.327892 0.0668113 7 -1 -1 
5163 6 0.949743 0.317639 0.0442081 4 -4 -3 
8110 6 0.475752 0.393545 0.0244304 1 2 -3 
5153 6 0.0489819 0.414327 0.0467857 -1 2 1 
8710 5 0.203937 0.389471 0.0474502 -5 0 5 
6650 6 0.794843 0.375933 0.0521253 -3 1 1 
8244 6 0.820057 0.39915 0.0711686 -4 1 2 
8172 6 0.0711643 0.458484 0.0477502 3 2 -2 
7211 6 0.671302 0.523436 0.0448701 -1 8 4 
7000 6 0.828046 0.490711 0.0455759 0 0 2 
8905 6 0.1692 0.512069 0.0383901 5 1 1 
8277 6 0.243094 0.566044 0.0353049 0 -2 5 
8989 6 0.645278 0.550143 0.0545789 0 -3 1 
7363 5 0.463477 0.554739 0.0826739 -1 -1 -1 
5474 5 0.751491 0.578404 0.0506169 6 2 0 
6988 5 0.663831 0.531213 0.0731819 -4 -2 -3 
7212 6 0.998098 0.61022 0.068902 0 0 -2 
7479 5 0.694865 0.580886 0.0437249 -4 -3 -2 
8755 6 0.777581 0.63209 0.0363629 -2 0 2 
5455 5 0.0899443 0.596107 0.0977537 1 -4 12 
5012 5 0.974943 0.610312 0.0828239 -3 -2 3 
8904 6 0.7124 0.62642 0.0460562 3 -3 1 
5041 5 0.134294 0.659505 0.0553402 -3 -3 2 
7744 6 0.28878 0.647237 0.0292461 -1 1 0 
7137 5 0.480741 0.700876 0.042925 4 -2 4 
5497 5 0.727788 0.664575 0.0522202 0 -3 2 
7374 6 0.859746 0.636162 0.0785175 1 2 -3 
5760 5 0.2632 0.682564 0.0541816 2 2 4 
5428 5 0.93251 0.686318 0.0733137 -5 0 0 
7297 6 0.218801 0.706386 0.0603388 4 -4 -1 
6599 5 0.462268 0.700187 0.0650146 0 0 1 
5877 6 0.224448 0.701255 0.0439937 2 0 0 
8243 5 0.343272 0.748868 0.0681181 -2 -1 3 
5264 5 0.443565 0.724186 0.0453879 2 -3 3 
7668 6 0.446679 0.781432 0.0812206 2 -2 3 
5121 6 0.537066 0.797768 0.0860659 0 -1 -3 
6213 5 0.496265 0.771443 0.0425744 2 -2 -2 
8801 6 0.524428 0.737079 0.0548979 -5 0 -1 
5843 5 0.454524 0.814227 0.0403765 0 1 -2 
6940 5 0.783583 0.802166 0.0808961 -1 1 3 
8031 5 0.406549 0.831738 0.0502104 1 -1 1 
6452 6 0.0453067 0.867904 0.0824484 7 -1 -5 
5730 5 0.61014 0.876801 0.0721524 -2 -5 1 
6116 5 0.75231 0.864315 0.0593711 2 -1 -4 
8952 6 0.096435 0.932442 0.0713928 3 -4 -1 
6257 5 0.194664 0.919963 0.0228117 0 1 -2 
8478 5 0.33879 0.894952 0.0715428 -3 -1 3 
5182 5 0.879182 0.926393 0.0391491 -1 6 4 
5074 5 0.86928 0.887266 0.0973448 0 1 1 
5893 6 0.202244 0.928633 0.0568854 -1 1 2 
5361 6 0.850164 0.936642 0.0518271 2 -3 4 
7843 5 0.911203 0.922765 0.0542871 1 0 0 
5805 6 0.401076 0.93467 0.0847156 0 2 3 
6202 6 0.692359 0.939211 0.0420012 0 3 2 
8562 5 0.958889 0.952644 0.0663383 6 -4 -2 
7330 6 0.968028 0.947217 0.0730101 -1 -2 -1 
8812 5 0.959135 0.903318 0.0521407 -3 -2 -6 
7749 6 0.996551 0.951688 0.0494459 0 0 -2 
8783 6 0.057846 0.00615065 0.0851111 -4 1 4 
8981 5 0.456509 0.969429 0.0625237 0 0 -3 
8036 6 0.577508 0.00616368 0.0492754 2 4 -4 
8909 5 0.786138 0.998554 0.0640505 -3 -2 3 
5025 5 0.974064 0.952595 0.039798 -2 -6 -1 
7555 6 0.0304183 0.00805363 0.107916 1 1 -2 
7953 5 0.169421 0.963583 0.0853504 0 -3 -2 
8639 5 0.444703 -0.00020072 0.0603105 -4 1 2 
6950 5 0.936298 0.00305127 0.0618474 3 1 1 
6151 6 0.35103 0.0690207 0.0604493 -4 5 0 
7415 5 0.629096 0.0911062 0.106539 4 -2 0 
7726 6 0.364944 0.0604444 0.0388374 2 -3 -1 
5098 5 0.434714 0.107374 0.0375209 4 2 -1 
6591 6 0.870696 0.085664 0.132943 0 -4 -1 
8884 6 0.0235759 0.0963948 0.0701412 0 4 -1 
7189 5 0.3549 0.111808 0.117298 -1 -2 2 
6158 5 0.206564 0.156494 0.104999 0 0 2 
8368 6 0.00564503 0.135769 0.0642965 1 0 -2 
6448 6 0.898236 0.198504 0.0744645 -3 0 -1 
8807 6 0.145464 0.237495 0.133046 -1 2 3 
6065 5 0.368378 0.205593 0.11853 -1 4 1 
8026 5 0.79151 0.194613 0.0631731 1 1 4 
7937 6 0.166262 0.238585 0.081366 5 -2 -1 
8828 6 0.714513 0.249138 0.063234 -1 1 3 
7836 6 0.821999 0.269591 0.109306 -1 2 4 
7689 5 0.117997 0.291721 0.0869581 4 1 3 
6226 6 0.145425 0.307775 0.0773301 -4 1 -2 
7789 5 0.665614 0.297002 0.0666005 -1 0 -5 
8978 5 0.740868 0.28521 0.0883303 4 3 -5 
7154 6 0.943221 0.288004 0.0725439 2 0 10 
5033 6 0.123321 0.285623 0.086249 -1 -4 0 
8060 6 0.209452 0.34578 0.051082 3 0 3 
6029 6 0.466195 0.282231 0.10756 1 -4 -4 
7827 5 0.680545 0.308769 0.0592101 -4 -1 5 
5384 6 0.97363 0.309853 0.0917611 2 -1 2 
7811 6 0.159826 0.355516 0.0695679 -2 5 2 
7125 6 0.479262 0.388685 0.096689 2 4 0 
8790 5 0.486039 0.415469 0.0629419 1 -2 1 
8913 6 0.841399 0.378237 0.0667741 0 1 -2 
7837 5 0.373219 0.415352 0.102548 -4 3 2 
7671 6 0.480274 0.437933 0.0528145 2 3 -4 
8788 6 0.636091 0.426025 0.0404254 5 -4 7 
7919 6 0.638489 0.456014 0.0835441 7 3 1 
7913 5 0.703196 0.451422 0.116893 3 2 5 
6136 6 0.396965 0.432891 0.0766058 -1 -4 -5 
7687 5 0.434693 0.49937 0.0618634 -1 1 1 
6218 6 0.720261 0.537341 0.0362941 -1 1 7 
7227 6 0.195343 0.539761 0.116354 1 -6 5 
5275 6 0.117461 0.552333 0.0758296 2 2 4 
6749 5 0.111478 0.583328 0.0761982 5 1 4 
8459 5 0.487506 0.573078 0.0762463 -1 3 3 
5294 6 0.725594 0.600404 0.0702711 -1 1 0 
8633 6 0.489299 0.606644 0.0817799 0 1 -1 
6348 6 0.826431 0.603581 0.0742519 2 -2 0 
8573 5 0.369956 0.614398 0.0431244 4 0 5 
7232 6 0.797112 0.639868 0.0761144 1 0 -1 
5199 6 0.144162 0.676288 0.0829287 -5 0 -1 
7206 6 0.41299 0.631239 0.0785305 -2 1 -3 
7305 6 0.672176 0.677669 0.0575022 -4 1 3 
6442 5 0.766174 0.704192 0.0364827 -4 -2 0 
8916 5 0.963223 0.713448 0.0398008 -2 7 1 
5832 6 0.37652 0.68664 0.0879671 6 -2 4 
7942 6 0.926594 0.716076 0.0783029 -4 -1 1 
6719 6 0.131086 0.731322 0.09379 -1 1 -2 
7769 6 0.404474 0.726862 0.0862426 -1 0 5 
6142 6 0.564305 0.745184 0.0831866 3 2 2 
6695 6 0.0161942 0.78584 0.106653 -4 -1 7 
5116 6 0.270428 0.745682 0.0762009 3 -3 2 
5526 6 0.294342 0.781588 0.0949078 2 -5 1 
7584 6 0.881915 0.797743 0.0899073 -5 -5 2 
7936 5 0.0373904 0.819619 0.0643401 2 1 -1 
8695 6 0.192589 0.80693 0.10018 0 2 0 
7237 6 0.513767 0.830334 0.0624217 -1 -3 3 
7969 6 0.820527 0.795611 0.0749853 -1 -2 0 
8287 6 0.847906 0.832225 0.0769404 -3 5 -3 
5551 6 0.429709 0.853175 0.0940082 6 -1 9 
5267 6 0.472322 0.899721 0.0491126 0 3 -3 
7842 5 0.608685 0.881656 0.0838466 3 3 -1 
6925 6 0.594756 0.903376 0.0672686 -3 -3 -5 
5623 6 0.0437026 0.964402 0.0896382 -4 4 -1 
8608 5 0.698917 0.977015 0.0415997 4 0 -2 
7228 5 0.312364 0.00132531 0.0789773 1 3 2 
6451 5 0.0871932 0.988359 0.118367 -3 1 -2 
7507 5 0.360352 0.992725 0.10968 2 -1 -1 
6314 5 0.904048 0.00772008 0.0711712 -1 -1 -2 
6510 5 0.0201764 0.0678008 0.0808506 7 2 -3 
7783 5 0.397656 0.0857961 0.113443 -3 2 -1 
5082 5 0.493427 0.0162132 0.106152 -3 2 1 
6488 5 0.50429 0.00152589 0.0876298 -1 -5 -1 
7419 5 0.841412 0.0410433 0.094177 2 -2 -4 
7660 6 0.167246 0.0711591 0.116082 1 3 -6 
5338 5 0.354291 0.0874074 0.125319 3 -2 1 
8902 5 0.146863 0.0877651 0.124861 -2 2 -1 
8141 5 0.590401 0.120928 0.0596233 -2 0 0 
8024 5 0.871578 0.114252 0.0833092 3 -1 -3 
8326 6 0.743713 0.120768 0.121581 -1 2 0 
8975 5 0.629138 0.159463 0.132086 2 3 -2 
7303 5 0.879765 0.184065 0.0973129 5 -4 -1 
8972 6 0.0719937 0.191971 0.116511 2 6 -4 
6932 6 0.30855 0.242741 0.144073 -4 4 1 
7954 5 0.946886 0.233571 0.0981417 0 -5 0 
8324 6 0.311202 0.264412 0.118981 1 1 0 
8831 5 0.568424 0.233878 0.089057 2 0 2 
8536 6 0.572142 0.236347 0.0975184 4 0 -1 
5458 5 0.616271 0.260307 0.13423 0 1 4 
8530 5 0.472025 0.273718 0.111706 -3 -2 0 
6387 6 0.697208 0.286635 0.0555985 1 0 0 
5095 5 0.915336 0.247837 0.0804139 -4 2 -4 
6831 5 0.0893403 0.311361 0.0921082 2 3 2 
8179 5 0.489643 0.268557 0.0798296 0 3 4 
6645 5 0.467612 0.335324 0.105021 -3 -2 5 
5143 6 0.925549 0.285448 0.0910777 -7 -3 -1 
6292 6 0.277631 0.33434 0.103898 -3 0 -1 
8264 5 0.926921 0.336416 0.076336 1 6 2 
7384 6 0.093607 0.331152 0.0839893 1 6 3 
7579 5 0.288411 0.358661 0.134246 5 -2 0 
8484 5 0.543042 0.344883 0.0814354 -4 -1 1 
8838 6 0.570382 0.367411 0.11598 -4 4 0 
6383 6 0.808486 0.381667 0.111342 -1 3 0 
6979 6 0.450207 0.405493 0.113225 0 5 0 
6355 5 0.399118 0.365756 0.122486 1 2 -8 
8491 5 0.4576 0.38362 0.113503 0 -1 -1 
8815 6 0.732445 0.36532 0.12865 5 1 2 
7654 6 0.826517 0.402319 0.0815767 -3 -4 -1 
6460 6 0.874705 0.359215 0.0856069 4 -1 2 
8440 5 0.228391 0.422837 0.0804267 3 -3 0 
6339 6 0.390276 0.403303 0.0709525 0 -2 3 
7585 6 0.675004 0.416328 0.092659 -1 -4 -2 
7798 5 0.767917 0.401277 0.111378 -1 5 -2 
8090 5 0.61855 0.438337 0.108429 6 4 2 
7653 5 0.664324 0.482783 0.107059 3 -5 6 
7040 5 0.731998 0.53032 0.108566 -2 0 0 
5598 5 0.908592 0.547525 0.115987 -6 -2 0 
7030 6 0.40518 0.518437 0.092198 0 3 5 
5001 5 0.813539 0.543263 0.108249 3 6 5 
7471 6 0.0642802 0.577417 0.0878733 3 -2 -2 
6273 6 0.231476 0.569706 0.0866828 2 2 0 
7502 5 0.911648 0.589235 0.124572 3 -1 0 
8537 5 0.613063 0.590421 0.056261 -3 4 4 
8837 5 0.709099 0.652204 0.10738 0 4 -3 
7478 6 0.422999 0.672947 0.114043 -2 -2 3 
5944 6 0.83102 0.667767 0.121483 -5 3 -2 
6826 6 0.897585 0.655876 0.0872783 1 -1 -2 
5582 6 0.439813 0.702248 0.105778 -1 -5 4 
7181 5 0.00558456 0.727275 0.0904801 2 0 1 
7068 6 0.0970792 0.740851 0.110526 2 3 0 
6123 6 0.604647 0.692017 0.104594 -3 5 0 
8457 6 0.119465 0.749416 0.117747 1 3 2 
6637 5 0.951125 0.740553 0.101097 -3 -1 1 
7664 5 0.374289 0.755927 0.109447 6 1 -3 
7562 5 0.593782 0.75053 0.0820431 -4 4 -2 
8654 6 0.96134 0.774114 0.117552 -3 -2 4 
5852 6 0.0975515 0.771642 0.116957 -2 -2 3 
8067 5 0.508758 0.790147 0.10666 0 -3 3 
7684 5 0.586693 0.788088 0.0950553 0 2 -4 
8651 6 0.783377 0.757943 0.104275 6 1 1 
6559 5 0.0681871 0.80771 0.108317 3 -2 3 
6010 6 0.214952 0.804845 0.092087 -4 -2 5 
7060 5 0.379168 0.803333 0.11431 0 2 -4 
8040 6 0.429607 0.7871 0.133562 6 3 -1 
6332 6 0.531893 0.808675 0.0621042 -4 -3 1 
5580 5 0.737017 0.792753 0.0871923 -3 0 0 
7201 6 0.322544 0.819564 0.104324 1 0 1 
7735 6 0.16059 0.866586 0.0650542 -1 2 2 
5054 6 0.221448 0.851085 0.0649092 -2 -2 -3 
6418 5 0.802451 0.826011 0.128487 -5 -4 -10 
7755 6 0.552751 0.884978 0.107411 0 0 0 
6974 5 0.872068 0.897876 0.0924679 -3 2 -1 
8364 6 0.537876 0.878579 0.0763279 3 -1 2 
6242 6 0.768579 0.913252 0.122211 3 4 6 
8546 5 0.85934 0.889891 0.0780858 -2 5 -1 
5701 5 0.344815 0.903825 0.0991369 0 0 3 
5045 6 0.796524 0.952034 0.10137 0 -7 0 
5797 6 0.394727 0.934404 0.100636 -1 -1 -2 
6854 5 0.747253 0.0281943 0.103311 1 4 6 
5109 5 0.282696 0.983393 0.112168 4 4 4 
5841 5 0.938542 0.00802911 0.0888354 -5 -1 1 
6516 6 0.410571 0.0744484 0.109595 2 -2 3 
8976 5 0.463533 0.05299 0.0978382 2 0 2 
5036 5 0.495451 0.0411027 0.130147 0 0 2 
6345 6 0.0948889 0.0884121 0.131948 3 3 -2 
6359 5 0.640444 0.029201 0.132468 0 3 0 
8149 6 0.799511 0.13274 0.102263 -3 -1 3 
6090 6 0.983732 0.116004 0.154966 0 0 -3 
5992 6 0.0350301 0.100228 0.110038 3 -3 2 
5370 6 0.206246 0.101948 0.12699 -1 4 3 
6230 5 0.304798 0.1234 0.125876 2 -1 -2 
7918 6 0.411537 0.097359 0.134882 2 3 -2 
6813 6 0.797159 0.119107 0.111021 1 0 -1 
5470 6 0.486271 0.173943 0.087598 4 0 3 
7204 6 0.299605 0.201379 0.15779 1 0 2 
5505 5 0.411582 0.194986 0.158559 -4 -2 3 
7681 6 0.180483 0.190461 0.179208 1 2 -1 
7408 5 0.638697 0.214035 0.11723 5 2 2 
8851 5 0.784035 0.214632 0.137569 -1 1 1 
5979 5 0.0356531 0.216837 0.146757 -1 0 -4 
6856 6 0.261489 0.244556 0.113664 -2 -3 5 
7788 5 0.286088 0.276026 0.161659 0 4 -2 
7516 6 0.393498 0.225364 0.156116 -5 1 -4 
6847 5 0.518438 0.189355 0.0981154 0 -3 0 
5978 6 0.779614 0.260194 0.139961 -1 -2 5 
6569 5 0.63197 0.264406 0.154989 -1 0 4 
5757 6 0.702989 0.295332 0.13951 -4 -6 1 
7120 5 0.705818 0.282541 0.134923 3 1 3 
5410 5 0.595891 0.253621 0.0823297 1 2 3 
6188 6 0.401265 0.364377 0.145531 2 2 -2 
5947 6 0.465427 0.433367 0.101497 2 0 -1 
6839 5 0.622991 0.357599 0.149918 1 1 -1 
8126 6 0.10412 0.409209 0.103816 -3 2 4 
6643 5 0.108916 0.444765 0.099072 1 4 0 
7845 5 0.940837 0.43287 0.110419 -2 3 1 
5046 5 0.0394428 0.460836 0.127855 2 -1 -2 
5738 5 0.186752 0.463547 0.106002 4 -2 -6 
7089 5 0.871945 0.432542 0.111489 6 3 -4 
8525 5 0.965672 0.514934 0.153419 -4 2 2 
7554 6 0.0645764 0.476336 0.128199 -5 0 3 
7912 5 0.285552 0.508038 0.119989 1 3 -4 
6976 6 0.348764 0.513653 0.189996 2 -1 1 
8072 5 0.931563 0.47642 0.114623 -2 3 1 
5796 6 0.219073 0.509322 0.129865 2 -4 4 
6250 5 0.495402 0.498143 0.156592 2 2 6 
6374 6 0.141076 0.54863 0.11718 -4 5 -1 
7329 5 0.319118 0.557912 0.113116 1 -4 1 
7873 6 0.865632 0.546533 0.117921 -1 -2 3 
6920 6 0.121413 0.555035 0.154866 -3 -3 0 
5525 6 0.297153 0.523141 0.128751 -2 -4 4 
6316 6 0.646973 0.566874 0.171503 1 1 0 
7881 6 0.0645708 0.593294 0.106758 -2 -1 1 
5079 5 0.49653 0.542334 0.103892 1 3 2 
6556 6 0.6151 0.601003 0.119633 -3 -3 -3 
6951 5 0.64606 0.558402 0.100016 -1 4 3 
5593 6 0.225515 0.581797 0.121971 1 0 1 
8649 5 0.250785 0.588187 0.143731 4 -2 0 
7052 5 0.368123 0.600331 0.111118 4 -2 -5 
5575 6 0.473723 0.608637 0.126588 -5 -1 -1 
6834 5 0.0884171 0.692643 0.109003 -1 -1 1 
7162 6 0.997463 0.672372 0.0717789 -5 -2 1 
5926 5 0.365273 0.670479 0.128754 4 -1 3 
6241 5 0.178273 0.688474 0.0727301 2 1 -6 
7014 6 0.655096 0.766876 0.105373 2 -2 -1 
7017 5 0.812297 0.700775 0.12653 3 -4 -4 
7462 5 0.443649 0.736915 0.110081 -1 -2 1 
6754 6 0.257437 0.804743 0.131855 3 1 0 
7747 6 0.908744 0.779882 0.139422 0 -3 -4 
6980 6 0.705644 0.778665 0.103206 4 0 4 
5192 5 0.180189 0.810918 0.0981937 3 -1 3 
6184 5 0.23941 0.817678 0.10077 2 6 -2 
7634 5 0.353104 0.879345 0.119067 1 -2 -1 
8307 5 0.0714964 0.947101 0.113487 5 -2 -4 
6216 6 0.751325 0.894802 0.103167 -1 3 0 
7906 5 0.93573 0.89043 0.122521 1 3 -3 
8508 6 0.0679768 0.94042 0.16895 2 -9 0 
8144 6 0.172754 0.933849 0.123383 2 3 -1 
8746 6 0.96972 0.928838 0.134893 2 0 2 
5519 5 0.32998 0.916608 0.145099 1 1 -1 
8335 5 0.558427 0.94707 0.130062 8 2 0 
7826 5 0.658509 0.930317 0.112727 2 -1 5 
6304 6 0.756942 0.930043 0.126187 -5 2 -3 
8675 5 0.0337331 0.984141 0.110553 -6 1 0 
5198 5 0.679383 0.974388 0.160348 -2 0 5 
7399 6 0.733452 0.937396 0.128174 0 4 1 
5439 6 0.916145 0.942386 0.125593 -3 1 -4 
7869 6 0.316169 0.984228 0.124668 -4 -1 2 
8384 6 0.495397 0.995579 0.144053 5 -2 -2 
5069 5 0.385212 0.0361257 0.126355 1 1 2 
8057 6 0.108381 0.0401581 0.143413 1 0 -1 
6207 5 0.512731 0.080968 0.164953 0 0 -4 
5488 6 0.652458 0.0732995 0.181583 1 8 2 
8563 6 0.74781 0.0706594 0.135854 2 -1 3 
7004 5 0.103952 0.136229 0.172242 1 1 -1 
5753 6 0.190044 0.134819 0.129807 -5 -2 0 
7818 5 0.280484 0.0966946 0.148382 -3 0 3 
6055 6 0.195248 0.145087 0.165045 1 3 -3 
7571 5 0.35629 0.179053 0.149065 -1 2 0 
7785 6 0.447697 0.173855 0.144183 0 2 2 
8612 6 0.623517 0.154837 0.146472 0 2 3 
8254 5 0.997804 0.175454 0.163761 -3 1 5 
6232 6 0.769104 0.19887 0.13417 3 4 2 
6033 6 0.130291 0.233867 0.16292 -2 4 2 
7425 6 0.327654 0.21844 0.200511 -3 4 5 
6934 5 0.300088 0.220782 0.135591 6 2 1 
5872 6 0.40675 0.201656 0.18043 -1 -2 4 
7779 5 0.203048 0.246899 0.127362 -3 1 -2 
8313 5 0.501367 0.22738 0.133567 -4 -2 2 
6647 6 0.158265 0.216391 0.135543 -4 -4 7 
6338 5 0.486926 0.296284 0.112434 -6 0 1 
7291 6 0.642048 0.280649 0.193296 -3 2 2 
8320 5 0.847485 0.264787 0.134226 4 -1 0 
6337 5 0.221077 0.282341 0.114865 -2 2 3 
7127 5 0.206203 0.268005 0.116707 -4 2 0 
8842 6 0.481742 0.281948 0.121377 5 1 -3 
8927 6 0.749307 0.287111 0.126311 -6 1 8 
5865 6 0.884452 0.291671 0.156421 -2 0 -1 
7339 6 0.326786 0.300123 0.152233 0 3 -3 
7402 6 0.310111 0.327406 0.12683 -6 -5 -4 
5303 6 0.713662 0.343864 0.133984 2 0 -5 
5311 5 0.701405 0.367763 0.151088 2 -1 -3 
8176 6 0.810493 0.319551 0.166106 3 2 3 
5573 5 0.0793811 0.392669 0.122975 0 3 3 
5435 6 0.902517 0.318253 0.135718 0 2 3 
6371 6 0.219532 0.381412 0.133571 -4 3 3 
6725 6 0.300558 0.379537 0.136877 -2 -3 4 
7283 6 0.17198 0.38364 0.100917 1 -6 1 
5279 6 0.943652 0.381898 0.141665 1 1 2 
5752 6 0.64345 0.372966 0.162078 4 0 -8 
7829 5 0.00724642 0.448352 0.0957818 1 3 0 
5541 5 0.923921 0.477307 0.155838 0 -3 4 
5316 6 0.443563 0.475341 0.17187 1 4 0 
7359 6 0.0756443 0.516804 0.129122 2 -2 0 
5641 6 0.408404 0.50041 0.144613 3 -1 5 
8787 6 0.90248 0.524593 0.127857 -3 3 1 
8864 6 0.747348 0.601485 0.161218 2 -3 0 
6758 5 0.859256 0.574484 0.112086 -1 -1 5 
7264 5 0.288232 0.64232 0.153244 -1 -1 -1 
5648 6 0.921295 0.6237 0.131712 0 1 -2 
8355 5 0.093439 0.622185 0.147654 -1 -2 5 
8579 5 0.162218 0.635156 0.148577 -1 0 -2 
8880 6 0.0764598 0.66536 0.130366 -1 0 7 
5748 5 0.802704 0.679153 0.14527 -1 -1 4 
8111 5 0.559032 0.717136 0.143708 7 2 5 
7603 5 0.173738 0.687734 0.18606 5 4 2 
5660 6 0.653477 0.672168 0.154989 0 3 1 
8112 6 0.700465 0.716812 0.175127 -4 -2 1 
7935 6 0.870095 0.726866 0.147118 2 1 0 
8436 6 0.132031 0.709982 0.155647 -6 1 -1 
6782 6 0.561699 0.727554 0.171948 3 4 -1 
8474 6 0.849623 0.794842 0.116922 -4 -4 -6 
6059 5 0.220974 0.809836 0.156252 5 -2 6 
8930 6 0.649649 0.805483 0.159828 2 1 1 
8604 5 0.867906 0.775123 0.116024 -3 -1 6 
6422 5 0.137244 0.822864 0.149951 0 -5 -2 
7727 5 0.4451 0.805861 0.139436 2 1 1 
6437 6 0.634492 0.846012 0.158135 -3 2 -2 
6590 5 0.0543836 0.838594 0.163185 1 0 0 
8923 6 0.88782 0.815141 0.140157 3 1 -7 
5280 5 0.180072 0.873683 0.144539 -3 -2 -4 
7709 5 0.111842 0.913694 0.156385 0 -2 3 
6550 5 0.838182 0.908226 0.149243 -5 -3 0 
8960 5 0.861075 0.876014 0.137552 -1 0 2 
7033 5 0.00808175 0.927806 0.159157 0 2 -1 
5970 5 0.435185 0.921378 0.152754 -3 -1 2 
6767 6 0.553617 0.933046 0.164718 -3 -3 -5 
7774 5 0.649015 0.903209 0.161729 6 -3 4 
6588 6 0.867763 0.978671 0.116895 4 1 3 
8089 6 0.628649 0.982279 0.155481 1 0 7 
7334 6 0.701446 0.965032 0.16262 2 3 0 
8823 6 0.00513434 0.971954 0.149016 -1 -1 5 
7610 6 0.0267799 0.0507127 0.152265 0 -2 -5 
8532 6 0.332298 0.960668 0.160657 2 0 -1 
7059 6 0.122019 0.992969 0.185377 2 -4 -3 
8504 5 0.187973 0.0280138 0.211051 -3 2 -1 
7311 5 0.342897 0.0188594 0.154769 3 0 -2 
7795 5 0.14558 0.0444894 0.148284 2 -1 -2 
7509 6 0.19443 0.0383159 0.201762 0 -1 -4 
7123 5 0.751876 0.0525392 0.198358 -2 -3 -3 
7124 6 0.742131 0.0757127 0.187345 1 -4 4 
5663 5 0.802375 0.121249 0.159214 2 6 5 
6352 6 0.400533 0.150678 0.184866 -2 -8 5 
5387 6 0.696341 0.122743 0.16645 -1 -1 1 
5336 5 0.768179 0.118258 0.176938 4 -2 2 
5939 5 0.777876 0.1724 0.146459 -2 -3 -4 
8968 6 0.90396 0.175818 0.174057 3 2 1 
8311 5 0.790369 0.168028 0.175936 6 1 -4 
6761 6 0.842733 0.247574 0.161789 1 2 1 
8444 5 0.826074 0.256371 0.160949 -2 3 1 
7816 5 0.970817 0.246406 0.197409 -2 3 2 
6259 5 0.590437 0.268575 0.175385 -2 4 1 
6312 5 0.229341 0.244422 0.199999 1 0 -1 
6838 6 0.275397 0.249983 0.184297 1 -3 4 
7188 5 0.326458 0.235796 0.210056 0 -1 0 
5185 6 0.221538 0.297863 0.175516 -3 3 -1 
6153 6 0.246841 0.311927 0.134204 -3 0 4 
8171 6 0.463679 0.297792 0.178973 -2 1 -1 
8937 6 0.596203 0.252433 0.147888 0 2 -3 
8724 6 0.162757 0.302652 0.201667 -1 1 3 
7548 6 0.925984 0.326802 0.171483 -4 -4 1 
5632 6 0.353326 0.347161 0.133466 -1 0 4 
8190 6 0.681024 0.305214 0.218441 0 -3 -2 
8626 6 0.771608 0.396963 0.173883 1 1 3 
6475 6 0.0103707 0.425709 0.15819 6 3 0 
6608 6 0.235688 0.44144 0.169981 2 1 1 
6704 6 0.289575 0.41133 0.164813 0 0 0 
5332 5 0.0337711 0.447064 0.159992 7 1 0 
5561 6 0.113671 0.454969 0.13851 0 -5 -1 
5835 6 0.0716907 0.523009 0.167036 -3 4 -1 
6023 5 0.962369 0.445194 0.154104 -1 0 3 
5609 5 0.959365 0.459092 0.16275 1 -3 -2 
5350 6 0.761538 0.490874 0.12973 -1 1 5 
6430 6 0.0379529 0.554477 0.211844 1 4 -2 
8108 6 0.465457 0.563268 0.194084 1 2 0 
5954 6 0.356149 0.558001 0.156308 2 5 1 
6596 6 0.112707 0.620877 0.161558 -3 -4 -2 
7013 6 0.143649 0.628151 0.155274 3 -3 4 
8272 6 0.521796 0.645536 0.150655 -1 -1 0 
5466 6 0.507173 0.701704 0.169999 3 3 -4 
5446 6 0.58488 0.706928 0.156328 6 1 1 
5881 6 0.619757 0.691146 0.195936 2 -3 7 
8085 6 0.799686 0.71394 0.162876 -2 0 2 
5745 6 0.455147 0.763551 0.174423 -5 -3 -1 
8265 5 0.621458 0.749423 0.183348 4 2 1 
7042 6 0.898152 0.79648 0.169798 -2 -4 -1 
5750 6 0.181899 0.811293 0.183296 2 -3 -1 
7121 5 0.431201 0.796834 0.195837 0 2 -7 
6035 5 0.395335 0.803066 0.216699 6 2 -2 
5308 5 0.264776 0.828646 0.173592 -1 0 -4 
7655 6 0.566345 0.802343 0.164979 -2 0 4 
7950 5 0.579894 0.823584 0.196812 -2 -3 2 
8736 6 0.804582 0.787198 0.205445 -2 1 0 
6162 5 0.985953 0.846999 0.164224 0 -4 1 
8426 5 0.792378 0.841798 0.140816 1 4 3 
5106 6 0.141164 0.844171 0.168046 0 5 1 
8915 6 0.231037 0.850891 0.169319 3 2 -1 
7400 6 0.534896 0.813616 0.146061 -2 -2 2 
7461 5 0.882433 0.85529 0.145395 5 -1 -2 
8768 5 0.78001 0.894378 0.203992 -3 -1 1 
5544 6 0.367827 0.883214 0.168971 0 3 -1 
8832 6 0.383756 0.929085 0.151358 3 -5 -7 
7793 6 0.767278 0.898847 0.172064 7 -3 6 
5656 6 0.658816 0.940934 0.133816 -1 2 2 
8281 6 0.186439 0.911858 0.176583 3 -2 -2 
8196 6 0.185773 0.965522 0.166002 -4 0 -1 
8328 6 0.318445 0.981139 0.165643 3 0 4 
8373 6 0.302788 0.966165 0.200167 -1 -3 -1 
6486 6 0.328078 0.949603 0.164917 0 -4 -1 
7617 6 0.235918 0.992535 0.196796 5 3 -2 
8657 6 0.536517 0.974784 0.151611 1 -6 -1 
7888 5 0.987627 0.987812 0.219336 -2 -2 1 
7666 5 0.64871 0.984422 0.18391 -4 -3 7 
8202 6 0.724865 0.00407387 0.208087 -2 -2 2 
8194 5 0.224888 0.0434516 0.184338 -1 -1 -2 
6778 5 0.864495 0.0308933 0.168131 -5 -3 2 
7639 6 0.154714 0.0813588 0.204169 5 0 -3 
8346 6 0.521925 0.0536877 0.172669 3 -1 3 
7109 6 0.707006 0.0820454 0.175508 3 -1 -2 
8142 5 0.0167659 0.119454 0.189522 1 3 2 
6164 5 0.301096 0.0571904 0.202828 0 -2 -1 
5743 6 0.314582 0.0721921 0.194426 4 -6 -4 
8643 5 0.216694 0.0992843 0.202385 4 -5 3 
5654 6 0.487787 0.0970934 0.209488 -2 -4 2 