ITEM: TIMESTEP
20000000
ITEM: NUMBER OF ATOMS
9000
ITEM: BOX BOUNDS pp pp pp
-75 75
-75 75
-75 75
ITEM: ATOMS id type xs ys zs ix iy iz 
8838 6 0.131419 0.966595 0.0200141 6 -1 1 
7184 6 0.404937 0.0334857 0.0137556 -2 0 2 
8842 5 0.717696 0.0120232 0.987341 -2 -1 -3 
6021 6 0.849029 0.992649 0.0474175 0 -4 1 
7531 6 0.0981105 0.030331 0.0303295 1 2 3 
5028 5 0.482726 0.024493 0.0234321 1 2 1 
7867 5 0.0742669 0.0583553 0.0316141 2 -4 1 
8384 6 0.108853 0.0676764 0.991033 0 0 1 
7590 6 0.648892 0.057268 0.977181 5 0 2 
6217 5 0.367785 0.094359 0.982683 7 -4 -1 
5998 5 0.410649 0.0618059 0.997477 -1 0 -3 
8951 6 0.426179 0.103723 0.0177077 4 -2 -6 
6132 6 0.484496 0.0626622 0.0371056 4 0 -2 
6595 6 0.296508 0.0923629 0.0205547 2 3 4 
5404 5 0.0318499 0.136696 0.013761 -2 3 1 
5555 5 0.415631 0.114414 0.0323067 -5 0 -6 
5999 6 0.486968 0.149041 0.975308 -5 -1 -1 
8279 5 0.817467 0.134367 0.99846 -2 -1 -2 
7801 6 0.96008 0.135741 0.0491517 -3 -2 -1 
7431 5 0.108338 0.120363 0.0561357 -3 1 2 
7857 6 0.597172 0.149301 0.0319629 1 2 2 
6746 6 0.593648 0.186208 0.0374754 0 1 0 
7672 6 0.124378 0.210189 0.0166048 3 -3 2 
5307 6 0.394614 0.205572 0.981891 4 3 -4 
6932 6 0.879305 0.201232 0.0205588 -2 -2 2 
7650 6 0.194104 0.194675 0.989378 1 1 -3 
5692 5 0.535624 0.225331 0.00999026 4 -4 4 
6770 5 0.156037 0.187168 0.0379638 1 -3 0 
8057 5 0.267149 0.245019 0.978009 0 1 3 
8934 6 0.805714 0.245406 0.0239727 -2 -3 0 
6247 5 0.431264 0.276847 0.98654 -4 1 -2 
8432 5 0.410927 0.225556 0.0371992 1 2 -1 
8390 6 0.43098 0.288696 0.00640425 0 3 8 
8987 6 0.45783 0.300129 0.0194057 0 3 -1 
7851 6 0.802786 0.255499 0.0418407 -1 0 0 
6929 6 0.0125831 0.281692 0.034209 1 -1 -1 
6357 5 0.0459366 0.325531 0.0072596 2 1 4 
7166 6 0.641586 0.284009 0.0568339 -4 3 2 
7692 6 0.717925 0.308826 0.969877 -3 2 -3 
7106 6 0.49306 0.317293 0.0358706 1 1 0 
8173 5 0.306506 0.337808 0.0491401 0 -4 -9 
8478 6 0.399382 0.338164 0.0372486 -2 -2 -1 
7682 6 0.880395 0.354079 0.00751753 -3 0 -3 
7701 5 0.83309 0.325564 0.0378983 6 -1 -1 
5283 6 0.848988 0.358546 0.0418365 6 -6 4 
6513 6 0.923071 0.364461 0.0225942 -1 -1 0 
7124 5 0.631733 0.497237 0.98858 -3 -4 0 
6129 5 0.843887 0.458707 0.958073 2 -9 -2 
7460 6 0.655572 0.507679 0.985205 -2 2 0 
6283 6 0.6918 0.495788 0.0539353 -2 -2 2 
8288 5 0.929255 0.493183 0.960084 1 0 -4 
7741 5 0.527474 0.519573 0.985649 -2 2 -6 
8919 6 0.89583 0.514661 0.997831 -4 -9 -6 
7422 6 0.390296 0.554677 0.0463618 -4 1 -1 
8887 5 0.376639 0.541205 0.997373 -3 -2 -2 
6375 6 0.805977 0.547222 0.0529666 3 1 -1 
8119 6 0.329757 0.582176 0.98154 -2 -5 -1 
7012 6 0.569514 0.610003 0.00659857 3 0 -5 
8194 5 0.25081 0.574517 0.00110447 3 -4 3 
7191 5 0.46415 0.57128 0.0176869 -4 2 4 
6538 6 0.47934 0.603965 0.994128 2 4 4 
6984 6 0.788373 0.592921 0.946958 1 -2 -1 
5707 5 0.891649 0.598761 0.0244216 -1 3 -4 
8640 6 0.249894 0.640253 0.0203121 2 -2 4 
5614 6 0.891837 0.643378 0.0265791 -4 2 -3 
8008 5 0.916558 0.614846 0.00903407 4 -1 1 
6598 6 0.716551 0.67303 0.990799 -4 1 -3 
5345 5 0.957662 0.666323 0.995574 -4 3 2 
8398 6 0.0107517 0.63409 0.990494 4 -1 3 
6625 5 0.342235 0.730322 0.962415 4 -1 1 
5166 5 0.529891 0.649741 0.0507832 1 -4 0 
6491 6 0.600083 0.713552 0.0170327 2 -3 -4 
5414 5 0.670009 0.710841 0.0400527 1 -6 3 
7242 6 0.992419 0.734295 0.993109 -2 -2 -4 
7108 5 0.712591 0.769058 0.0350695 -3 -3 -4 
7854 6 0.0955684 0.746544 0.962079 4 1 1 
7554 5 0.594963 0.795364 0.0315081 -2 4 -1 
7252 6 0.568124 0.742978 0.00870553 -2 -1 0 
6164 6 0.604574 0.808495 0.0224217 2 0 -1 
5239 5 0.151995 0.829646 0.0133243 -4 0 3 
6986 5 0.514758 0.813203 0.00931035 -2 1 0 
7844 6 0.652049 0.847558 0.00101997 2 1 -6 
7491 6 0.848398 0.861421 0.022754 -6 0 5 
7237 6 0.844255 0.832626 0.0492811 3 -5 0 
5282 6 0.943621 0.849691 0.00645739 3 -1 -3 
6823 5 0.122428 0.972465 0.0238039 -5 0 0 
6580 5 0.0554528 0.962257 0.0186226 4 1 1 
6994 5 0.303046 0.955075 0.005758 7 1 0 
6304 6 0.526646 0.975117 0.0367352 -4 2 0 
7703 5 0.34877 0.0220781 0.0245575 -2 -4 6 
6543 5 0.493661 0.993435 0.99039 -1 -4 0 
7793 5 0.426752 0.0619851 0.0433002 -5 -1 -4 
7288 5 0.506059 0.0302615 0.0423934 1 -1 6 
5409 5 0.756428 0.0799164 0.0466068 3 -3 1 
6830 6 0.797524 0.0156779 0.0109729 7 0 5 
5341 6 0.897667 0.0412582 0.0706244 1 4 3 
8755 6 0.502773 0.0574231 0.0138674 4 -3 -4 
5235 6 0.734402 0.0895086 0.0321748 5 -1 2 
6638 6 0.496741 0.155153 0.0350493 -2 -4 -2 
8583 5 0.776324 0.157396 0.0230804 0 4 0 
6350 5 0.149688 0.20812 0.0158275 0 5 -3 
8163 5 0.278908 0.221321 0.0532609 -2 -2 0 
5789 6 0.28914 0.245895 0.0204997 1 -1 2 
6143 6 0.354452 0.230166 0.00668203 0 -3 4 
6089 5 0.890079 0.209815 0.0464237 -4 0 3 
8800 6 0.50509 0.22454 0.0515416 -1 -1 -4 
8863 5 0.582148 0.322787 0.0304879 2 -1 4 
6719 5 0.911589 0.259129 0.0382787 -3 -1 0 
7481 5 0.579033 0.291696 0.0508634 0 -7 9 
7598 6 0.62871 0.331854 0.0436265 0 3 5 
8367 5 0.488409 0.331056 0.0110043 0 1 3 
8910 6 0.409114 0.350932 0.0577723 5 0 1 
8824 5 0.537098 0.350114 0.0218272 -5 0 0 
5396 5 0.606824 0.333991 0.0570462 -5 5 -7 
8300 5 0.220945 0.339308 0.00640337 3 7 1 
8977 5 0.662735 0.361565 0.0392797 -1 3 2 
8538 6 0.794627 0.408785 0.0257371 -1 1 -7 
8767 5 0.883108 0.474801 0.991324 -2 0 0 
8117 5 0.946074 0.492059 0.0281585 -4 -2 2 
7508 6 0.14118 0.503705 0.00934231 -1 -3 -4 
6410 5 0.885408 0.522169 0.0233448 -1 2 -4 
7155 5 0.163377 0.481197 0.00153907 4 1 -3 
7338 5 0.328217 0.497993 0.0329854 1 2 -2 
8997 6 0.683482 0.535855 0.00814917 0 -2 2 
5906 5 0.532466 0.55421 0.053294 -2 2 1 
6022 5 0.58507 0.623822 0.0262973 6 -7 0 
6323 5 0.712438 0.634614 0.0320875 -5 0 1 
6240 5 0.7302 0.622152 0.0338357 0 -4 -2 
8365 6 0.516972 0.616105 0.0441879 2 2 -1 
6266 5 0.0727388 0.641933 0.0465834 8 -2 -3 
5005 5 0.128342 0.64063 0.0547193 1 0 5 
6953 5 0.511827 0.650294 0.0256161 2 -1 -4 
6989 6 0.560345 0.689414 0.0831474 -5 -1 7 
6496 6 0.305708 0.668584 0.0297219 4 -7 3 
8531 5 0.546812 0.710045 0.0280803 1 0 -1 
8048 5 0.892936 0.698325 0.027119 2 2 2 
8106 5 0.231377 0.731249 0.0348522 -3 1 0 
5857 5 0.705093 0.715708 0.0235729 -4 -2 4 
7420 5 0.923658 0.743836 0.0674446 -1 4 5 
7702 5 0.110641 0.768957 0.0467206 -2 -1 1 
8005 5 0.328535 0.716497 0.0325232 -3 -4 3 
6290 6 0.650659 0.714608 0.0323452 1 0 3 
8591 5 0.85126 0.745895 0.0133275 -3 -3 -3 
7388 5 0.95143 0.743733 0.02511 -1 8 1 
5332 5 0.532548 0.759445 0.0329431 0 -3 -2 
8889 6 0.145038 0.79279 0.00688438 -1 -4 -1 
7283 6 0.356347 0.775672 0.00807762 2 1 2 
7389 5 0.714602 0.753415 0.0329434 -1 -3 0 
7758 5 0.902368 0.775883 0.0266216 0 0 1 
7221 6 0.067684 0.796784 0.0323118 2 0 4 
5647 6 0.478835 0.799949 0.991404 2 1 0 
5962 5 0.556117 0.812104 0.0101512 0 2 4 
7486 5 0.0227777 0.850387 0.0310913 2 -3 3 
8045 6 0.0165397 0.808559 0.0292704 2 1 0 
8901 6 0.0777965 0.847406 0.0165745 4 -2 -5 
5423 5 0.0986949 0.81774 0.0852752 0 -1 2 
7136 5 0.920685 0.839049 0.0528193 3 3 0 
5049 6 0.308794 0.8487 0.0144765 -1 -1 -1 
7100 5 0.421111 0.863725 0.060008 -4 0 3 
5567 5 0.770674 0.839623 0.0445691 -4 -1 0 
8973 6 0.839391 0.855316 0.0243423 -3 -1 0 
5306 5 0.802222 0.888794 0.0577617 3 0 1 
5269 5 0.91196 0.845848 0.057907 -1 2 -3 
7131 5 0.979275 0.866992 0.0473031 0 -7 0 
8526 6 0.0517618 0.91707 0.0398983 3 -3 -1 
5943 6 0.883994 0.912312 0.993729 -1 -5 -5 
5277 6 0.942232 0.906071 0.0299024 1 -3 4 
8751 6 0.185268 0.960018 0.0718379 -1 4 0 
8108 6 0.652475 0.929856 0.0276227 2 3 -2 
6745 6 0.930079 0.94131 0.0246025 7 -4 2 
7524 5 0.374305 0.948822 0.0654802 1 0 1 
8948 6 0.586164 0.979791 0.0334576 1 -3 -1 
6426 5 0.752056 0.974686 0.0827922 -2 -4 2 
8796 6 0.848974 0.982446 0.969477 0 -6 4 
6423 5 0.94178 0.980335 0.0478018 1 2 -5 
5891 6 0.138262 0.97606 0.994324 1 3 -2 
5551 5 0.963846 0.00249536 0.0495644 1 6 2 
8193 6 0.140678 0.0123559 0.0392352 3 5 0 
6558 5 0.317295 0.0471481 0.054953 -2 3 -8 
8809 6 0.0920187 0.083906 0.0335415 -2 -3 1 
5262 6 0.130372 0.0683458 0.0804231 3 -1 -2 
7619 6 0.57222 0.0597177 0.0558096 2 4 2 
8366 6 0.63921 0.103978 0.0384039 2 0 5 
8434 6 0.663388 0.074636 0.0362261 0 2 -3 
7039 6 0.923734 0.0367938 0.0729594 -3 -1 4 
7464 5 0.237765 0.121296 0.056135 -1 0 1 
7632 5 0.324593 0.132856 0.0395699 2 -2 0 
6364 6 0.559581 0.159716 0.0785831 -1 2 1 
7655 5 0.640099 0.107505 0.0527782 -6 0 -2 
7629 5 0.221334 0.168909 0.0423043 -6 1 0 
6465 6 0.999144 0.155505 0.0230915 -4 2 2 
6704 5 0.105478 0.159271 0.0341587 3 3 -1 
6728 6 0.224525 0.169868 0.0610709 1 1 -4 
5669 5 0.303544 0.177825 0.0773176 0 -2 4 
5026 5 0.139994 0.192516 0.0629236 1 -3 2 
6285 5 0.300685 0.198279 0.0733771 0 -3 7 
5140 5 0.151532 0.255532 0.0508491 0 0 2 
8263 5 0.709427 0.24095 0.0835554 -1 0 -3 
6885 5 0.463658 0.226319 0.0156132 1 -1 -1 
5913 5 0.625802 0.267296 0.0392593 1 0 0 
8298 5 0.902791 0.242276 0.0540854 3 0 -4 
5424 5 0.386545 0.280508 0.0108994 2 -1 -2 
5679 5 0.208626 0.290311 0.0796691 1 2 -4 
6731 6 0.615598 0.330067 0.0181419 -4 0 -2 
8930 6 0.0177998 0.373721 0.0757281 -1 0 -6 
5168 6 0.210706 0.375315 0.0749894 1 -6 1 
8356 5 0.351469 0.417155 0.018213 7 0 1 
7337 6 0.70761 0.369923 0.0345553 2 2 1 
8988 6 0.0485191 0.340979 0.0520939 -1 3 2 
6250 6 0.135295 0.414874 0.072004 4 2 4 
6930 5 0.225651 0.413818 0.034683 0 -6 1 
7895 6 0.509863 0.347401 0.979197 -2 -3 3 
8085 6 0.103717 0.473229 0.0748072 0 1 3 
8628 6 0.473967 0.480461 0.0411691 1 2 3 
7094 5 0.197282 0.490872 0.0390226 4 3 4 
8338 6 0.366195 0.452106 0.108409 -2 1 5 
7608 6 0.422363 0.522872 0.0571757 -1 -2 4 
8810 6 0.530351 0.485944 0.0434465 -2 -1 0 
8773 5 0.605981 0.504915 0.0300606 2 2 -2 
6469 6 0.982791 0.49159 0.0734885 -5 -1 1 
5956 6 0.199724 0.488093 0.00877608 3 1 -3 
5032 6 0.249215 0.49697 0.079691 1 2 0 
8304 5 0.702347 0.535902 0.0884004 3 -3 0 
7845 6 0.326976 0.56907 0.0757422 4 4 -3 
7405 6 0.373177 0.557809 0.0528356 3 0 -1 
7438 6 0.918812 0.534538 0.0965277 -2 6 -6 
8318 6 0.0290963 0.620038 0.0820961 2 -2 2 
5691 6 0.456211 0.601352 0.0552014 0 -1 2 
8682 5 0.808901 0.614362 0.114897 5 0 1 
8589 6 0.42596 0.585572 0.0572199 -1 -2 5 
8475 5 0.609377 0.648395 0.0884269 3 -1 -2 
6972 5 0.774881 0.633659 0.0552814 -5 0 2 
5896 6 0.879126 0.638549 0.045258 -1 1 -1 
6321 5 0.0410986 0.645881 0.108185 -2 -3 3 
8904 6 0.111979 0.699135 0.0720332 -2 -2 -3 
7409 6 0.145518 0.674812 0.0602669 5 0 0 
5757 6 0.537032 0.716104 0.0658834 -3 2 1 
8986 5 0.252243 0.712606 0.048444 2 -1 2 
7970 6 0.783296 0.780941 0.0387263 -3 2 -1 
8665 5 0.385674 0.79532 0.096001 5 -1 -1 
5350 5 0.628627 0.82082 0.0874027 3 -1 4 
5234 5 0.726544 0.788006 0.00524115 1 -2 4 
8715 6 0.226386 0.816225 0.0820844 5 -5 -2 
5826 5 0.727844 0.795279 0.0847018 0 2 6 
6149 6 0.0743906 0.816977 0.0303029 2 -2 -1 
5122 6 0.58711 0.851004 0.0797455 -2 0 -6 
8748 6 0.616954 0.864252 0.0657666 3 -6 1 
7509 5 0.781682 0.856533 0.0861631 2 0 1 
7214 5 0.508029 0.867247 0.0521051 -3 -1 5 
8113 5 0.689035 0.848936 0.0399292 1 3 -3 
5860 5 0.0408642 0.908518 0.0516742 3 1 7 
8571 6 0.473457 0.894385 0.073753 2 -4 0 
5585 5 0.113099 0.899319 0.0324532 3 2 2 
6001 5 0.300584 0.902535 0.061605 -1 -1 0 
6524 5 0.67606 0.928746 0.031778 -6 -1 1 
6521 5 0.996001 0.923491 0.071054 -2 -1 -1 
7489 6 0.862678 0.959249 0.0640395 -1 4 -3 
6976 5 0.933972 0.989786 0.0665262 -3 -1 1 
8271 6 0.425756 0.0447607 0.0848866 8 -4 -4 
8301 5 0.719585 0.00872145 0.151984 2 1 -2 
6329 6 0.441589 0.967529 0.0703018 5 0 6 
6857 6 0.971627 0.0760969 0.0885078 -2 0 7 
5749 5 0.220477 0.11247 0.0684375 -1 2 -2 
7627 6 0.369004 0.114412 0.14614 2 4 -1 
5775 6 0.360459 0.0984097 0.0673238 3 -3 3 
5738 5 0.0741614 0.0872915 0.101626 5 2 -4 
6903 5 0.251642 0.114115 0.0955537 4 -3 1 
6531 6 0.25075 0.120277 0.0648337 -1 -1 1 
7719 6 0.373455 0.0923013 0.0370479 -7 -1 4 
6785 6 0.429606 0.120797 0.06864 3 2 -5 
8808 6 0.886844 0.104008 0.0763352 6 -4 5 
7423 5 0.514579 0.135266 0.0709305 0 8 3 
6993 6 0.361561 0.126704 0.084513 -3 4 1 
6150 6 0.767784 0.204994 0.0813731 -6 1 8 
6525 6 0.872396 0.162757 0.0856485 2 1 -2 
6958 6 0.525977 0.238913 0.0828817 0 0 -1 
7712 5 0.604594 0.202099 0.0919186 -7 0 -11 
5918 5 0.864551 0.219376 0.056034 2 -4 -3 
8898 6 0.979379 0.236296 0.0937399 2 3 -3 
5848 5 0.129058 0.253567 0.0894048 -3 4 4 
8984 6 0.318585 0.224996 0.055349 -2 3 0 
6636 6 0.959144 0.257824 0.0577379 -2 -1 2 
7442 6 0.620423 0.277367 0.0906138 2 4 5 
7316 6 0.702196 0.262296 0.0590096 3 0 3 
5033 5 0.319658 0.294998 0.0555809 0 1 1 
6358 6 0.265281 0.275846 0.0782119 2 -3 -4 
6949 6 0.692661 0.320203 0.0950007 4 1 1 
5022 5 0.00643645 0.369836 0.0813287 -1 0 2 
7560 5 0.063096 0.359859 0.0554483 0 -3 1 
5015 5 0.701517 0.403095 0.0709182 0 -2 1 
5861 6 0.873959 0.374775 0.0753409 -1 5 2 
6897 6 0.920208 0.377408 0.112224 0 -1 4 
8893 6 0.569438 0.407732 0.0768257 -2 5 -3 
5788 6 0.612376 0.41396 0.0997664 0 0 -3 
7964 5 0.61093 0.435281 0.0942539 -2 -1 5 
8477 6 0.184478 0.420885 0.0811076 -1 -3 3 
5395 6 0.503984 0.429387 0.0872807 2 -2 2 
5782 6 0.911823 0.480508 0.0699813 1 2 2 
8178 6 0.172843 0.474845 0.0923098 1 -6 -1 
8691 5 0.582841 0.469754 0.0971786 -1 5 3 
6511 6 0.718561 0.489961 0.0562403 2 1 3 
7505 6 0.76033 0.481267 0.101097 0 1 0 
8707 6 0.810991 0.475273 0.0847321 2 2 4 
5167 5 0.929534 0.497822 0.10523 -3 -1 -1 
5665 5 0.4102 0.517593 0.0927357 -3 6 -3 
8249 5 0.57731 0.516631 0.0720184 -1 -3 -2 
7691 6 0.286927 0.52711 0.0974004 1 2 4 
7551 5 0.483954 0.523173 0.105825 -4 1 3 
8105 5 0.642934 0.501845 0.0846303 -1 -1 3 
6861 5 0.87862 0.54307 0.100504 -3 6 5 
5888 6 0.0979026 0.548132 0.0638859 -2 0 4 
7478 6 0.850754 0.550899 0.0487153 0 3 -2 
5790 5 0.879295 0.557217 0.0776851 -1 0 0 
6693 6 0.904437 0.545788 0.0699575 1 1 -4 
7262 6 0.777786 0.558423 0.0819762 -2 -5 -2 
5763 5 0.838026 0.590229 0.118762 -1 5 -1 
6648 6 0.105915 0.663043 0.0550648 3 -6 7 
5793 6 0.290203 0.613756 0.065322 1 -1 -1 
6386 5 0.334761 0.638165 0.112671 -2 5 2 
6174 5 0.923026 0.605522 0.0785462 2 -4 3 
5084 5 0.465507 0.587162 0.0854092 -3 0 -1 
6128 5 0.799913 0.669355 0.0843894 0 2 -3 
7834 6 0.905424 0.632932 0.0928737 2 -3 0 
6753 6 0.512145 0.684294 0.0278618 -4 1 0 
8421 6 0.0314729 0.703504 0.068557 -7 3 4 
6926 6 0.114448 0.711196 0.0603676 4 0 2 
5315 6 0.239283 0.74566 0.0783734 1 1 2 
8847 5 0.770375 0.696477 0.0745596 -3 5 -4 
7437 6 0.14215 0.732464 0.0907432 0 2 2 
6462 5 0.414896 0.731053 0.105534 -3 -3 3 
8357 6 0.872939 0.740704 0.0765991 -1 1 -2 
5123 6 0.471344 0.777536 0.0626831 3 -5 -3 
7410 6 0.835092 0.773504 0.10196 -1 1 -6 
8914 6 0.152429 0.795202 0.0688742 2 -1 0 
6151 5 0.22516 0.741808 0.0734044 2 3 -1 
8399 6 0.437931 0.820374 0.091728 -4 -7 1 
6813 5 0.476993 0.791443 0.0947454 -2 2 2 
5016 5 0.61917 0.785401 0.0762633 -2 -2 1 
7475 6 0.743105 0.81138 0.0986989 -3 -5 1 
7228 6 0.124948 0.810498 0.103997 6 3 3 
7363 6 0.706751 0.844615 0.0902282 2 1 3 
5509 6 0.245853 0.89417 0.0703313 4 3 4 
8992 6 0.787001 0.870053 0.0892713 2 -1 -5 
6441 6 0.956751 0.854074 0.0649914 -2 -2 -2 
8061 5 0.0271844 0.917862 0.104308 1 -1 -3 
5506 6 0.390354 0.882678 0.0715464 3 0 4 
5120 6 0.30602 0.944939 0.081385 0 -5 -4 
8632 5 0.515958 0.908225 0.0566038 0 -3 -4 
8825 5 0.500683 0.90761 0.0880569 0 8 -5 
5898 5 0.752074 0.918952 0.0595092 2 1 -5 
8322 5 0.337606 0.0133181 0.0952098 -3 -2 -2 
6483 5 0.596398 0.95593 0.0763704 1 0 6 
5212 6 0.0216189 0.96512 0.0952532 6 -1 1 
8946 5 0.524847 0.0186606 0.0946447 0 2 1 
5183 5 0.912517 0.997799 0.0808028 -4 6 0 
6894 6 0.952193 0.999971 0.0727127 0 2 2 
5727 5 0.445251 0.98273 0.0703116 -1 -4 2 
8508 5 0.122681 0.0523527 0.0809234 0 1 0 
5533 5 0.247215 0.0719956 0.119284 -5 -2 -2 
8015 5 0.638145 0.0519709 0.154057 -2 2 -5 
5136 5 0.67597 0.075367 0.109436 0 -1 -4 
8671 6 0.676796 0.0682483 0.0914573 -2 2 -1 
8401 6 0.184736 0.0711534 0.0511566 -4 1 8 
5508 5 0.412599 0.0811698 0.0753685 2 -2 -3 
6126 5 0.888434 0.0915119 0.105582 -5 -3 -5 
8852 5 0.640873 0.0703525 0.103491 2 0 -1 
7768 6 0.0944073 0.184764 0.0680994 2 4 -1 
7044 5 0.485365 0.136947 0.132767 -1 2 4 
5539 5 0.00747772 0.160032 0.10587 -1 -2 -5 
8379 6 0.00563754 0.188386 0.106122 0 -2 -3 
5902 6 0.0491528 0.171745 0.0932591 3 5 4 
6121 6 0.273252 0.185307 0.0948281 -1 0 4 
6455 6 0.607731 0.167052 0.116493 1 4 1 
5103 6 0.452444 0.221811 0.0991843 1 1 4 
6397 6 0.700224 0.203336 0.12118 -1 1 1 
6740 6 0.255559 0.235331 0.141802 1 0 0 
8592 6 0.47343 0.213905 0.13294 6 -1 -4 
8817 5 0.778181 0.252666 0.119818 2 -1 0 
8275 6 0.192337 0.297706 0.0911954 4 4 1 
8156 6 0.223672 0.295043 0.120626 -1 0 1 
6064 6 0.662544 0.302725 0.0847788 -2 1 2 
5389 5 0.845713 0.28085 0.100722 6 0 0 
8328 5 0.791301 0.316151 0.101236 -3 4 -1 
6952 6 0.992678 0.354905 0.105548 -3 -1 -2 
7626 6 0.454394 0.389129 0.0794305 2 -3 1 
5163 6 0.665127 0.351879 0.0974552 0 -1 2 
7427 6 0.917119 0.37552 0.0950621 0 2 -4 
7495 6 0.546139 0.358978 0.103928 6 1 3 
7559 5 0.591574 0.380942 0.0922502 3 -2 2 
6199 6 0.636211 0.414264 0.12758 -4 -6 2 
6715 5 0.842991 0.402657 0.0927774 0 0 -3 
6233 6 0.0527886 0.453951 0.074551 3 -3 1 
8513 5 0.0960927 0.427836 0.102267 6 0 3 
8407 6 0.741775 0.41844 0.0871374 -1 3 -1 
5335 6 0.454145 0.459036 0.107005 -5 -5 -6 
8675 6 0.688678 0.475471 0.131876 -3 -1 3 
6074 6 0.881676 0.471947 0.123688 -5 4 2 
5323 6 0.385859 0.505273 0.0504771 2 2 5 
8579 6 0.403063 0.503042 0.112969 1 -5 -2 
8928 5 0.901319 0.494362 0.0832951 1 -8 1 
7662 5 0.218378 0.52758 0.120791 3 0 0 
5465 6 0.289466 0.512935 0.111523 3 -4 1 
7641 5 0.430668 0.471208 0.137741 3 6 1 
5116 5 0.856068 0.528188 0.0966619 -2 5 4 
5715 6 0.991621 0.487201 0.119482 -1 -1 4 
5451 6 0.480982 0.542345 0.0692311 4 -2 1 
8320 5 0.965502 0.553539 0.0911714 -2 4 -6 
5001 5 0.239754 0.527219 0.0745968 -4 1 -4 
6354 6 0.809022 0.595058 0.103423 -3 4 -5 
8485 5 0.812621 0.588635 0.101756 -1 -2 -3 
8214 5 0.962742 0.560196 0.0867836 -4 1 3 
8815 5 0.132472 0.585501 0.110113 -1 2 -4 
7688 6 0.327972 0.598611 0.114493 -3 1 0 
7526 6 0.84099 0.558093 0.0844347 -2 -5 -3 
8918 6 0.350023 0.612169 0.0691719 6 3 -4 
8392 6 0.382499 0.590467 0.10768 4 -2 -3 
6042 6 0.690679 0.651303 0.131335 -1 -2 4 
5440 5 0.82256 0.644831 0.0998113 0 -1 4 
8063 5 0.789964 0.640605 0.0982455 5 -2 3 
5569 5 0.257943 0.665276 0.138871 -2 0 -4 
7656 6 0.891695 0.640274 0.0645724 0 1 -1 
7934 5 0.0380615 0.741402 0.128715 5 -2 7 
8010 6 0.823913 0.683427 0.105654 -2 1 1 
5905 5 0.958618 0.715348 0.149257 -2 -1 -2 
6880 6 0.729098 0.700591 0.101739 0 -2 4 
6448 5 0.317557 0.711631 0.0802999 2 1 0 
6051 6 0.670424 0.772603 0.0869561 -2 6 4 
8706 6 0.126398 0.785181 0.136931 -7 2 3 
5264 5 0.3102 0.760909 0.0703937 -6 0 -1 
6851 5 0.43324 0.744806 0.116387 1 4 2 
5816 6 0.855181 0.805655 0.137612 -2 2 -1 
7955 5 0.20556 0.821527 0.150625 -4 -5 -5 
7605 6 0.274117 0.813946 0.070832 -5 -6 -1 
8741 6 0.467573 0.808364 0.0859319 2 -3 5 
6420 6 0.66354 0.826179 0.112459 0 -1 0 
7225 6 0.735668 0.85438 0.107315 -2 1 -6 
5993 5 0.888009 0.830939 0.124042 2 1 -5 
5400 6 0.042978 0.830856 0.122435 4 5 -2 
8348 5 0.0543794 0.88012 0.0756547 4 -3 1 
8610 5 0.323198 0.908648 0.108334 2 -2 -10 
5745 5 0.366727 0.910696 0.101384 -3 -3 -3 
5477 6 0.68332 0.893691 0.14041 -4 2 -4 
5680 5 0.873168 0.903168 0.0769646 -5 0 2 
5138 5 0.280225 0.933537 0.126551 0 4 1 
6814 6 0.627541 0.971928 0.124017 2 3 -3 
6938 6 0.1104 0.0226205 0.126798 2 -2 1 
5160 5 0.321341 0.980223 0.0696144 2 -2 8 
5220 6 0.728953 0.955624 0.0936298 0 6 1 
7368 6 0.942277 0.984547 0.156886 -5 -2 -2 
5476 6 0.0197822 0.00957607 0.113471 -5 3 0 
5225 6 0.306944 0.0599357 0.128773 -3 3 1 
6782 6 0.0874267 0.00634792 0.152497 1 1 3 
7886 5 0.0971182 0.0310276 0.128192 -3 0 1 
6438 6 0.250672 0.0445896 0.15968 3 -1 1 
8454 5 0.794005 0.0296125 0.0990635 -2 -4 -2 
6888 6 0.919495 0.0284824 0.128555 -3 3 -2 
6305 5 0.690245 0.102183 0.138138 1 -4 0 
5429 5 0.0282527 0.0702189 0.108185 4 -3 0 
6056 5 0.519585 0.0861247 0.119012 0 2 1 
5412 6 0.597163 0.105309 0.116141 -5 1 2 
6741 5 0.78987 0.148015 0.118514 -2 2 0 
8034 6 0.414426 0.1544 0.134493 0 2 2 
7040 5 0.0425863 0.182831 0.104222 -2 5 -1 
5591 5 0.540673 0.152954 0.120057 0 0 3 
8705 5 0.69635 0.177982 0.162129 -4 1 6 
5052 5 0.150704 0.198238 0.179184 5 -3 5 
5421 6 0.363824 0.183161 0.0911253 3 0 1 
7383 6 0.420132 0.263135 0.128973 -2 0 1 
7924 6 0.439284 0.223846 0.143452 -1 0 -1 
7537 6 0.477189 0.274959 0.114851 -3 0 1 
6468 5 0.972951 0.27088 0.113891 -2 -1 -1 
8601 6 0.359284 0.309283 0.15759 2 -3 -3 
6939 5 0.747065 0.305405 0.131982 0 -5 0 
5058 6 0.96167 0.32161 0.126737 0 -3 0 
7903 5 0.320487 0.387427 0.142022 -2 1 -4 
7540 6 0.419216 0.344933 0.151109 -1 7 4 
8668 5 0.673049 0.350229 0.133337 7 -1 0 
7965 5 0.00555272 0.357216 0.144779 -3 -2 -2 
5872 5 0.330496 0.429117 0.146706 0 0 2 
8737 6 0.431429 0.39008 0.101554 3 -3 4 
7148 5 0.72237 0.394514 0.0986943 1 0 3 
8981 6 0.997013 0.443174 0.1281 3 1 2 
8731 6 0.116363 0.414699 0.115689 0 2 1 
7664 6 0.892087 0.406038 0.119565 2 0 -2 
7227 6 0.966318 0.430045 0.120125 -2 -3 5 
6557 5 0.610735 0.415517 0.132948 0 -1 -3 
7198 6 0.212047 0.475833 0.127076 1 -4 0 
5742 5 0.394018 0.414935 0.131228 -3 3 -3 
7592 5 0.713424 0.484669 0.101736 5 4 -1 
8577 5 0.883956 0.48586 0.126316 0 2 -1 
6730 5 0.780649 0.497821 0.143111 0 -6 2 
7444 5 0.635941 0.577398 0.132349 -3 2 0 
8006 6 0.359925 0.606332 0.152411 3 -2 5 
5966 5 0.481062 0.597714 0.0883191 -3 -1 1 
7797 6 0.660276 0.609259 0.171381 1 -6 2 
7079 6 0.918695 0.629839 0.132715 -6 -1 2 
6163 6 0.428912 0.688699 0.152021 3 -4 3 
6503 6 0.0753372 0.708618 0.160571 2 2 1 
8329 6 0.690801 0.643306 0.138439 3 1 0 
6306 5 0.235301 0.696468 0.129997 -2 -1 1 
8620 6 0.952046 0.750544 0.124155 1 4 -4 
5529 5 0.45819 0.735719 0.136625 -2 6 -4 
8037 5 0.625111 0.794566 0.153344 -1 1 3 
7525 6 0.562945 0.784396 0.148702 -5 -1 0 
6582 5 0.413257 0.762277 0.101566 1 -8 0 
5534 6 0.121149 0.78108 0.150767 3 -1 2 
5516 5 0.0164329 0.871763 0.115723 3 2 0 
7901 6 0.678797 0.813241 0.0733273 -2 -1 2 
5194 5 0.988616 0.839057 0.113005 0 3 0 
6224 5 0.879295 0.929604 0.0879357 0 2 -2 
7320 6 0.939366 0.965746 0.16989 6 -1 3 
5706 6 0.0384859 0.0277363 0.163782 -1 -1 2 
7630 5 0.74773 0.0114813 0.114846 -2 -1 2 
8912 6 0.31276 0.0758542 0.123319 -4 6 5 
7016 5 0.430038 0.0394929 0.156594 5 1 4 
7941 5 0.394156 0.028864 0.15523 6 3 2 
8418 6 0.50462 0.0243044 0.193251 5 5 4 
6027 5 0.968745 0.998198 0.16836 -5 -4 -1 
5588 6 0.0966324 0.0892449 0.103451 0 -2 1 
8641 5 0.177431 0.0473009 0.166336 0 2 -1 
7308 5 0.295646 0.0717695 0.166248 -2 1 -5 
7165 5 0.543838 0.0674363 0.150973 3 2 0 
6827 5 0.38395 0.100453 0.166732 -4 -4 -1 
8107 6 0.475772 0.0267599 0.176476 1 4 -3 
6206 5 0.204148 0.0879949 0.152117 0 0 -1 
5885 6 0.697255 0.11429 0.146632 2 -4 -4 
5698 6 0.748242 0.101331 0.168772 1 2 1 
5374 6 0.138619 0.157526 0.134651 3 2 6 
5520 6 0.273069 0.145178 0.13922 1 1 1 
8207 6 0.366264 0.169427 0.173657 2 3 1 
5654 5 0.024489 0.151521 0.156892 -1 6 4 
5206 5 0.304142 0.179924 0.149259 1 1 -5 
6807 6 0.919974 0.202109 0.134034 -3 3 1 
6547 5 0.325234 0.215852 0.190267 1 1 -4 
7077 5 0.523596 0.232744 0.135198 0 -2 2 
6883 6 0.276184 0.198416 0.181099 -4 1 4 
8272 6 0.449787 0.225139 0.10686 5 3 -3 
7875 5 0.896096 0.220215 0.132615 0 -2 3 
8882 5 0.589065 0.221939 0.154176 3 -1 -3 
5635 6 0.702553 0.25846 0.157151 -4 1 -1 
8196 5 0.789883 0.258118 0.167264 -1 -4 -1 
5657 5 0.137213 0.315185 0.170817 2 -1 3 
7024 5 0.636429 0.263667 0.124034 0 -1 3 
5643 6 0.543156 0.372278 0.143573 2 2 2 
8730 5 0.314003 0.395992 0.159252 0 -5 -5 
8789 6 0.00169074 0.378956 0.153634 2 -1 8 
6075 6 0.138934 0.378391 0.192467 -3 8 0 
6797 5 0.213519 0.3992 0.14763 -1 -1 -5 
7441 6 0.274395 0.423361 0.17906 0 0 -2 
8890 6 0.415937 0.416765 0.128127 0 3 -2 
7855 6 0.166881 0.438602 0.139014 3 6 -5 
7133 6 0.293347 0.436151 0.134903 1 -3 0 
7553 6 0.363215 0.41645 0.136467 4 -4 -4 
8267 6 0.635344 0.427057 0.130238 -3 3 -5 
7759 5 0.215947 0.498832 0.160286 1 1 -3 
6709 6 0.360514 0.511239 0.118421 2 -5 1 
6127 5 0.536967 0.517618 0.134595 4 4 -3 
8349 6 0.621816 0.529115 0.128327 -2 -2 2 
6700 5 0.707957 0.531237 0.154085 -1 1 1 
5497 5 0.17509 0.554953 0.128094 1 -1 -2 
8076 5 0.015721 0.554161 0.140332 0 2 -2 
7698 5 0.141532 0.605607 0.136949 3 -1 0 
5832 6 0.749155 0.610064 0.150163 -6 2 2 
6367 5 0.0121818 0.593924 0.189574 0 -1 2 
5967 5 0.891246 0.597576 0.0983396 -1 -3 -2 
6633 5 0.34411 0.622698 0.108913 -3 -5 -1 
5467 6 0.621284 0.670378 0.152565 -4 -1 9 
6470 5 0.847961 0.630119 0.178363 -2 4 2 
7315 6 0.28227 0.672538 0.145121 -1 -4 2 
8469 5 0.33829 0.625266 0.168596 4 0 2 
8588 5 0.502139 0.674878 0.145301 -2 -1 5 
5171 6 0.724377 0.634318 0.151059 0 -3 -2 
8160 5 0.863221 0.624453 0.14164 0 -1 -2 
5709 5 0.912762 0.599621 0.124899 0 -1 2 
7646 5 0.470818 0.679166 0.134206 0 -6 -1 
7496 5 0.507588 0.671082 0.152237 1 4 1 
5542 5 0.794797 0.684752 0.161085 1 -2 2 
8370 6 0.618285 0.672281 0.106667 0 3 -5 
8732 5 0.757222 0.711299 0.143452 -2 -1 -2 
7279 5 0.0515014 0.695681 0.157444 -4 4 0 
6737 6 0.619914 0.71326 0.129567 -5 -1 -2 
8586 5 0.411489 0.775906 0.156552 2 -1 0 
5236 5 0.592885 0.693287 0.115038 1 2 3 
8159 5 0.752448 0.754049 0.121805 0 0 -1 
7998 5 0.83456 0.739306 0.138042 1 -1 2 
5175 5 0.135631 0.770523 0.16565 2 2 1 
5442 6 0.124934 0.756113 0.112124 1 0 -2 
7086 6 0.523383 0.744675 0.119271 7 4 0 
8561 5 0.683603 0.743976 0.165997 -2 4 0 
5678 6 0.607064 0.766331 0.127459 2 0 1 
5145 6 0.461872 0.812846 0.136597 -6 1 -2 
5455 6 0.893823 0.80522 0.127713 -1 -1 0 
7676 5 0.627105 0.804159 0.144244 -5 -3 4 
7439 6 0.767038 0.864529 0.150479 0 1 2 
5671 5 0.994273 0.837028 0.1335 2 -8 -3 
8422 5 0.309936 0.859654 0.135629 4 -5 6 
7689 5 0.954962 0.879166 0.177842 -6 -1 -1 
5199 6 0.349051 0.871309 0.109151 3 -3 2 
7371 6 0.48123 0.884655 0.12392 2 3 5 
5869 5 0.0284505 0.930668 0.145042 5 3 4 
7501 6 0.232262 0.9268 0.13259 0 3 0 
7158 6 0.30564 0.912021 0.145112 0 4 2 
8415 5 0.532208 0.968326 0.143539 3 0 1 
5258 6 0.935927 0.971566 0.179903 -3 -1 2 
6011 6 0.355582 0.981854 0.158948 -1 -3 -6 
7765 6 0.634991 0.986331 0.152899 -2 -1 -4 
7099 6 0.519001 0.00669456 0.107422 1 3 -5 
5450 5 0.374357 0.0163601 0.139868 5 0 1 
5074 6 0.477757 0.0153674 0.156863 6 -2 1 
7588 5 0.514724 0.0286279 0.193977 3 4 4 
8100 5 0.552173 0.0727373 0.153141 0 0 1 
5333 6 0.5626 0.0171908 0.18095 -1 5 -1 
8557 6 0.644924 0.0537186 0.192695 0 1 -1 
8947 6 0.881172 0.0844463 0.168849 -3 5 -7 
6882 5 0.634859 0.0661573 0.180127 -2 7 -2 
7160 5 0.638012 0.100795 0.187353 -1 0 1 
6760 5 0.0767515 0.117511 0.185644 0 -1 -4 
8074 5 0.322771 0.0975493 0.176641 0 0 1 
6519 6 0.510417 0.119857 0.160885 4 -1 3 
6041 6 0.154316 0.0999334 0.166915 1 -1 6 
6032 5 0.671719 0.134419 0.177988 -1 -1 -2 
8841 6 0.741884 0.122925 0.148494 2 0 -5 
7809 6 0.0490304 0.128153 0.177022 -2 -3 0 
6432 5 0.751227 0.150111 0.16588 -3 1 0 
5627 5 0.941458 0.128937 0.156932 -1 -1 1 
8974 5 0.43414 0.116002 0.161922 0 -2 3 
7989 6 0.742687 0.216373 0.201846 -3 3 1 
6336 6 0.197969 0.202274 0.153428 0 -2 -1 
8397 5 0.243243 0.179648 0.152113 -4 -1 -2 
6506 6 0.661163 0.239522 0.18054 -3 0 0 
7233 6 0.124933 0.224581 0.176438 -1 -5 -3 
5552 6 0.881133 0.229682 0.180017 -4 -6 -5 
6854 6 0.993585 0.215604 0.162211 -1 5 0 
5784 5 0.197604 0.242888 0.16232 1 5 1 
7829 6 0.331231 0.26655 0.142831 5 -2 -5 
6999 5 0.419456 0.259762 0.184509 4 -1 -1 
8791 5 0.671735 0.306243 0.134992 0 0 0 
8833 6 0.0605196 0.325516 0.138812 -2 1 -3 
7572 6 0.553313 0.292429 0.197778 -2 -1 -1 
7390 6 0.361868 0.29957 0.133633 0 1 -3 
7523 6 0.495401 0.280904 0.167099 -5 6 1 
8042 6 0.386427 0.32254 0.15916 4 -2 0 
7434 5 0.532403 0.354381 0.195711 1 1 4 
6726 6 0.340012 0.37344 0.153998 2 -2 0 
7932 5 0.956877 0.34264 0.158971 -4 -1 1 
7333 6 0.749182 0.369379 0.151865 -1 -2 -2 
7757 6 0.828864 0.421843 0.172237 3 -4 -5 
6774 5 0.962033 0.407805 0.205819 1 4 5 
5014 6 0.867545 0.426817 0.140551 1 -3 0 
7826 5 0.505773 0.482281 0.190593 -7 2 -3 
8314 6 0.478311 0.456806 0.155259 -3 -1 -2 
5418 5 0.188786 0.517434 0.166798 2 3 -2 
8220 5 0.255083 0.513762 0.215698 0 -2 -5 
5820 5 0.0365351 0.522054 0.167676 1 -5 1 
7139 5 0.874549 0.502117 0.175326 -5 0 -2 
6795 5 0.86767 0.545685 0.185796 5 3 -2 
6330 6 0.658742 0.524383 0.202205 1 -3 1 
8826 6 0.73036 0.54185 0.162673 4 -7 4 
6186 6 0.0326584 0.598276 0.158071 -5 -4 -3 
5601 6 0.626075 0.594222 0.168918 1 -1 -3 
8443 6 0.896704 0.599818 0.13824 1 2 0 
6316 5 0.987237 0.632981 0.170058 -3 -2 5 
6017 5 0.473894 0.609621 0.172375 7 0 3 
8913 5 0.853385 0.604722 0.176243 3 3 1 
6215 6 0.0361944 0.673378 0.189317 0 5 -3 
8839 5 0.848778 0.634875 0.188925 2 3 -1 
7570 5 0.0686437 0.684176 0.153903 0 -5 3 
8166 6 0.0697831 0.694489 0.211182 -4 -1 2 
6244 6 0.290305 0.768046 0.174461 4 1 5 
7911 5 0.312346 0.749763 0.192141 -4 -3 1 
6117 5 0.711965 0.800361 0.161007 -2 3 -1 
7906 6 0.234575 0.814273 0.19187 4 -4 1 
5218 5 0.530899 0.789956 0.179742 -1 -2 2 
7400 5 0.601181 0.81523 0.143114 0 1 0 
6716 5 0.840486 0.835335 0.172879 -4 -4 1 
7267 6 0.841736 0.826763 0.160938 -3 1 -4 
8020 6 0.257442 0.838583 0.172972 3 -2 0 
5272 6 0.55546 0.894043 0.148548 -1 0 3 
7216 6 0.684735 0.867206 0.179955 -4 3 -1 
8114 6 0.373897 0.884556 0.165612 -2 -2 -1 
8174 5 0.914008 0.866344 0.185031 -6 0 1 
6918 6 0.942728 0.898549 0.14752 1 -5 0 
6060 5 0.233467 0.920102 0.150369 0 1 -2 
6870 6 0.539234 0.939124 0.150794 2 3 -4 
7795 6 0.240011 0.970202 0.171966 0 -1 -1 
5769 6 0.505784 0.963779 0.167097 4 0 4 
6688 6 0.659176 0.986322 0.175844 5 1 -2 
7018 6 0.7543 0.953848 0.151063 -4 0 4 
7731 6 0.594118 0.00750955 0.211225 -1 -1 -5 
8497 5 0.988146 0.997816 0.199854 -5 -6 0 
7910 5 0.193946 0.0502893 0.188191 4 0 5 
8844 6 0.265281 0.0288577 0.236539 5 2 -1 
5190 5 0.243478 0.0382426 0.208362 2 -5 2 
5804 5 0.769123 0.0491693 0.19133 -2 -6 2 
7827 6 0.904247 0.0652035 0.193375 -4 2 -2 
5717 6 0.0908562 0.0684355 0.219854 0 -6 3 
8517 6 0.483216 0.0496619 0.25302 -3 -2 0 
5722 6 0.998613 0.114093 0.198655 1 -1 -1 
6286 6 0.988759 0.128332 0.190789 -2 3 3 