ITEM: TIMESTEP
50000000
ITEM: NUMBER OF ATOMS
9000
ITEM: BOX BOUNDS pp pp pp
-75 75
-75 75
-75 75
ITEM: ATOMS id type xs ys zs ix iy iz 
7367 6 0.370057 0.0537365 0.0330954 -2 3 3 
5261 5 0.715701 0.986221 -0.00124895 0 5 -3 
8789 5 0.467978 0.0355795 0.0174109 3 -5 -5 
8869 6 0.977222 0.0810644 0.985411 3 -3 1 
8489 5 0.344883 0.0637063 0.983558 0 -4 -11 
8569 5 0.510328 0.0515611 0.998349 -3 -5 -9 
6213 6 0.591133 0.106961 0.00155187 9 -2 8 
6226 6 0.871181 0.0483544 0.0605431 -1 -6 9 
6300 5 0.471812 0.0945524 0.00253039 -1 5 1 
8829 5 0.35497 0.102481 0.0100547 2 5 -5 
5012 6 0.899266 0.125064 0.0119968 -2 1 1 
8799 5 0.454894 0.10035 0.988372 0 5 -3 
5566 6 0.975366 0.173528 0.0303884 4 6 4 
7591 5 0.512412 0.174678 0.0346239 -5 -1 -1 
6584 5 0.600554 0.0881281 0.978771 -2 2 3 
7151 6 0.636109 0.126125 0.0246368 -1 0 3 
6185 5 0.148962 0.184064 0.0382844 4 0 0 
7692 6 0.0273488 0.175307 0.0361675 3 -1 11 
5439 5 0.568109 0.214739 0.00086425 -1 7 2 
5793 5 0.806006 0.246176 0.0187156 -2 -1 1 
7148 6 0.0446637 0.226506 0.993215 3 -1 -3 
5108 5 0.715931 0.246669 0.0326654 -6 -2 1 
7826 5 0.903841 0.296319 0.0311064 0 -1 3 
5818 5 0.352809 0.28955 0.994533 0 7 0 
5132 5 0.565122 0.264975 0.94698 5 2 -1 
6211 6 0.670787 0.27775 0.0221177 -5 8 -4 
6017 6 0.830691 0.24414 0.978504 -2 4 -5 
7880 6 0.113243 0.318783 0.0222383 4 3 -2 
7219 6 0.118052 0.322018 0.99873 0 2 -13 
6957 6 0.18191 0.334087 0.985276 -7 -3 -2 
5244 5 0.596225 0.325844 0.998393 -4 4 1 
8308 6 0.687787 0.401031 0.0173437 4 -2 3 
7864 6 0.0128614 0.371855 0.0189 1 2 -6 
7005 5 0.703697 0.451073 0.99829 -1 2 3 
6337 5 0.810601 0.481463 0.0227738 7 -1 4 
7770 6 0.326056 0.491482 0.0259904 2 2 1 
6730 5 0.378509 0.51946 0.00629834 2 1 1 
5747 5 0.429678 0.465198 0.996899 -2 4 -3 
7079 5 0.747568 0.446725 0.0292119 -4 -4 0 
5080 6 0.756544 0.446709 0.011036 0 -8 1 
5158 6 0.385804 0.46758 0.0532617 -2 0 4 
7561 6 0.607541 0.545026 0.975815 -3 -3 -1 
6713 6 0.181188 0.570226 0.971186 0 -1 -2 
6653 6 0.56608 0.545768 0.0242615 -13 -6 5 
7141 6 0.00470468 0.568272 0.0226295 0 1 7 
5309 6 0.635939 0.590293 0.00491442 2 -1 7 
6163 5 0.853297 0.572592 0.0386736 0 9 -7 
6466 6 0.568004 0.663513 0.998569 0 0 8 
6314 5 0.839414 0.575538 -0.000180651 -4 1 -1 
8614 5 0.956209 0.559162 0.0380887 2 -4 7 
6038 6 0.654448 0.647682 0.0370724 0 1 -1 
7847 6 0.957512 0.701639 0.0481453 -8 -3 -6 
5008 5 0.457235 0.719557 0.993105 4 -1 -4 
7531 5 0.515319 0.829411 0.0397991 0 -2 2 
5415 6 0.614803 0.773901 0.01129 -2 2 -2 
5417 6 0.958499 0.777506 0.00308662 -4 -9 -1 
6692 6 0.772881 0.808332 0.0391837 1 4 -1 
5683 5 0.945438 0.789728 0.0154123 2 -6 2 
7959 5 0.169401 0.782583 0.997317 1 0 0 
7921 5 0.451609 0.808364 0.0204902 -6 -5 1 
7468 6 0.418292 0.858351 0.0213618 -1 6 6 
7362 6 0.565481 0.873225 0.991656 1 3 -2 
6523 6 0.70609 0.853217 0.00651007 -6 -1 -1 
8067 6 0.365694 0.885757 0.0188838 -9 -10 -3 
6266 6 0.725575 0.856637 0.00478668 -5 -4 4 
7334 5 0.393663 0.952063 0.0341167 -8 3 -3 
6495 6 0.34685 0.872855 0.981582 0 3 8 
8866 5 0.100015 0.928285 0.0147392 -9 -4 2 
8942 6 0.593143 0.949418 0.00412249 -1 -6 4 
8380 5 0.697142 0.987653 0.0166565 0 3 3 
8916 5 0.282036 0.975533 0.00862655 -1 10 -11 
5280 5 0.0494585 0.0480658 0.0285078 -3 -3 4 
6717 5 0.00120517 0.0415342 0.0321033 -1 -1 -5 
8047 6 0.275247 0.00416541 0.0333178 1 -4 -8 
5381 6 0.578726 0.0413531 0.0253432 -11 0 -2 
8018 6 0.660267 0.0508476 0.032997 -8 -2 3 
5305 5 0.193636 0.0965221 0.0596221 4 -5 6 
5429 5 0.81123 0.0714114 0.0435759 0 -3 4 
7877 6 0.689095 0.097285 0.0155791 -1 6 -7 
6521 6 0.935787 0.0898015 0.0768486 2 -1 0 
6002 6 0.913046 0.113673 0.0414023 -1 -7 -4 
6301 5 0.937609 0.0984752 0.0160788 -6 9 6 
8984 6 0.360221 0.14378 0.011444 -4 4 4 
6552 6 0.290107 0.140507 0.0386282 1 4 5 
8778 6 0.419373 0.161956 0.0320532 -2 8 2 
6878 5 0.693502 0.156452 0.0292312 3 -4 0 
5739 6 0.915746 0.19244 0.0553789 5 2 4 
6461 5 0.180361 0.167879 0.0570745 0 -6 5 
5897 6 0.192329 0.213501 0.0185325 -2 -1 -1 
8216 5 0.143356 0.229458 0.0423573 0 -6 -1 
7209 6 0.212442 0.210951 0.0165843 -2 -4 5 
6283 6 0.637349 0.223206 0.00488096 -5 2 -4 
5820 5 0.699086 0.250272 0.0333812 3 0 -4 
8502 6 0.797823 0.228404 0.0570947 1 -4 3 
6041 5 0.807611 0.230568 0.0373209 -5 -10 -5 
6218 6 0.898843 0.216947 0.0460203 -12 4 -3 
7624 5 0.832201 0.251621 0.0201364 -1 4 4 
5602 6 0.0217548 0.27098 0.992168 3 -3 3 
8622 6 0.320161 0.303978 0.0720729 -9 -6 3 
7782 5 0.207805 0.340856 0.0372943 -2 -1 1 
5174 6 0.655067 0.33357 0.0154677 -6 -8 7 
7238 6 0.708244 0.347934 0.0443557 -4 4 3 
5556 6 0.303149 0.358994 0.0199236 -4 6 9 
6776 6 0.883888 0.359322 0.9996 3 0 -6 
6390 5 0.24193 0.422821 0.0496155 -4 1 -4 
5630 6 0.29218 0.413163 0.00429806 12 4 3 
7621 5 0.447341 0.395336 0.0385816 7 -8 0 
5711 6 0.863321 0.415297 0.0244364 -2 10 1 
8890 5 0.142275 0.384082 0.00160769 5 11 -1 
7575 5 0.152422 0.436796 0.0457401 10 -7 -7 
8864 5 0.573173 0.438875 0.0338052 7 8 3 
5259 5 0.278115 0.528449 0.0104677 -2 2 -5 
5755 6 0.326493 0.472836 0.0462288 1 5 -5 
5238 6 0.426989 0.500242 0.0186494 1 9 0 
7062 6 0.792731 0.567028 0.0616304 -3 -2 8 
8554 6 0.320173 0.556366 0.0537537 -2 4 1 
7805 5 0.550102 0.556463 0.0329712 1 -1 5 
8160 6 0.686938 0.535275 0.0177993 6 14 -3 
7423 5 0.744264 0.54879 0.0167782 -6 11 -1 
6989 6 0.162905 0.55809 0.022764 -2 -5 -3 
8249 6 0.895032 0.568382 0.0508161 3 0 -1 
5860 5 0.193155 0.605978 0.0148254 -6 6 -4 
8652 6 0.708367 0.562355 0.0655395 -3 -2 4 
7896 5 0.251838 0.614581 0.0202265 -1 0 -1 
8471 6 0.596432 0.626027 0.995358 -4 -9 -2 
8808 6 0.474776 0.651881 0.0385286 -2 -4 0 
6617 6 0.681395 0.643432 0.0369548 -3 7 2 
5760 6 0.871801 0.628842 0.0485245 -1 8 -5 
8397 5 0.173376 0.657206 0.0147082 0 -3 4 
6600 6 0.278914 0.675118 0.0186875 -3 7 -4 
7517 6 0.891693 0.663838 0.0499301 2 5 10 
8065 6 0.956427 0.664762 0.0115122 -3 2 -5 
6351 6 0.237143 0.689498 0.0322146 4 -1 1 
8151 5 0.653956 0.717937 0.0395219 -5 0 -5 
5658 5 0.530933 0.714676 0.0359337 3 -5 2 
6564 6 0.812013 0.701169 0.0297293 -5 6 -8 
7532 5 0.3926 0.759619 0.0191766 6 0 10 
6605 5 0.531973 0.777576 0.0334298 -3 -4 -1 
8271 6 0.646036 0.780325 0.054872 -1 4 -5 
6440 6 0.0968891 0.789354 0.0204073 4 1 3 
6418 6 0.264067 0.803042 0.0369163 -10 10 1 
8154 6 0.329952 0.826408 0.0334792 0 -3 3 
5838 5 0.998648 0.810959 0.0421739 1 -5 -4 
5457 6 0.976679 0.864388 0.0202537 -3 2 0 
7706 6 0.171319 0.851086 0.0428676 -1 -2 5 
7690 5 0.378007 0.895016 0.0441131 2 -5 -10 
5051 6 0.880195 0.872109 0.0512655 4 10 -2 
6936 5 0.298007 0.916136 0.0541937 2 -7 -1 
7965 6 0.29859 0.901531 0.0398574 4 3 0 
8527 6 0.217464 0.925781 0.039429 1 -8 4 
6632 6 0.0415188 0.995896 0.0186071 2 0 7 
8692 6 0.265026 -0.000747006 0.0504657 12 -7 -4 
6354 5 0.155544 0.990423 0.100574 -3 6 -1 
5643 6 0.444137 0.972539 0.0415372 7 -5 -3 
7792 6 0.678523 0.988359 0.00705614 7 -3 -6 
6196 5 0.93968 0.0220597 0.0608748 6 7 7 
5534 5 0.506201 0.0410018 0.026886 3 2 5 
7401 6 0.549308 0.0770507 0.0544278 4 2 3 
7314 6 0.635719 0.0911515 0.0432784 -7 3 -7 
6246 6 0.0739613 0.106329 0.11084 0 5 -3 
8087 6 0.195617 0.145588 0.0751619 -4 0 -6 
8694 6 0.199645 0.112995 0.0585147 -3 -1 -1 
5030 5 0.357904 0.166439 0.116234 8 -11 -5 
6765 5 0.355952 0.203349 0.0265927 -2 -1 1 
8402 6 0.522915 0.16956 0.0573091 1 0 0 
5826 5 0.0512014 0.252463 0.0488127 -5 4 11 
8329 5 0.499126 0.263028 0.0704809 5 -1 -4 
6028 6 0.304992 0.289167 0.0715738 1 1 5 
7286 5 0.74668 0.27076 0.064736 -5 -9 4 
6574 6 0.106007 0.306009 0.0580806 -6 7 -4 
5254 6 0.201424 0.374454 0.0540298 -6 5 -1 
6229 5 0.423625 0.308003 0.0735282 4 0 -8 
8737 5 0.187898 0.332297 0.00637558 11 -11 5 
8029 5 0.88973 0.355326 0.0507763 -3 -1 7 
8196 5 0.00804897 0.390504 0.082595 2 9 8 
8772 6 0.597359 0.389871 0.0697315 -4 9 4 
5617 6 0.085151 0.415603 0.0703018 3 2 -3 
7956 6 0.513813 0.435822 0.0664404 5 -1 5 
7262 6 0.910422 0.376584 0.0721721 -7 -4 1 
6437 6 0.967422 0.424613 0.0419464 1 -2 2 
6432 6 0.445461 0.448022 0.050014 8 4 1 
7548 5 0.682951 0.428692 0.0130348 -10 3 7 
7266 6 0.99167 0.442886 0.098769 -13 -1 5 
8068 6 0.37588 0.492128 0.070721 4 -2 4 
7252 5 0.583651 0.475985 0.0759548 4 -2 2 
8643 6 0.14444 0.548007 0.0685568 -3 4 3 
5576 5 0.651003 0.51836 0.0696232 -4 1 2 
8642 6 0.991952 0.535297 0.0877172 -2 3 8 
5598 6 0.753866 0.525474 0.0482185 -1 -7 9 
5593 5 0.896033 0.517446 0.0791142 -1 2 1 
6417 5 0.850984 0.592564 0.0546285 -5 5 2 
5119 6 0.407801 0.653934 0.0247855 4 0 -3 
5662 5 0.5941 0.616268 0.0620504 -6 0 7 
7784 5 0.0383308 0.648247 0.062485 4 -4 -3 
6191 6 0.0895994 0.613208 0.0697715 2 -3 -1 
8247 6 0.749161 0.595509 0.0584035 -1 5 4 
8807 6 0.836827 0.646575 0.0393876 -2 -2 -6 
7190 5 0.183661 0.713538 0.0350594 3 4 -13 
8926 5 0.812767 0.719152 0.0726387 0 -1 -5 
8563 5 0.170203 0.758371 0.070306 2 2 0 
6025 6 0.17752 0.820682 0.055233 4 4 0 
8333 5 0.203669 0.80042 0.0471651 -8 1 -5 
5929 5 0.443168 0.790074 0.107029 -3 -1 2 
7633 6 0.684508 0.762224 0.0689402 -5 3 -2 
6804 5 0.0436937 0.762137 0.0779453 -2 -6 -2 
7432 6 0.051708 0.816623 0.0958556 -1 0 2 
7386 5 0.0717673 0.802354 0.0482141 0 8 -9 
7593 5 0.171971 0.835042 0.0762733 -6 5 -1 
8863 6 0.216149 0.839768 0.0513737 -2 1 -7 
6490 5 0.292318 0.810469 0.0253019 2 -6 -6 
6774 6 0.445442 0.818548 0.101649 5 -1 -1 
6867 5 0.648789 0.805114 0.0703276 -2 -3 3 
6685 6 0.812173 0.845567 0.0414812 -2 -3 -1 
6228 6 0.169109 0.917921 0.0501006 6 8 -7 
5508 6 0.557055 0.882418 0.0658046 3 6 3 
8242 6 0.716272 0.93785 0.111774 5 -3 3 
8820 6 0.908222 0.914414 0.0556023 0 0 -6 
7444 6 0.280334 0.928275 0.0454459 7 -7 -4 
5648 6 0.262935 0.962216 0.0530696 2 -4 -7 
6901 5 0.409797 0.967785 0.0813291 -8 1 -1 
5343 6 0.800786 0.905847 0.054991 -3 9 0 
6353 6 0.601126 0.950753 0.0981647 10 3 0 
6343 5 0.601192 0.979815 0.0778364 1 4 5 
8118 5 0.214416 0.000921386 0.10831 -1 5 -5 
6633 6 0.222996 0.0177971 0.0706022 -2 -2 -1 
7338 6 0.419535 0.963456 0.049575 0 0 -2 
8730 6 0.593666 0.0287862 0.106064 -3 3 2 
7846 6 0.579265 0.0319926 0.0590345 5 14 -3 
6732 5 0.619943 0.0612113 0.0736902 1 -5 0 
8178 6 0.990889 0.0889741 0.0824947 3 -2 -8 
5317 5 0.717705 0.121414 0.100688 -6 0 10 
5277 5 0.654029 0.131125 0.0793613 0 -3 -4 
7639 6 0.826208 0.167383 0.0917284 2 5 0 
8318 5 0.728687 0.171023 0.074923 -8 -4 -5 
6146 6 0.00147496 0.238096 0.0635954 5 4 1 
5479 5 0.444984 0.208674 0.110056 -1 8 1 
5721 5 0.0821832 0.243191 0.14209 -5 1 0 
8875 6 0.766421 0.237731 0.0737017 3 -1 11 
6365 6 0.0700454 0.273851 0.119287 -6 4 -8 
6798 6 0.840283 0.311493 0.0658251 -2 5 6 
7191 5 0.196673 0.360882 0.092624 6 4 1 
7577 6 0.564248 0.316821 0.0981625 -1 7 -1 
6072 5 0.589831 0.326233 0.0684407 -2 0 -1 
8761 5 0.580592 0.39808 0.0788079 4 -2 7 
7101 6 0.623077 0.445545 0.0297477 4 -4 1 
5772 5 0.317048 0.484522 0.0733962 3 3 2 
6481 5 0.601166 0.493344 0.0720867 9 -1 10 
5553 5 0.744678 0.465347 0.0917258 1 -9 8 
8725 6 0.945695 0.537291 0.0553701 0 2 6 
5765 6 0.465397 0.5314 0.0760159 -3 -1 2 
7520 5 0.539826 0.569378 0.0865159 0 4 7 
7057 6 0.578799 0.561384 0.0958179 1 4 -1 
6709 6 0.332186 0.580005 0.116496 0 -2 -3 
7044 5 0.584512 0.554808 0.0518219 9 2 7 
6239 6 0.745512 0.579804 0.120588 8 5 0 
7470 6 0.785276 0.572293 0.101039 -3 -1 1 
7050 5 0.898309 0.61931 0.0750992 -1 5 5 
7637 6 0.962332 0.610188 0.0734863 0 -10 13 
5684 6 0.807574 0.643318 0.0852307 -7 1 0 
6686 6 0.999741 0.668514 0.0648567 1 -3 -5 
8229 5 0.0276019 0.673995 0.0795763 -3 1 -4 
5349 5 0.251498 0.695213 0.0943932 7 -2 -12 
8351 6 0.779323 0.699348 0.106249 2 -2 1 
8000 6 0.521137 0.6918 0.10189 8 2 4 
5037 6 0.944309 0.662331 0.0905435 -6 -1 -1 
7527 5 0.680423 0.751427 0.0845434 2 2 0 
7315 6 0.179086 0.734113 0.0957137 -1 8 4 
8190 5 0.281175 0.73228 0.068116 -1 8 5 
6103 6 0.293369 0.850458 0.0956093 2 4 3 
7941 6 0.638613 0.783095 0.095211 -10 7 0 
6500 6 0.071877 0.821896 0.0685911 2 2 0 
5654 5 0.471627 0.820081 0.0939678 6 -6 -2 
8757 6 0.803695 0.821547 0.0972279 -5 7 1 
7370 6 0.862293 0.822125 0.0610191 3 -3 -8 
6161 6 0.25207 0.848267 0.0693336 3 6 5 
6729 5 0.836814 0.851756 0.105058 2 -2 -5 
8549 5 0.0169061 0.882226 0.0883504 4 1 -5 
7355 5 0.742511 0.869069 0.0795868 3 3 6 
6121 5 0.857076 0.852437 0.120255 2 0 2 
6818 5 0.125359 0.873972 0.0640024 -1 -1 0 
5609 5 0.319801 0.876401 0.0948729 5 -2 -3 
6347 6 0.701268 0.902383 0.0855116 -4 3 -4 
6788 6 0.884107 0.920362 0.0850979 -8 1 -4 
8945 6 0.35045 0.921962 0.0949302 1 -8 -3 
5685 5 0.932879 0.931753 0.126492 1 1 -11 
6043 5 0.132931 0.963608 0.0770141 -1 -10 4 
7319 5 0.277356 0.993792 0.143428 -3 0 -2 
5396 6 0.295925 0.0458297 0.095693 -3 0 -4 
5829 6 0.194706 0.0575237 0.115167 0 1 0 
7322 6 0.856095 0.0670202 0.0639172 1 3 3 
8965 6 0.937395 0.0658234 0.0719801 4 -3 5 
7891 6 0.979549 0.0774763 0.0863679 -12 -7 1 
5771 6 0.705166 0.118201 0.0743997 0 -2 -3 
8603 6 0.939868 0.102936 0.0958354 -4 1 5 
5131 6 0.245932 0.140491 0.0714775 -2 4 -1 
7046 5 0.635038 0.143298 0.0755483 -1 11 0 
8115 6 0.873542 0.15605 0.100453 2 -1 -2 
7031 6 0.893453 0.142271 0.0598917 -6 1 7 
5541 6 0.407701 0.134457 0.1024 5 -4 -2 
8281 6 0.496103 0.157327 0.10673 0 2 1 
7222 5 0.566517 0.177221 0.0790271 0 4 1 
7719 5 0.748044 0.176331 0.0923206 7 3 7 
5548 5 0.826056 0.196802 0.12305 -2 2 6 
6144 6 0.473397 0.200414 0.0959991 -1 3 2 
5070 6 0.248225 0.210078 0.0926716 2 -2 7 
8968 5 0.759528 0.21177 0.158106 -4 0 0 
6554 5 0.922395 0.204394 0.112318 8 -3 -7 
8369 6 0.212645 0.243271 0.0970582 -4 5 -3 
5206 5 0.105486 0.268426 0.10852 -2 6 4 
6900 6 0.257729 0.262499 0.139251 -4 7 -4 
5433 6 0.280656 0.246965 0.106281 2 -2 8 
8386 6 0.452212 0.269705 0.0872704 1 3 -2 
6597 6 0.0877685 0.275828 0.0988904 -5 2 -5 
5932 5 0.604937 0.267815 0.123484 11 -2 2 
8621 5 0.964027 0.269613 0.124242 4 8 5 
5707 5 0.498751 0.373143 0.0847944 6 4 -2 
5756 6 0.752138 0.34745 0.103225 -2 3 13 
6803 6 0.925132 0.367554 0.085176 2 -4 -2 
7029 5 0.244978 0.389248 0.0959035 1 2 -6 
6349 6 0.372423 0.392582 0.139204 -4 1 -8 
6928 6 0.585734 0.419357 0.0798804 -3 -1 -5 
8440 5 0.684524 0.465526 0.126556 -7 -6 -5 
6505 5 0.846974 0.424654 0.0810137 2 10 2 
6990 6 0.250835 0.45541 0.0890619 4 -2 -3 
5714 5 0.406649 0.455628 0.102907 1 3 -6 
8519 6 0.318602 0.486199 0.0857671 10 -2 8 
5110 6 0.359356 0.465717 0.106201 -3 -5 -2 
7137 5 0.767498 0.442815 0.0987339 -1 -6 -2 
5278 5 0.042392 0.436968 0.104768 3 -6 1 
7247 5 0.321735 0.480925 0.0985877 0 3 9 
7885 6 0.381741 0.527411 0.0966807 6 -9 -11 
5824 5 0.189554 0.596422 0.0702153 -2 1 9 
6411 6 0.414351 0.528023 0.0765845 0 0 -3 
7743 6 0.0451179 0.668043 0.0531969 6 0 6 
8598 5 0.126827 0.698384 0.0692334 3 0 2 
6407 6 0.0842527 0.712444 0.10486 3 -7 10 
7054 5 0.516724 0.670698 0.106964 -4 11 3 
5264 6 0.690342 0.673483 0.133864 -1 8 -11 
5591 6 0.707186 0.680099 0.0811523 -5 -4 2 
7533 5 0.434696 0.685461 0.099855 8 -5 3 
8394 5 0.0696828 0.728444 0.08411 8 -6 0 
6063 5 0.469023 0.673377 0.109763 -6 -5 -4 
8657 5 0.0904097 0.80781 0.0871387 1 1 4 
8982 6 0.594481 0.812068 0.069055 -6 0 -4 
7280 6 0.491548 0.848207 0.120114 1 9 3 
7750 6 0.867265 0.81483 0.107259 2 3 0 
8576 5 0.979918 0.829145 0.110551 -11 0 1 
5752 5 0.965288 0.88235 0.117132 1 -5 -5 
5944 6 0.338879 0.920857 0.1372 7 -3 3 
7375 5 0.590911 0.937548 0.0541338 10 0 3 
5780 5 0.706369 0.988406 0.0888346 0 3 6 
5011 5 0.183685 0.966389 0.0936989 2 10 4 
8264 5 0.479844 0.9819 0.0838854 -4 7 0 
6943 5 0.00398863 0.00447042 0.109751 0 1 5 
6757 5 0.374758 0.00449483 0.133309 0 2 0 
7536 5 0.69493 0.0206472 0.122336 1 3 3 
7253 5 0.85886 0.041061 0.121414 2 -3 9 
6223 6 0.918405 0.0567609 0.131358 5 2 -3 
5496 5 0.937944 0.0145575 0.144579 5 5 -1 
8528 6 0.147979 0.0412005 0.129932 0 1 -1 
8582 6 0.244516 0.0491414 0.157578 -3 4 -5 
7162 5 0.62826 0.0594706 0.105005 -5 2 1 
6996 5 0.2501 0.0832517 0.131427 -2 -2 -2 
5874 5 0.775036 0.0818909 0.089963 11 4 -5 
8210 6 0.878478 0.138615 0.130686 0 0 5 
5078 5 0.450322 0.0987799 0.122999 6 -3 -6 
6529 6 0.752974 0.123154 0.127896 -4 1 0 
5535 5 0.952425 0.109263 0.132055 -7 -1 -1 
8307 5 0.237093 0.132365 0.0767907 5 9 -1 
8855 6 0.343605 0.213358 0.134699 -1 8 -2 
6001 5 0.549317 0.222588 0.123323 5 3 -3 
6742 5 0.646322 0.203232 0.125922 3 1 0 
7488 6 0.767285 0.190497 0.119805 -2 0 -3 
5093 5 0.116964 0.265118 0.128944 0 3 -1 
6328 6 0.903217 0.230143 0.134408 2 -4 0 
5976 5 0.665204 0.257695 0.141438 4 6 1 
6581 6 0.227292 0.301034 0.121479 2 -4 0 
8962 6 0.279471 0.30005 0.122175 -3 -3 3 
5889 5 0.490493 0.318236 0.143105 -1 -4 9 
6542 6 0.843361 0.337241 0.127276 2 -1 -5 
6565 5 0.840432 0.366539 0.104555 2 6 -3 
7990 5 0.610775 0.372071 0.181468 -5 1 1 
5927 6 0.824846 0.377967 0.152644 -8 4 3 
8023 5 0.406453 0.449164 0.123371 -4 3 -1 
6174 6 0.381649 0.424179 0.129295 -3 -8 -2 
8304 5 0.197313 0.42886 0.15459 -5 -4 -3 
6416 6 0.149637 0.498556 0.129479 4 1 7 
7316 6 0.677322 0.466043 0.0923807 -2 -3 -1 
5910 5 0.93786 0.433666 0.100492 1 -5 0 
8911 5 0.00593842 0.487877 0.153736 -1 -3 1 
6899 5 0.906696 0.511017 0.128826 2 8 -3 
8738 5 0.107929 0.533943 0.118891 -4 -2 -6 
8860 5 0.270975 0.523306 0.134033 -7 4 8 
8498 5 0.644205 0.563539 0.0899186 0 1 -5 
6896 5 0.86272 0.532038 0.130933 -1 -4 -4 
6645 6 0.23855 0.564897 0.114378 -6 5 2 
7235 5 0.0732353 0.56816 0.107277 2 -4 8 
5335 5 0.339676 0.603139 0.13749 -12 -4 -6 
7762 6 0.560032 0.595965 0.134815 2 4 1 
5883 6 0.315865 0.600019 0.127606 3 0 7 
6080 5 0.873287 0.622357 0.139109 -2 -1 -5 
5198 5 0.159254 0.60483 0.11349 8 0 -8 
7038 6 0.728414 0.631696 0.135384 6 8 -2 
8947 6 0.973591 0.645311 0.131332 1 -2 2 
8666 6 0.400796 0.691449 0.118252 -2 -2 0 
8487 6 0.949539 0.708373 0.138134 2 10 6 
6848 5 0.287682 0.694768 0.131151 2 -7 8 
6736 6 0.564266 0.718994 0.103869 5 2 10 
5936 6 0.657131 0.730269 0.14724 -3 3 3 
7154 6 0.860483 0.683848 0.159066 1 -6 5 
8705 5 0.52539 0.769094 0.126116 -5 -4 -1 
7493 5 0.0879285 0.73797 0.131953 2 -5 3 
5502 5 0.263423 0.717904 0.149177 1 -2 4 
6302 6 0.518727 0.783038 0.120592 1 -4 3 
8049 6 0.534945 0.807352 0.13237 -5 -1 0 
6114 6 0.826288 0.745798 0.131868 -5 5 -2 
8846 5 0.907135 0.79823 0.131922 9 -7 1 
7767 6 0.595295 0.849032 0.12656 -5 0 2 
8286 6 0.80912 0.882414 0.0973605 -4 -6 -5 
8606 6 0.104079 0.914394 0.110062 -1 -2 -1 
7778 6 0.610846 0.881098 0.126766 -2 3 -5 
7412 5 0.588043 0.889448 0.123674 -9 4 10 
7942 6 0.797196 0.906379 0.143612 -1 0 1 
5047 6 0.154139 0.934648 0.131848 6 5 1 
7893 5 0.0518422 0.932928 0.103757 -2 7 -2 
7908 6 0.777717 0.935053 0.118718 -2 -4 4 
8234 5 0.600288 0.93373 0.141418 12 3 1 
6094 5 0.713914 0.992046 0.155202 0 -8 -1 
6217 6 0.157142 0.014908 0.14041 5 4 5 
7675 6 0.5277 0.00694024 0.147625 -2 -2 2 
7708 6 0.766766 0.017595 0.0891811 4 3 10 
8220 5 0.541948 0.0472063 0.106022 2 0 7 
7033 6 0.133028 0.086416 0.124886 1 -1 1 
7341 6 0.707801 0.0746796 0.155316 0 2 -1 
5180 5 0.26571 0.16237 0.131196 -1 9 5 
5880 5 0.372102 0.102421 0.152178 -6 2 1 
5992 5 0.726622 0.130883 0.137566 -2 7 -3 
5434 6 0.749241 0.147923 0.160414 0 1 -3 
7110 6 0.593845 0.130834 0.137748 -3 -1 -2 
7424 5 0.61292 0.184604 0.148711 -1 5 4 
5161 5 0.771139 0.183324 0.134759 8 -1 0 
8671 5 0.223617 0.179962 0.113748 4 -2 -3 
6578 6 0.856904 0.235708 0.123457 -4 -2 4 
5650 6 0.973261 0.196954 0.128679 2 -3 -3 
7693 5 0.138168 0.2001 0.166442 6 -3 -3 
5731 6 0.870826 0.21275 0.164577 1 -2 4 
5894 6 0.359579 0.278866 0.169657 1 1 -5 
8751 5 0.709492 0.2322 0.120768 -6 -1 3 
5592 6 0.86256 0.234157 0.146762 0 7 -1 
7541 5 0.947087 0.265539 0.140182 3 3 -1 
6057 6 0.0246868 0.30228 0.117319 -3 0 2 
5579 5 0.258215 0.255889 0.132044 -9 4 1 
8949 5 0.375106 0.259979 0.145431 0 10 -3 
7482 5 0.358456 0.257298 0.179741 -11 7 4 
7946 5 0.562959 0.319761 0.153842 -3 0 7 
5160 6 0.724355 0.297005 0.130959 1 -2 2 
5600 6 0.822167 0.321235 0.146608 2 6 0 
8445 5 0.302547 0.282597 0.160942 1 -5 -3 
6690 5 0.648465 0.346293 0.144126 2 4 0 
5705 5 0.795908 0.326185 0.139735 3 -1 1 
7501 6 0.864571 0.326874 0.165287 -5 -3 7 
7545 6 0.905695 0.313221 0.147347 6 -2 0 
7850 6 0.863604 0.361282 0.152916 4 7 -2 
5568 6 0.229975 0.369373 0.160623 2 3 -3 
6748 5 0.310887 0.370748 0.152142 0 -1 -4 
5202 6 0.506615 0.377919 0.179308 2 -3 7 
7869 5 0.692055 0.40608 0.176026 3 0 -2 
5865 5 0.921162 0.389841 0.150081 5 12 7 
5854 6 0.482534 0.383874 0.127435 2 5 -9 
6458 6 0.620067 0.393277 0.149648 6 -4 11 
5220 5 0.950149 0.432297 0.135518 0 -4 -1 
8185 6 0.265255 0.473638 0.137449 -1 -5 1 
8809 6 0.391876 0.485015 0.110814 10 1 3 
7145 6 0.63602 0.45979 0.158433 -6 -2 1 
8293 6 0.0854267 0.467326 0.143707 5 3 -3 
6049 5 0.175857 0.497104 0.176472 5 2 0 
7028 5 0.174243 0.495886 0.135371 -1 7 9 
5998 5 0.359846 0.51963 0.131334 8 -7 -2 
5096 6 0.171407 0.490133 0.196408 9 -7 -4 
6265 5 0.650152 0.556725 0.149065 -5 -5 0 
6646 5 0.677996 0.561924 0.170715 -4 -4 5 
6967 6 0.814269 0.509787 0.151804 5 0 -11 
7066 6 0.201106 0.57427 0.126622 6 -3 -3 
6279 6 0.377217 0.5221 0.156843 4 1 5 
5368 6 0.443579 0.565176 0.170624 4 -1 4 
6099 5 0.0365017 0.59975 0.179465 7 2 -6 
8120 5 0.0625163 0.575779 0.143881 5 2 -4 
6210 5 0.470727 0.618666 0.131915 1 2 -2 
5171 5 0.168389 0.608735 0.157129 -9 5 1 
5027 6 0.321187 0.575834 0.125436 -3 6 5 
7654 6 0.619727 0.653596 0.171513 -2 -6 8 
6858 6 0.827788 0.601609 0.151156 -3 2 -1 
6475 5 0.246979 0.648624 0.11014 0 4 -4 
8105 5 0.65463 0.680585 0.174047 -3 -5 0 
5533 6 0.560687 0.687772 0.158364 -9 -7 2 
6039 5 0.212653 0.717302 0.128825 7 5 -8 
5040 6 0.646954 0.73223 0.123064 2 2 3 
5296 5 0.66795 0.725525 0.15574 0 -6 -2 
5633 5 0.135025 0.744027 0.120125 4 4 6 
7192 6 0.207681 0.707489 0.148511 -1 -1 -1 
5286 6 0.256312 0.737593 0.16428 0 0 4 
8360 5 0.158238 0.784489 0.1804 0 -6 -3 
8279 5 0.309541 0.763609 0.196096 2 -5 2 
6219 6 0.676101 0.796307 0.126341 0 6 -5 
5563 5 0.901148 0.780986 0.147024 -9 -4 -1 
8917 5 0.854297 0.809849 0.169873 3 -5 -2 
8102 6 0.909898 0.779677 0.167772 -6 0 0 
7582 5 0.62433 0.845011 0.142294 -10 1 2 
6021 6 0.75878 0.822029 0.147566 3 -2 1 
5195 6 0.0661685 0.848803 0.125652 -6 -1 0 
8620 5 0.330893 0.916875 0.172223 -4 0 2 
5458 6 0.920548 0.879233 0.154273 6 -4 -8 
6471 5 0.185956 0.86238 0.157843 -1 0 0 
5054 5 0.288425 0.948975 0.110956 1 2 4 
7260 5 0.839428 0.916252 0.162818 0 -3 -3 
6975 5 0.369849 0.941098 0.139406 1 1 3 
7716 6 0.844414 0.917109 0.171562 0 4 -5 
6272 5 0.999053 0.931984 0.190601 -1 2 3 
8804 6 0.239424 0.92858 0.124334 4 -2 3 
5953 5 0.451678 0.947945 0.126335 5 -3 -1 
8963 5 0.803896 0.948935 0.177718 -1 -16 -1 
5354 5 0.0725969 0.00689453 0.141958 -3 -1 -4 
5061 6 0.048434 0.00171688 0.114998 -2 2 -3 
8623 5 0.124187 0.0115856 0.138586 5 4 -3 
6493 6 0.324209 0.014125 0.192065 1 -3 5 
6019 6 0.548537 0.990965 0.118297 -2 -6 3 
8213 5 0.656884 0.00636658 0.157346 5 9 -2 
7912 5 0.846793 0.0280571 0.185459 1 -2 3 
6453 6 0.4893 0.0463329 0.174082 3 9 -2 
8466 5 0.106307 0.0340436 0.20739 -7 1 -7 
8292 5 0.126151 0.0662023 0.157577 1 6 -5 
5941 5 0.512239 0.0354783 0.197791 -7 -1 -3 
7907 5 0.0715062 0.119151 0.166451 3 5 -5 
8365 6 0.52194 0.102858 0.161841 3 0 3 
6200 6 0.68629 0.0803361 0.169019 -1 -1 0 
6404 6 0.518612 0.0917366 0.18273 -3 0 7 
5351 5 0.601329 0.123091 0.159224 0 -2 5 
8482 6 0.0473049 0.14892 0.174376 2 6 -6 
8450 6 0.293034 0.150691 0.189611 1 -4 2 
5641 5 0.606121 0.133168 0.166801 0 -1 5 
8384 6 0.928049 0.14694 0.171955 2 -5 -1 
7735 6 0.687192 0.199069 0.164897 -5 0 4 
7326 6 0.165388 0.235805 0.178715 -10 -16 0 
5623 6 0.730586 0.234157 0.16725 -4 4 0 
8983 6 0.835886 0.214427 0.17664 -6 1 2 
8797 5 0.90325 0.18641 0.193202 -5 3 1 
6443 6 0.317123 0.265736 0.156721 -2 -7 -5 
5002 6 0.461459 0.25742 0.167349 4 -2 0 
5103 5 0.73727 0.286121 0.180207 -6 -1 -5 
7179 5 0.790317 0.27377 0.136575 -2 -1 -3 
8228 6 0.194791 0.275938 0.186336 0 6 0 
6139 5 0.732248 0.283753 0.197025 -8 -1 4 
5250 5 0.24828 0.279432 0.165193 -6 4 11 
6514 6 0.272518 0.324159 0.187051 5 13 1 
5028 6 0.0444604 0.30376 0.174503 0 -5 -6 
8267 6 0.150693 0.317442 0.146831 5 4 -5 
5797 5 0.276445 0.317986 0.186874 -1 2 8 
6622 6 0.510143 0.304784 0.222493 -2 -2 4 
5763 6 0.714088 0.389154 0.177851 -7 1 3 
5032 6 0.0679298 0.387377 0.149727 1 -5 15 
7336 6 0.203051 0.390378 0.190361 10 -1 -1 
5971 6 0.39588 0.412366 0.180919 -4 6 5 
8971 6 0.972721 0.437492 0.13176 2 -5 7 
8884 6 0.492688 0.473307 0.163031 0 1 -7 
8050 5 0.226842 0.454591 0.173533 1 3 5 
7146 5 0.320472 0.472168 0.146713 -4 -3 -4 
5956 5 0.502261 0.515805 0.147387 0 -6 -5 
6016 6 0.519666 0.460076 0.19828 0 -1 -6 
7862 5 0.388604 0.479463 0.153843 1 1 0 
5827 6 0.827112 0.485753 0.206008 4 4 4 
5039 6 0.132438 0.554406 0.160044 6 2 0 
8493 5 0.24803 0.520521 0.168077 -6 0 -3 
6327 5 0.327855 0.518359 0.185471 0 0 -3 
6122 5 0.487265 0.517285 0.145841 -2 3 3 
7868 6 0.21412 0.539432 0.14383 5 -2 4 
8578 5 0.985391 0.513468 0.169797 4 -8 -2 
7997 5 0.414483 0.570085 0.173012 -4 5 3 
7130 6 0.31542 0.595057 0.147096 4 -1 -2 
7863 6 0.615053 0.587712 0.157844 3 2 -6 
8164 6 0.363686 0.631517 0.11346 -1 3 5 
5255 6 0.602214 0.586195 0.148373 -1 -3 1 
7013 5 0.733213 0.64627 0.144904 -4 -1 4 
5302 6 0.90657 0.650883 0.152076 0 3 -3 
7662 6 0.438099 0.661169 0.166309 -3 -2 4 
5407 6 0.532716 0.700321 0.192011 5 -7 0 
8379 5 0.994239 0.732134 0.208686 1 5 -1 
5443 6 0.202596 0.76212 0.155542 -7 -1 5 
6721 6 0.351106 0.704577 0.214946 8 -10 0 
6791 6 0.409153 0.759787 0.18081 -4 -1 -3 
6707 6 0.634324 0.746983 0.177304 -3 3 -1 
7839 6 0.303635 0.722966 0.133349 8 -1 -6 
7039 5 0.53165 0.79093 0.156211 8 3 5 
7149 6 0.889152 0.811257 0.186619 2 -2 1 
7617 6 0.689409 0.817128 0.180377 0 6 -1 
8765 5 0.361635 0.875595 0.199833 -1 -5 -4 
8706 6 0.457451 0.891356 0.173244 -8 -6 -4 
5491 5 0.589141 0.865808 0.1995 -2 -3 -8 
6392 6 0.174535 0.907312 0.188987 4 5 -5 
6802 5 0.338721 0.958534 0.156334 -1 0 3 
5626 5 0.634143 0.967716 0.170903 5 -4 1 
5213 5 0.718477 0.921836 0.175155 3 5 -3 
8741 6 0.0232057 0.992888 0.173372 -7 -4 -12 
6992 6 0.425947 0.93694 0.184763 3 12 3 
7052 5 0.839115 0.979227 0.176286 -5 1 -4 
6956 5 0.684656 0.965422 0.213252 -11 -10 -2 
8679 5 0.780119 0.00282949 0.202839 -6 3 11 
7484 6 0.470024 0.990868 0.252762 1 0 -3 
5719 6 0.614657 -0.000195986 0.22719 -3 3 -1 
5016 6 0.17248 0.000993172 0.2143 9 1 5 
7097 5 0.900546 0.045671 0.199944 -2 9 3 
6929 5 0.987715 0.0417285 0.185964 1 4 -1 
6515 6 0.0526365 0.0775505 0.197349 2 4 8 
7004 6 0.317054 0.0569418 0.209377 -1 1 4 
7670 6 0.374612 0.0342883 0.220885 1 2 -12 
7549 5 0.792604 0.0450455 0.211128 -1 8 3 
7590 6 0.0584691 0.0494289 0.184542 4 8 4 
8070 6 0.0393339 0.0772949 0.213673 0 4 3 
8532 6 0.467146 0.116542 0.177737 0 2 -2 
5792 6 0.783136 0.111585 0.184029 -1 0 2 
5700 5 0.372498 0.161288 0.212684 0 1 -5 
6915 6 0.487745 0.146311 0.189768 -6 6 -2 
6649 6 0.261438 0.191227 0.201797 -6 2 -1 
8131 6 0.675461 0.168866 0.177983 -3 5 -1 
5864 5 0.20001 0.198271 0.19086 -3 7 2 
8734 6 0.415268 0.185678 0.216351 5 1 -9 
6332 6 0.938959 0.21042 0.225062 1 -2 9 
5268 5 0.982474 0.188149 0.214781 -3 3 -2 
6766 6 0.979635 0.208922 0.185568 0 3 -6 
6009 6 0.415879 0.20465 0.214534 0 1 4 
6102 6 0.514417 0.219813 0.174127 0 2 1 
7112 6 0.641614 0.24092 0.183667 12 2 4 
7668 5 0.720874 0.228149 0.182637 8 -1 -2 
8999 6 0.69049 0.244136 0.166348 -9 1 -6 
7211 6 0.0107376 0.225268 0.158682 -4 -6 -1 
5569 5 0.78 0.286602 0.182545 -9 10 3 
6693 5 0.244818 0.30575 0.208049 4 0 6 
8133 6 0.322494 0.313742 0.20121 10 -1 -8 
8918 6 0.918714 0.274136 0.221671 0 1 -9 
8818 5 0.540726 0.283951 0.195516 -7 -1 2 
5786 5 0.880761 0.301097 0.242541 3 4 4 
8451 6 0.140617 0.347753 0.253236 0 11 -4 
5428 6 0.113341 0.362614 0.177885 -5 4 10 
7099 5 0.0438637 0.409516 0.193015 2 -2 4 
6126 5 0.0990985 0.363096 0.206219 -5 3 2 
5359 5 0.199571 0.395832 0.187568 1 5 -3 
6602 6 0.594255 0.410902 0.171225 -3 -4 -4 
5774 6 0.329378 0.423403 0.180807 0 9 -3 
5742 5 0.664172 0.406031 0.209307 -5 -7 -2 
5634 6 0.503179 0.467455 0.18539 0 2 0 
5270 5 0.614829 0.430964 0.190413 1 0 -2 
7442 5 0.798942 0.428471 0.229806 1 -8 -1 
8717 6 0.550426 0.52011 0.209239 -4 -4 1 
6620 6 0.0727166 0.522483 0.155992 -3 -6 0 
8541 6 0.194081 0.560485 0.181798 3 1 -3 
7724 6 0.465192 0.52711 0.191708 0 3 -1 
6639 6 0.703705 0.510009 0.21111 3 -1 2 
6276 6 0.0481371 0.570994 0.192866 7 -3 -2 
7634 5 0.196624 0.595194 0.195415 0 1 3 
8383 6 0.428544 0.598314 0.18971 -4 -2 5 
8204 6 0.577145 0.595089 0.211927 -4 -1 -10 
5409 5 0.765666 0.565511 0.216287 -3 -3 0 
5224 5 0.875009 0.573027 0.217238 1 4 0 
6779 6 0.265668 0.651483 0.176311 -2 -1 -3 
8744 5 0.658058 0.609498 0.142826 -2 -3 0 
8689 6 0.121598 0.676862 0.183251 3 -4 -8 
7707 6 0.946062 0.69726 0.207095 -1 2 2 
5741 6 0.956903 0.651773 0.219624 3 -3 -1 
5837 6 0.00524415 0.700505 0.177704 -3 -7 -1 
8636 6 0.736993 0.676507 0.160716 -3 -1 2 
7679 5 0.783868 0.714924 0.190642 5 1 -4 
5243 6 0.0153293 0.742364 0.216321 -1 -2 1 
5525 5 0.886043 0.74682 0.181951 0 -1 -4 
5392 5 0.203359 0.748746 0.189697 -1 5 1 
7979 6 0.242638 0.782365 0.206085 3 2 0 
7928 5 0.512474 0.819784 0.176382 -5 -2 5 
8414 5 0.666694 0.837976 0.183791 0 1 1 
6553 5 0.770383 0.820088 0.198979 -2 -2 -3 
7001 6 0.149781 0.852785 0.181079 -3 -1 -2 
7567 6 0.142468 0.932015 0.158427 3 -5 0 
7906 5 0.154145 0.913238 0.180579 -6 2 3 
5212 5 0.167822 0.887501 0.192879 -2 4 2 
6986 5 0.250829 0.905041 0.167417 4 3 -1 
5400 6 0.463819 0.905417 0.185665 -5 -3 10 
5708 5 0.903255 0.874941 0.217746 5 -2 -1 
7828 6 0.160872 0.876968 0.1756 2 -4 -4 
6375 5 0.184616 0.917058 0.216868 -7 -3 0 
7043 6 0.58973 0.924139 0.179108 10 4 -2 
5279 6 0.658767 0.876953 0.178915 -12 -3 -4 
5885 5 0.97759 0.928513 0.184422 1 -4 7 
7515 5 0.00365345 0.882696 0.239933 -1 0 1 
7203 5 -0.0003226 0.94362 0.207339 -2 -5 -2 
5900 5 0.0829043 0.95425 0.167593 -6 -7 10 
7631 6 0.284714 0.937113 0.211036 9 5 0 
5079 6 0.322692 0.977659 0.210922 -5 -2 -4 
8780 6 0.338192 0.0259688 0.236152 -5 0 13 
6623 5 0.783903 0.00709357 0.229534 3 0 11 
8539 6 0.625685 0.0238856 0.200418 1 2 -1 