ITEM: TIMESTEP
20000000
ITEM: NUMBER OF ATOMS
9000
ITEM: BOX BOUNDS pp pp pp
-75 75
-75 75
-75 75
ITEM: ATOMS id type xs ys zs ix iy iz 
5957 5 0.218322 0.0227215 0.970468 0 -3 -2 
6684 6 0.588214 0.043774 0.985138 0 1 -2 
5644 5 0.011123 0.0300352 0.0591755 1 2 -5 
5763 6 0.116654 0.036232 0.98944 -2 -2 -1 
5869 6 0.548857 0.0264614 0.0413447 0 2 5 
5418 6 0.115187 0.0360757 0.0339455 5 2 -6 
6110 6 0.124145 0.0700108 0.990413 -5 0 3 
8562 6 0.513529 0.0552468 0.0168343 -1 0 -5 
7459 6 0.623315 0.071146 0.0178848 1 4 0 
6357 6 0.668617 0.0961657 0.0106105 -2 -7 4 
7677 6 0.710798 0.0806878 0.00576432 -1 2 1 
7373 5 0.923806 0.0491397 0.0419956 0 0 2 
6694 5 0.0996121 0.0915079 0.019731 -4 -4 2 
6108 5 0.105622 0.0578254 0.0171004 -2 -1 3 
8572 6 0.939203 0.0289381 0.0442756 -1 3 6 
8747 6 0.0644932 0.12064 0.983718 2 -2 -1 
7419 6 0.403126 0.0912748 0.0275888 4 -1 0 
6057 6 0.828356 0.101839 0.0129081 2 -3 1 
5190 5 0.168711 0.177938 0.0286144 -1 -1 -4 
8410 5 0.48949 0.0993778 0.010049 -3 5 6 
7570 5 0.836658 0.123885 0.0227634 -1 -4 -3 
5079 5 0.85276 0.137602 0.0133927 1 0 1 
6712 5 0.948707 0.160838 0.00273933 -7 0 -1 
5410 6 0.338555 0.177748 -0.00114643 1 -2 -1 
6404 5 0.850406 0.178239 0.0349993 3 -1 0 
5107 6 0.171494 0.200641 0.993156 0 2 3 
8040 5 0.702342 0.173216 0.980002 -4 1 -2 
6762 6 0.481785 0.200665 0.0117604 -2 3 0 
7458 5 0.166915 0.225776 0.00201468 4 2 0 
6558 6 0.710854 0.239485 0.0293439 0 0 0 
5181 6 0.582699 0.291234 0.00969635 -1 -6 7 
5907 6 0.639386 0.30903 0.0283114 0 2 1 
8498 5 0.391465 0.297401 0.00696012 6 1 1 
6317 5 0.97348 0.340624 0.0130265 -2 -1 2 
7951 5 0.878161 0.329863 0.00629534 3 2 -2 
7684 5 0.961991 0.362618 0.0256394 -1 -3 -5 
8060 5 0.0636747 0.369414 0.00218659 4 1 0 
6628 6 0.427427 0.403 0.99539 0 4 -1 
7427 6 0.851568 0.328263 0.018718 -1 2 -3 
5936 6 0.196014 0.378438 -0.000959605 -3 0 1 
8994 6 0.160058 0.397302 0.0170859 -2 2 0 
8765 5 0.730802 0.371666 0.022196 -4 -3 5 
7106 6 0.860785 0.420498 0.00400558 2 -2 -5 
5110 5 0.963427 0.389739 0.0109294 0 -4 2 
8029 5 0.339548 0.420242 0.011013 1 -1 1 
5808 6 0.73032 0.413891 0.0427903 1 7 3 
5273 5 0.864763 0.446193 0.035395 2 4 -3 
6497 6 0.978256 0.458858 0.980721 -4 -2 0 
7139 6 0.231496 0.436152 0.995143 2 0 -4 
7634 5 0.449867 0.44341 0.00442035 3 1 4 
8641 5 0.798124 0.528363 0.988318 7 2 -1 
7197 6 0.534067 0.477629 0.0312752 -3 -1 0 
6262 5 0.292823 0.513629 0.0194785 -4 2 1 
8839 5 0.687862 0.549283 0.0115519 3 1 -2 
6322 6 0.94792 0.520676 0.981474 2 -2 0 
8130 6 0.0167627 0.589457 0.0258668 -1 -1 6 
5744 5 0.813717 0.626962 0.0282169 1 -1 0 
8315 5 0.960836 0.633941 0.971077 2 0 -1 
8858 5 0.264927 0.643247 0.988005 0 0 1 
6661 5 0.677781 0.636141 0.00777621 3 3 3 
7774 6 0.636392 0.658074 0.0562393 2 3 2 
8542 6 0.3025 0.663314 0.99259 3 0 -3 
8004 6 0.27179 0.680181 0.0083117 2 1 -1 
6510 6 0.3682 0.669322 0.0292161 -2 1 -1 
7965 6 0.772827 0.681541 0.995311 -1 1 -2 
5707 5 0.532432 0.733555 0.0421412 -2 0 3 
5911 6 0.523136 0.679852 0.0517478 -1 6 2 
8176 5 0.715211 0.736649 0.979979 3 -2 -2 
5496 5 0.884133 0.710454 -0.000938274 -1 -6 0 
8754 6 0.889237 0.795947 0.977176 -4 -2 0 
8143 6 0.652864 0.8335 0.992466 -1 3 -2 
6111 5 0.820318 0.829376 0.0053107 3 1 1 
6983 6 0.0322162 0.846886 0.0202065 2 -8 -4 
8537 5 0.179372 0.858046 0.0153245 3 2 -3 
8905 5 0.981702 0.828595 0.0269337 -4 -3 6 
6779 6 0.726089 0.896696 0.00368748 -4 2 7 
8188 5 0.79624 0.917554 0.0276754 -6 -1 -2 
6923 6 0.328161 0.898612 0.998429 -3 1 -1 
6234 6 0.927552 0.896023 0.99287 -1 0 -5 
5322 5 0.406163 0.90379 0.977634 -2 1 0 
6099 6 0.871217 0.933249 0.979348 0 -2 5 
5992 5 0.0071661 0.893802 0.00897813 2 5 4 
5787 5 0.1584 0.944087 0.0179133 1 3 -1 
5161 6 0.334259 0.910905 0.99592 0 -3 -1 
5855 5 0.0143372 0.959597 0.027245 4 0 0 
5045 5 0.514929 0.961632 0.991744 0 -1 -1 
7478 5 0.888394 0.986808 0.995507 1 -1 0 
6735 6 0.947196 0.948088 0.997806 2 2 0 
6258 6 0.0576099 0.978281 0.0246578 -5 -3 -1 
6572 6 0.628404 0.00473893 0.033986 2 -1 2 
8634 5 0.314804 0.0393874 0.058896 -2 1 3 
8015 5 0.651644 0.0332996 0.0303993 0 2 4 
6171 5 0.714 0.0742509 0.98717 2 8 -7 
8718 6 0.283793 0.0777517 0.00235766 -5 2 -1 
8668 6 0.813513 0.0886669 0.0668649 -4 2 0 
5075 6 0.585414 0.0571383 0.0314608 -1 1 -2 
7746 5 0.916389 0.127842 0.0200356 4 2 -1 
5741 5 0.257085 0.149949 0.991998 -6 -3 -2 
5450 5 0.229127 0.127774 0.0271069 3 -2 3 
6416 5 0.950693 0.098063 0.0347082 2 0 0 
6503 6 0.431771 0.17018 0.0346919 -4 3 0 
5934 5 0.997916 0.181736 0.0405092 0 3 -4 
5973 5 0.838997 0.195178 0.00934293 -2 -2 6 
5904 6 0.848526 0.228669 0.0510351 -4 1 2 
6944 5 0.881767 0.258251 0.995289 1 5 1 
6602 6 0.297738 0.326436 0.0351044 2 -3 1 
6664 5 0.479697 0.320659 0.034033 -1 -1 0 
7690 6 0.535372 0.347589 0.028749 2 -4 -2 
5243 5 0.45822 0.30633 0.0312303 -1 1 1 
6354 6 0.778475 0.353837 0.0476385 -3 -1 -3 
7411 5 0.229279 0.346807 0.0469624 -2 -3 -2 
5642 6 0.628623 0.39459 0.0436044 -1 5 4 
7393 6 0.964914 0.385004 0.0853872 1 -7 2 
6722 5 0.647004 0.402827 0.997312 3 2 0 
7456 5 0.813853 0.408859 0.00908268 -3 4 2 
6183 6 0.153986 0.402032 0.0138565 0 -3 1 
7490 5 0.252578 0.400407 0.0403399 -2 -4 2 
8603 5 0.599461 0.425474 0.0421651 0 7 0 
8184 6 0.132195 0.468703 0.0104092 6 -3 -2 
7496 6 0.161399 0.454357 0.0523767 2 5 5 
5720 6 0.536088 0.415728 0.0629879 -1 0 0 
7325 5 0.51433 0.461595 0.022052 -2 1 1 
5885 6 0.648588 0.524635 0.0196925 7 3 -2 
5012 6 0.0398903 0.483264 0.0734601 -1 2 3 
5814 5 0.168881 0.515268 0.0108787 -1 -4 -2 
7398 6 0.36714 0.557669 0.0289008 -2 2 1 
7035 6 0.757575 0.491438 0.983862 -1 -6 1 
7208 6 0.0455732 0.542757 0.0424759 2 0 2 
5106 5 0.588908 0.5283 0.0278827 0 -3 4 
7302 6 0.5195 0.590463 0.0510635 2 0 6 
8296 5 0.126917 0.601249 0.0574501 -3 0 1 
6156 5 0.139038 0.56049 0.0459295 -1 1 1 
6394 5 0.12005 0.595908 0.0271968 -2 3 6 
6605 6 0.484305 0.55783 0.0517562 -6 1 -3 
8876 6 0.783856 0.547079 0.03362 -6 2 0 
8088 6 0.162656 0.619758 0.00103406 3 -1 -1 
5841 5 0.0450361 0.65179 0.0373395 -3 -3 -2 
8271 5 0.0505659 0.638015 0.0232982 1 -2 6 
8373 6 0.726929 0.654528 0.0392248 -1 -3 1 
8579 5 0.721215 0.666969 0.0399798 2 5 2 
7543 5 0.557413 0.664791 0.0356966 -2 -3 0 
6008 5 0.983683 0.653902 0.0262033 -4 4 -1 
8357 5 0.17755 0.681187 0.0269798 -2 2 1 
5121 6 0.507708 0.770444 0.066041 2 0 -1 
5281 6 0.610782 0.737925 0.0338757 1 0 3 
6397 5 0.677643 0.750747 0.0443273 -3 1 -3 
5250 6 0.668085 0.756539 0.0663854 3 -2 2 
7168 5 0.973591 0.792676 0.0305365 -3 0 3 
8414 6 0.069426 0.782335 0.00852717 4 -3 0 
5505 6 0.142546 0.803437 0.997461 0 5 0 
8970 6 0.348886 0.821 0.012734 4 -1 1 
5141 5 0.447694 0.822634 0.0424599 -3 0 -3 
8477 5 0.802299 0.80296 0.0320678 0 -6 -1 
5839 6 0.530468 0.797993 0.0287894 0 0 1 
8907 6 0.598844 0.798189 0.060769 -2 2 0 
6085 5 0.568025 0.852046 0.0028119 -3 -2 3 
7656 6 0.442016 0.856058 0.018901 1 0 2 
8979 6 0.753974 0.876885 0.0254316 3 -5 1 
8699 6 0.233045 0.887783 0.011057 3 2 2 
5586 6 0.85831 0.903714 0.0408866 -3 2 5 
6813 5 0.0523375 0.937473 0.0273176 -1 0 -3 
7562 5 0.266478 0.940813 0.0300615 1 2 4 
7301 6 0.263552 0.984063 0.0222737 -2 0 4 
6456 5 0.359476 0.985282 0.0546041 -1 4 3 
7676 6 0.589499 0.935286 0.00874238 -3 -1 1 
5010 6 0.709499 0.936071 0.010872 -1 -1 3 
7811 6 0.757962 0.944515 0.0206488 2 4 2 
5151 6 0.812897 0.96748 0.0344755 0 -6 -2 
6879 5 0.00441958 0.00953219 0.0144405 2 4 6 
6254 5 0.722406 0.978594 0.0105028 -5 0 -4 
8233 5 0.586994 0.998775 0.0273452 -3 -3 -3 
5293 5 0.473351 0.0658674 0.0583576 2 5 -10 
8954 6 0.0207004 0.0115185 0.0748002 2 1 4 
6660 6 0.0738152 0.0452305 0.0917673 -4 -2 0 
6360 5 0.165484 0.0777313 0.0697714 -3 -2 -1 
6405 5 0.299075 0.0488212 0.0390461 0 6 4 
8923 5 0.132409 0.0669756 0.104428 -2 -4 -3 
5518 6 0.381402 0.145798 0.0548236 2 3 -4 
6581 5 0.740479 0.127911 0.0659014 -2 -4 1 
6640 6 0.192369 0.143114 0.0478444 -2 -3 1 
7266 5 0.52718 0.165832 0.0391799 -1 3 1 
7083 6 0.181254 0.209884 0.0758813 0 2 -1 
6851 5 0.175932 0.156814 0.0334841 5 -1 2 
7616 6 0.228656 0.20292 0.0178958 4 0 -11 
5939 5 0.396919 0.172137 0.0488356 2 0 -3 
7287 6 0.441091 0.195051 0.0617011 4 0 1 
5471 6 0.544303 0.228671 0.0385254 4 -3 -3 
8464 6 0.998005 0.189905 0.126197 -2 -5 1 
7227 5 0.0383321 0.207532 0.046933 0 1 0 
7422 5 0.461165 0.260981 0.0685772 3 5 0 
6469 6 0.624591 0.258382 0.0759156 -2 2 -1 
7061 5 0.346641 0.276659 0.0568292 1 2 2 
8450 6 0.748093 0.285252 0.0858228 -4 3 0 
7072 5 0.784439 0.314959 0.0654371 -2 -1 -7 
6920 6 0.524966 0.250033 0.0318041 -1 1 3 
6027 5 0.902925 0.308824 0.0568831 -1 -1 2 
7617 6 0.1132 0.310843 0.0531416 2 -3 0 
8320 6 0.0989077 0.314172 0.0694664 6 4 -3 
5460 5 0.831841 0.339665 0.0899465 -2 0 5 
6336 5 0.945348 0.32856 0.0354082 7 1 -1 
6828 6 0.0540607 0.349786 0.0565737 -1 1 4 
5966 5 0.668498 0.361087 0.0537462 2 -5 6 
5678 6 0.630239 0.359364 0.127605 2 4 0 
8350 6 0.817938 0.381844 0.0501183 -2 -5 1 
7424 5 0.010833 0.430303 0.0579977 9 2 2 
6100 5 0.35194 0.363751 0.0994792 -4 -2 1 
6124 5 0.500899 0.384871 0.0385074 0 -3 0 
6218 5 0.923983 0.427783 0.0565464 -1 1 3 
5611 6 0.857363 0.42713 0.0460681 -2 0 0 
7769 6 0.326983 0.42261 0.0498779 -3 2 3 
7221 5 0.784392 0.456769 0.0752718 -2 1 2 
5777 6 0.746741 0.439664 0.0809582 0 -1 3 
6831 5 0.893873 0.471416 0.0695348 -4 -2 -3 
6244 5 0.69486 0.498875 0.0682277 0 2 2 
7176 6 0.130465 0.588759 0.0517143 0 1 -4 
5230 6 0.228255 0.500423 0.0442344 4 -2 -1 
8836 5 0.463004 0.560525 0.0552758 1 1 0 
7421 6 0.440298 0.525108 0.0579638 4 1 -3 
8865 6 0.513386 0.589158 0.0343298 -3 0 3 
7931 5 0.753764 0.532452 0.0604571 -3 3 4 
6447 6 0.801699 0.5352 0.0747083 2 0 0 
5066 6 0.9148 0.551708 0.0234341 -1 -2 1 
6936 5 0.151457 0.595983 0.0516141 -2 -1 -2 
8056 6 0.446888 0.590702 0.05018 -1 0 3 
8123 5 0.72849 0.551489 0.0355909 -1 3 -1 
5445 5 0.208736 0.625665 0.0951536 2 -1 3 
7090 5 0.0434263 0.620488 0.0705029 -3 -2 2 
8439 6 0.113965 0.634013 0.0331239 3 -2 1 
6490 5 0.14678 0.665368 0.0453719 -5 4 0 
7635 6 0.741078 0.684532 0.0381974 -2 -2 4 
5538 6 0.241732 0.682622 0.082435 0 -3 -2 
5816 5 0.335979 0.72919 0.0236624 -3 -4 -1 
6417 6 0.0274822 0.657192 0.0709599 2 -4 -2 
5579 5 0.201809 0.717641 0.0135962 -3 1 -2 
7836 5 0.607304 0.755049 0.0306931 -3 0 1 
5031 6 0.797703 0.772541 0.0545864 3 1 1 
7598 5 0.835275 0.754983 0.0316814 -1 -2 -2 
7150 5 0.841154 0.719241 0.0779156 0 -3 4 
7582 6 0.146477 0.734388 0.0840537 -1 -4 1 
7564 6 0.287467 0.762175 0.0666001 0 1 2 
5788 5 0.532395 0.732981 0.0664331 1 1 5 
6069 5 0.751471 0.774441 0.0162878 2 -1 -3 
8113 5 0.569637 0.800325 0.0746824 -3 -1 1 
8118 6 0.650432 0.786569 0.0588925 3 2 4 
7328 5 0.0803071 0.821728 0.0399624 2 -1 2 
8217 5 0.166252 0.845662 0.00585396 -3 -4 -1 
5535 5 0.361767 0.793858 0.0180301 2 -3 -4 
7444 5 0.60355 0.820962 0.0571239 2 2 -1 
8098 6 0.688583 0.861951 0.0559028 -7 1 -3 
7662 5 0.685816 0.804555 0.0730268 0 -4 -1 
5454 5 0.892864 0.820453 0.0979686 -5 1 -2 
8929 6 0.00940021 0.839938 0.0454779 -3 -5 0 
8057 6 0.397295 0.859985 0.0580537 4 1 -2 
8280 6 0.531942 0.935022 0.0376581 4 1 1 
6598 6 0.644125 0.873124 0.0289139 -3 -1 2 
5746 5 0.974806 0.89869 0.0602435 1 -2 5 
7909 5 0.178295 0.910666 0.0309534 -1 0 0 
6841 5 0.232419 0.889195 0.061009 2 0 4 
8467 5 0.392834 0.992988 0.0626112 -2 -2 4 
6818 6 0.596703 0.942606 0.0347583 3 0 0 
5109 5 0.484617 0.951645 0.106366 2 0 2 
5792 5 0.700303 0.978588 0.0287444 2 2 -2 
8874 6 0.117738 0.935806 0.0497945 1 0 -2 
6925 5 0.72829 0.0084 0.0458971 5 -1 -3 
5187 5 0.84334 0.0102795 0.0266071 -2 0 1 
8961 6 0.0436913 0.0591877 0.0889045 -1 3 -1 
7047 6 0.0949656 0.0583629 0.100801 -1 2 -1 
5483 5 0.428019 0.0960876 0.0146088 3 -1 -4 
6641 5 0.846774 0.0895408 0.0695629 -3 -2 -5 
6017 6 0.0425622 0.0526303 0.0748096 1 -1 4 
5727 6 0.395644 0.0748244 0.05464 2 0 1 
6363 6 0.806014 0.130356 0.0634643 1 2 8 
6146 6 0.054881 0.09217 0.0487612 -4 -1 0 
8755 6 0.228488 0.0894661 0.0655136 2 -2 -3 
8613 5 0.361255 0.122606 0.0606411 0 -2 2 
8844 5 0.736606 0.0784974 0.0467775 -3 4 -2 
8674 5 0.809864 0.0773604 0.0923963 -3 0 7 
8972 6 0.29886 0.145196 0.105666 0 -4 2 
7768 5 0.225666 0.170949 0.100985 -1 -2 5 
5997 6 0.697843 0.161748 0.0935646 2 -2 -2 
5785 6 0.285334 0.201988 0.039113 -3 3 0 
6032 5 0.328292 0.174866 0.132521 3 3 -4 
8160 6 0.0965677 0.236544 0.0452872 4 -2 1 
5946 6 0.399402 0.228246 0.0521297 1 2 1 
5620 5 0.889408 0.202334 0.0946485 -9 0 -5 
8743 5 0.61527 0.251708 0.0874395 4 9 -4 
6091 6 0.644897 0.269656 0.0798801 2 5 -1 
8163 6 0.960632 0.284175 0.045441 3 2 2 
8240 6 0.0361149 0.292944 0.0690935 1 -5 -2 
8374 6 0.193939 0.277958 0.0929738 -3 2 -1 
7569 6 0.322516 0.301685 0.0627525 -1 2 1 
6576 5 0.351133 0.315974 0.0462001 0 0 -4 
7425 6 0.369916 0.306144 0.0914146 0 1 -4 
6523 5 0.383739 0.30073 0.0802718 3 -3 -2 
7341 6 0.500351 0.289801 0.0782278 -3 2 -4 
6806 6 0.749922 0.273149 0.0787632 1 4 1 
6480 6 0.876637 0.284045 0.1128 0 -6 0 
7702 6 0.9389 0.327256 0.101051 1 -3 5 
7204 6 1.00039 0.313898 0.103462 -5 -3 1 
6956 5 0.355084 0.331425 0.0541263 2 1 4 
5938 6 0.994859 0.380756 0.0707661 -4 1 4 
6056 5 0.335964 0.465417 0.0875561 -1 2 -1 
8964 6 0.464375 0.390024 0.0669467 0 -2 1 
6452 6 0.675353 0.487885 0.056681 -2 1 -3 
6297 5 0.10343 0.478994 0.0637061 -3 1 3 
6637 5 0.526249 0.417926 0.0990259 -1 -4 3 
6448 5 0.942021 0.426958 0.060861 -3 -3 -1 
6529 6 0.0633394 0.496805 0.0666773 1 3 0 
8892 5 0.254748 0.495515 0.0403736 2 4 1 
6471 6 0.613959 0.516586 0.0516028 -7 0 0 
8345 5 0.126716 0.507113 0.0995299 -8 -1 -5 
8366 6 0.277858 0.538816 0.0717379 1 -6 3 
7344 6 0.87251 0.547204 0.0173198 -1 -3 3 
7073 6 0.912735 0.509203 0.051185 5 -4 -1 
5246 6 0.97093 0.594423 0.067053 1 7 -2 
8266 5 0.608661 0.578613 0.0655369 -1 1 2 
6230 6 0.156997 0.622746 0.0692227 -1 -4 0 
8101 6 0.00721559 0.60316 0.0966919 8 1 0 
5348 6 0.0027991 0.610224 0.13713 4 -2 -1 
6117 5 0.143471 0.595053 0.07663 -2 1 1 
8035 6 0.637418 0.647029 0.092564 1 0 1 
8599 5 0.99133 0.622462 0.0556595 1 -1 -3 
8938 5 0.0649316 0.630427 0.0490899 4 -1 -2 
8090 5 0.792627 0.65669 0.0502719 1 3 6 
7943 5 0.828658 0.645558 0.0461116 2 6 3 
7087 6 0.872502 0.66983 0.082117 5 3 -2 
7006 5 0.0187298 0.696629 0.0580521 0 0 -1 
5294 6 0.0993052 0.707665 0.10521 -1 6 3 
6483 6 0.00369348 0.696985 0.112333 4 1 -1 
5850 5 0.0533796 0.731701 0.0785875 4 3 -2 
8490 6 0.255244 0.735947 0.0728692 6 3 0 
5115 6 0.276977 0.770051 0.0956365 2 -1 2 
7260 5 0.329105 0.723548 0.0398878 -1 2 -1 
5214 5 0.403629 0.774651 0.058218 -3 -2 1 
5125 5 0.650816 0.788417 0.074476 6 1 0 
5408 6 0.019297 0.837042 0.116723 0 -2 7 
5154 5 0.301747 0.824106 0.0729542 6 2 2 
8720 5 0.845954 0.799177 0.096321 6 0 2 
7645 5 0.190887 0.837909 0.0814069 -1 0 3 
8595 5 0.256283 0.82298 0.109728 -1 -2 -3 
8402 6 0.411822 0.862998 0.11219 -1 -2 0 
7611 6 0.458545 0.815157 0.0740244 -2 1 -2 
6281 5 0.216034 0.865038 0.16781 3 -1 4 
7316 6 0.432427 0.92415 0.0781219 2 -3 1 
5964 5 0.416705 0.890161 0.0604763 -3 2 1 
7321 6 0.176514 0.949961 0.0635564 2 1 5 
7747 5 0.0910993 0.949654 0.0500278 1 -3 1 
7944 6 0.177802 0.983127 0.0777039 -1 -5 -1 
6957 6 0.590741 0.0149209 0.118062 -1 1 5 
7657 6 0.614516 0.988981 0.116208 3 -1 3 
6028 6 0.929304 1.00174 0.124593 6 -7 3 
7397 6 0.390236 0.0248659 0.0815405 -2 -1 1 
8406 6 0.946088 0.0367833 0.0564311 -2 4 4 
8673 6 0.86926 0.0633018 0.0938274 -1 -3 -4 
5329 6 0.88031 0.101241 0.11084 -2 4 -2 
7938 5 0.963781 0.123165 0.106699 -3 -3 1 
7525 5 0.895824 0.149951 0.103402 -3 1 3 
5297 6 0.325168 0.15636 0.0737326 1 -1 1 
5500 5 0.0359937 0.195183 0.105833 0 3 -3 
6844 6 0.589587 0.239406 0.103101 0 3 -2 
7798 6 0.643199 0.27124 0.099087 4 -1 3 
8484 5 0.751894 0.217756 0.125058 0 2 1 
5613 6 0.957201 0.238293 0.0801579 2 -2 3 
7412 6 0.709842 0.21929 0.11181 4 7 -2 
5635 5 0.203113 0.242034 0.071169 3 -2 1 
7823 5 0.464507 0.312941 0.0699742 5 1 -4 
5024 5 0.401198 0.24251 0.134209 -6 0 0 
7172 5 0.413489 0.273139 0.0959341 0 -3 0 
5008 6 0.0322499 0.31106 0.0841284 0 1 -4 
5345 6 0.143258 0.36254 0.111344 0 0 6 
8850 5 0.329932 0.322078 0.0964508 1 6 -1 
8423 6 0.0969452 0.330599 0.0969325 -5 2 -2 
7432 5 0.312179 0.340685 0.0835725 -2 -2 1 
7023 6 0.321745 0.374124 0.0831341 0 -1 2 
7342 5 0.31134 0.346664 0.112737 1 1 -2 
8305 5 0.629573 0.363578 0.107708 2 -1 3 
8578 6 0.905813 0.346992 0.093771 2 -3 -1 
7324 5 0.00589778 0.407811 0.0626635 5 2 -3 
6037 6 0.781114 0.398146 0.0879321 -1 1 -2 
6862 6 0.94734 0.38642 0.0944377 2 -2 0 
6686 5 0.312541 0.464415 0.0977185 -1 4 1 
6725 6 0.477749 0.420965 0.162208 4 1 -2 
6479 6 0.675355 0.435513 0.0799686 -2 -3 3 
7620 6 0.656483 0.466905 0.102046 -4 4 3 
5224 6 0.00748832 0.55285 0.0885234 -1 -1 1 
8135 5 0.293685 0.555917 0.103727 0 2 0 
7392 6 0.30821 0.505727 0.116558 -1 0 -4 
8518 5 0.412014 0.55886 0.100583 -6 8 -1 
7632 6 0.618166 0.570149 0.130202 -4 -5 -2 
7453 6 0.84555 0.559302 0.0854185 -1 0 4 
7455 6 0.960193 0.574695 0.0474799 -3 -3 4 
7434 5 0.0381746 0.568806 0.097222 -3 4 2 
7102 6 0.148433 0.625028 0.126025 -4 3 3 
7759 6 0.398536 0.591285 0.0805961 0 0 4 
8365 6 0.0917091 0.630542 0.119216 2 0 -2 
6107 6 0.711833 0.609182 0.0820382 0 -1 -2 
6472 5 0.83004 0.629681 0.104294 -2 0 2 
5351 5 0.956697 0.594327 0.0714861 3 0 1 
5890 6 0.516345 0.671913 0.121591 -1 0 -1 
7105 6 0.55822 0.699594 0.0699947 -3 2 0 
7431 6 0.987691 0.777018 0.12873 1 -4 0 
8362 5 0.507447 0.768967 0.0760601 2 -2 3 
7903 6 0.0747188 0.78071 0.110355 2 -2 -4 
7268 5 0.424794 0.809986 0.0529483 3 -2 5 
7538 6 0.0511331 0.830926 0.130295 2 4 5 
6059 5 0.140426 0.84764 0.107358 7 4 0 
8124 6 0.190334 0.850407 0.101472 -2 -3 0 
7179 6 0.307915 0.856989 0.0926374 4 0 -4 
8003 5 0.303573 0.873376 0.121942 -3 1 0 
6420 5 0.523965 0.872269 0.0795097 7 1 1 
6378 6 0.667665 0.872436 0.105707 -1 3 -4 
7885 6 0.747629 0.911311 0.144012 -2 1 4 
5057 6 0.892205 0.887982 0.161567 1 4 -4 
5680 5 0.287674 0.892732 0.100939 -1 4 2 
7303 6 0.435208 0.953935 0.124784 3 -6 1 
7229 6 0.122172 0.944351 0.0905202 4 -2 1 
5594 6 0.728744 0.997725 0.0637774 -3 -1 0 
8597 6 0.763474 0.990915 0.093311 -3 -1 3 
5052 6 0.0115941 0.0311275 0.0844844 3 -2 1 
6636 6 0.564676 0.0396169 0.146825 0 1 5 
8878 6 0.605908 0.0332013 0.0958716 0 -1 6 
8087 6 0.347371 0.0790492 0.10185 4 2 3 
8934 6 0.751724 0.0141884 0.107484 2 1 7 
7164 6 0.884047 0.0437214 0.125892 -2 -1 -2 
8708 6 0.408785 0.0800857 0.113362 2 -1 4 
6788 5 0.697037 0.039021 0.177253 -5 -3 0 
5240 6 0.172949 0.136312 0.122588 4 -2 2 
6084 6 0.427804 0.105896 0.141282 0 -3 -3 
6291 5 0.760051 0.114716 0.127684 -1 2 0 
8774 5 0.604121 0.139964 0.134562 3 -3 1 
6324 6 0.864682 0.145735 0.126646 1 3 2 
6460 6 0.544977 0.12543 0.154774 2 -2 -5 
6121 5 0.839538 0.142404 0.149505 -3 0 -1 
7045 6 0.94281 0.109783 0.126242 1 0 -2 
7253 6 0.915827 0.164798 0.103281 2 3 -1 
8624 5 0.0430379 0.174762 0.108872 -1 2 1 
7319 6 0.303295 0.181875 0.119352 2 1 -3 
6043 6 0.527518 0.22758 0.100574 -3 -1 0 
6865 6 0.961089 0.178774 0.123899 -2 0 -2 
6909 6 0.160836 0.221067 0.161765 -1 -4 -3 
8792 6 0.275788 0.203595 0.11391 2 4 -3 
5608 6 0.851509 0.21029 0.145753 -1 1 7 
6771 5 0.213259 0.265168 0.170137 3 -2 -1 
5582 5 0.676707 0.298124 0.121702 -3 0 3 
7452 6 0.491215 0.343648 0.124205 -2 1 -3 
8061 6 0.12004 0.369252 0.116492 1 -1 -1 
6465 5 0.646175 0.352784 0.103869 1 -1 -1 
7463 5 0.0109513 0.345467 0.118326 2 -2 -3 
8165 6 0.976968 0.378422 0.111223 -2 -3 0 
6316 5 0.310724 0.382327 0.0949249 -2 1 0 
8824 6 0.490155 0.368519 0.141319 0 2 -3 
7384 6 0.406151 0.38895 0.160207 0 1 2 
5440 6 0.460623 0.409337 0.133902 -2 -1 2 
6358 6 0.684484 0.416319 0.116679 -4 2 -2 
7078 6 0.578426 0.425657 0.108981 0 5 0 
8596 5 0.418234 0.483923 0.121883 -2 -1 -2 
8854 5 0.928318 0.466105 0.0951462 1 2 2 
8371 6 0.226254 0.473799 0.12624 4 2 3 
7763 6 0.82894 0.469948 0.123534 -2 0 1 
8289 6 0.954496 0.505442 0.132249 -1 0 -2 
6092 6 0.359952 0.56493 0.131263 2 3 -3 
6213 6 0.306929 0.572922 0.133951 -2 4 -3 
8314 6 0.180282 0.538418 0.113298 -1 -1 2 
7636 5 0.40789 0.543998 0.122228 0 -1 0 
7231 5 0.618508 0.634947 0.116844 3 -1 1 
6494 6 0.438146 0.586018 0.108539 -5 -4 -2 
6513 5 0.979505 0.637787 0.142756 -4 2 -5 
5407 5 0.0345378 0.661861 0.116554 0 -2 -1 
6599 5 0.150999 0.65936 0.161466 1 -3 -2 
6286 5 0.529085 0.654096 0.128092 0 -2 4 
8182 5 0.00441437 0.670675 0.158955 -2 0 0 
5232 5 0.239696 0.657005 0.122953 -2 -5 -1 
5050 5 0.471855 0.656977 0.143838 4 2 -4 
5637 6 0.850518 0.684586 0.0685304 1 -1 -1 
6237 6 0.445618 0.714804 0.132672 0 0 -3 
5624 5 0.106323 0.717021 0.122147 4 3 -1 
5466 5 0.437108 0.726962 0.135107 6 -2 4 
8663 6 0.9174 0.758197 0.155893 -3 -2 -5 
7520 5 0.286884 0.732246 0.12918 -3 -3 -2 
6749 6 0.0142808 0.761144 0.14827 4 -6 -2 
6419 6 0.604199 0.769033 0.0829475 2 -2 -2 
7581 6 0.154602 0.808615 0.133359 4 0 -4 
6877 5 0.381507 0.810958 0.152178 0 -1 1 
6461 5 0.208653 0.830908 0.123662 3 -2 -3 
7659 6 0.324317 0.851747 0.118417 0 -4 -1 
7533 5 0.620562 0.868023 0.143074 0 2 -3 
7939 5 0.545814 0.897402 0.138923 -1 -2 -2 
8476 6 0.963369 0.915011 0.145589 1 1 0 
7234 6 0.402751 0.942031 0.0953549 1 1 1 
8566 6 0.410441 0.919084 0.159551 2 0 3 
6659 6 0.911076 0.96188 0.0834632 1 -8 1 
8145 6 0.223722 0.942303 0.143834 2 1 0 
8600 6 0.308721 0.964417 0.133368 -3 -1 -1 
5384 5 0.333519 0.923697 0.154754 3 -1 3 
7519 5 0.176007 0.976224 0.126792 -2 -2 3 
7988 6 0.736638 0.980781 0.127935 4 -3 0 
8803 5 0.878498 0.00855447 0.118318 -3 -3 0 
7576 6 0.578194 0.0277057 0.155486 -1 -3 1 
5932 6 0.301832 0.0220488 0.117667 1 0 2 
7405 6 0.0598677 0.0597199 0.154462 -6 1 2 
7195 5 0.00447736 0.0782039 0.125331 3 5 -2 
5208 6 0.65892 0.0849549 0.160471 1 3 0 
8706 5 0.665897 0.108656 0.120479 -2 5 1 
6337 6 0.922178 0.0566206 0.144835 -1 0 -2 
5098 6 0.0650469 0.147774 0.175194 -4 2 1 
7183 6 0.250069 0.132082 0.139411 -4 -5 0 
8012 6 0.511536 0.109728 0.103927 -2 4 5 
8255 5 0.845898 0.0949436 0.141984 -1 0 1 
7148 6 0.506328 0.152054 0.141148 -1 4 1 
7441 5 0.619591 0.188304 0.130118 -2 -1 -4 
8200 6 0.0383682 0.165946 0.126096 -1 1 -5 
5023 6 0.305428 0.172667 0.107212 0 -4 1 
8522 5 0.226127 0.209492 0.154624 5 3 4 
6746 6 0.249466 0.185855 0.121171 3 0 5 
7215 6 0.287367 0.165177 0.137603 0 -6 -1 
6663 5 0.550984 0.276022 0.145556 2 -5 -3 
8815 6 0.601458 0.274595 0.17641 2 -1 0 
8581 6 0.745667 0.263724 0.145401 0 3 -5 
5290 6 0.857446 0.285884 0.147115 2 2 3 
7377 5 0.871737 0.280059 0.122856 1 -3 8 
7910 5 0.389856 0.27251 0.13726 -3 0 -2 
8481 5 0.31941 0.280994 0.131228 -1 -3 -2 
7678 6 0.682182 0.330444 0.145946 0 -1 7 
8288 5 0.770325 0.332924 0.162109 1 0 -2 
7814 6 0.827087 0.359754 0.151133 0 1 2 
5689 5 0.0989147 0.383534 0.102604 2 2 -2 
8723 6 0.769277 0.319522 0.203648 5 1 4 
5257 6 0.199447 0.35173 0.135204 -2 -2 -2 
8442 5 0.0151989 0.39855 0.166006 0 -1 -3 
6849 6 0.478456 0.392761 0.167422 3 2 1 
5215 6 0.779668 0.394998 0.135838 -5 -3 -1 
8195 6 0.612585 0.431827 0.15276 -4 -4 3 
8524 6 0.836076 0.467879 0.121494 0 4 5 
7118 5 0.0187623 0.448997 0.146438 4 6 -3 
6825 6 0.143157 0.46882 0.12774 2 -2 1 
7174 6 0.703595 0.504571 0.150991 4 2 4 
7288 5 0.781743 0.493127 0.141718 -1 -3 -2 
5928 5 0.129711 0.451777 0.139688 6 1 4 
7771 6 0.0653435 0.565933 0.153299 -4 2 3 
8473 5 0.144356 0.524378 0.15703 2 4 4 
3098 1 0.529758 0.544787 0.155957 0 0 0 
3097 1 0.535196 0.545429 0.159883 0 0 0 
7353 6 0.8474 0.542663 0.132106 -6 -2 0 
3096 1 0.534217 0.550738 0.156286 0 0 0 
3094 1 0.535364 0.557439 0.158874 0 0 0 
6284 5 0.792864 0.570105 0.154296 -2 6 0 
6927 6 0.440942 0.600703 0.154148 -6 2 0 
6198 6 0.867113 0.640585 0.142432 2 -3 0 
8449 5 0.292336 0.696987 0.142576 5 -6 -1 
8136 5 0.471805 0.665108 0.132942 3 3 2 
5437 6 0.331871 0.700796 0.140182 -10 3 3 
6118 5 0.926875 0.71882 0.128584 -1 -1 2 
8091 6 0.962583 0.770197 0.090658 2 2 -4 
6201 5 0.97771 0.700066 0.125266 2 -2 -3 
8576 6 0.959785 0.776618 0.158484 -3 -1 -2 
5711 6 0.294586 0.769329 0.174662 2 1 0 
7682 6 0.450609 0.779603 0.136096 -5 -4 -6 
8653 5 0.465289 0.754793 0.140769 0 -1 2 
6742 5 0.48973 0.762356 0.134055 -1 -1 1 
7054 5 0.318532 0.758577 0.162079 6 2 -4 
6491 6 0.748166 0.774252 0.121328 0 2 2 
5666 5 0.409551 0.781491 0.14749 2 -6 -2 
8890 6 0.427921 0.79227 0.158174 -5 1 4 
8777 5 0.534072 0.81431 0.153307 -1 -4 2 
8417 6 0.0273095 0.857625 0.149048 1 -1 -1 
7534 6 0.234693 0.86484 0.145162 5 2 5 
7527 6 0.679908 0.847866 0.144028 4 -3 -1 
7941 5 0.883649 0.86337 0.149797 1 -2 2 
6962 5 0.118232 0.87677 0.149963 3 0 2 
8400 6 0.430625 0.911277 0.123038 3 1 5 
5132 5 0.949243 0.900646 0.134759 3 -4 3 
6345 6 0.690142 0.905611 0.125917 2 1 2 
7858 5 0.929012 0.937662 0.149682 0 6 1 
7732 6 0.967783 0.927418 0.12219 -4 -1 1 
6145 6 0.0209331 0.978167 0.156473 -5 -1 -1 
6168 5 0.106655 0.963571 0.176732 -2 0 3 
6511 5 0.352569 0.988145 0.170573 -4 1 5 
5288 5 0.539095 0.972565 0.170747 1 -4 5 
8424 6 0.283472 0.0201074 0.160157 0 0 0 
5381 5 0.262542 0.00487432 0.144881 0 -4 0 
6388 6 0.408378 0.0367657 0.116192 1 1 -1 
6737 6 0.22028 0.0565392 0.157313 -1 2 0 
7875 5 0.526266 0.000802602 0.190315 -3 4 1 
7719 5 0.661633 0.0212177 0.179789 5 0 2 
6675 6 0.915981 0.0793809 0.176386 2 2 5 
6283 6 0.0162262 0.0658224 0.145953 5 4 -4 
5667 5 0.990483 0.0553484 0.205394 -4 0 3 
6557 6 0.266915 0.103047 0.189595 2 3 -1 
8463 6 0.488471 0.145067 0.154872 0 6 6 
8426 6 0.753593 0.110113 0.176715 0 -1 0 
5543 5 0.422557 0.133 0.195087 -2 3 -4 
6555 5 0.0300912 0.122089 0.184394 -2 3 0 
5578 5 0.972199 0.126216 0.202367 1 -1 -2 
7749 5 0.462217 0.223118 0.183821 -1 3 -5 
6804 6 0.628715 0.208225 0.154511 -1 1 0 
7406 5 0.95007 0.223963 0.188941 -6 -1 3 
7739 6 0.111635 0.256813 0.159995 1 3 0 
8705 6 0.664805 0.277187 0.191852 -1 -2 0 
7601 6 0.120266 0.338089 0.172434 2 -1 3 
5270 6 0.173728 0.31606 0.171826 -2 -4 -3 
6723 5 0.263319 0.31505 0.16594 -2 2 -4 
5833 5 0.565286 0.373262 0.175346 -2 6 1 
8667 5 0.850107 0.320531 0.132159 1 -3 2 
6290 6 0.341756 0.356428 0.202951 -2 1 1 
7013 5 0.823192 0.375536 0.201891 -1 -1 3 
5708 6 0.927671 0.32932 0.181387 4 4 1 
5205 5 0.362568 0.379421 0.151715 4 3 1 
6215 6 0.388029 0.399136 0.150635 3 3 2 
8398 6 0.712584 0.404639 0.137003 1 0 4 
6034 6 0.895271 0.419103 0.17182 1 -2 -4 
7428 5 0.29277 0.418827 0.148992 1 -1 3 
3748 1 0.529193 0.436904 0.183532 0 0 0 
3749 1 0.531113 0.441635 0.18008 0 0 0 
6176 6 0.0146464 0.423204 0.183461 4 -2 -3 
3744 1 0.516798 0.435952 0.181131 0 0 0 
3746 1 0.523545 0.433717 0.180032 0 0 0 
3745 1 0.51985 0.435543 0.175413 0 0 0 
3747 1 0.525307 0.439145 0.17833 0 0 0 
3742 1 0.511951 0.440864 0.183344 0 0 0 
3743 1 0.516654 0.441987 0.178521 0 0 0 
3741 1 0.515991 0.445757 0.184738 0 0 0 
3752 1 0.536044 0.442699 0.175214 0 0 0 
3750 1 0.533303 0.43635 0.177373 0 0 0 
3751 1 0.538719 0.438869 0.179409 0 0 0 
3753 1 0.540689 0.438869 0.172172 0 0 0 
3755 1 0.542391 0.446177 0.173941 0 0 0 
3754 1 0.539522 0.444257 0.168648 0 0 0 
3758 1 0.543939 0.453749 0.176489 0 0 0 
3757 1 0.548512 0.450092 0.173856 0 0 0 
7239 6 0.580689 0.496184 0.20544 -2 1 3 
8282 6 0.813026 0.423164 0.19559 -3 -2 -1 
8701 6 0.937045 0.459051 0.1958 0 -1 -3 
8220 6 0.402939 0.497679 0.149317 6 5 3 
6229 6 0.74004 0.449003 0.18817 2 -2 0 
8753 5 0.74951 0.440427 0.150273 -7 2 0 
8525 5 0.858827 0.476061 0.139212 -1 -5 0 
5315 6 0.981774 0.476274 0.154599 -3 0 -6 
2803 1 0.497381 0.492864 0.180039 0 0 0 
2802 1 0.49291 0.492364 0.184544 0 0 0 
2884 1 0.468644 0.505547 0.176756 0 0 0 
2882 1 0.465144 0.511404 0.173837 0 0 0 
2879 1 0.465407 0.518339 0.166993 0 0 0 
2881 1 0.467118 0.511606 0.167795 0 0 0 
2883 1 0.471476 0.510096 0.17319 0 0 0 
2878 1 0.463032 0.518101 0.172612 0 0 0 
2880 1 0.470044 0.516519 0.171065 0 0 0 
2805 1 0.495343 0.496974 0.17377 0 0 0 
2804 1 0.491919 0.495898 0.178765 0 0 0 
2807 1 0.493415 0.504515 0.172166 0 0 0 
2809 1 0.489103 0.503496 0.178545 0 0 0 
2808 1 0.492677 0.509044 0.177336 0 0 0 
2806 1 0.495972 0.501945 0.177513 0 0 0 
2489 1 0.510995 0.530183 0.159962 0 0 0 
2490 1 0.512749 0.534274 0.164835 0 0 0 
2485 1 0.517827 0.518173 0.159438 0 0 0 
2484 1 0.516457 0.519056 0.165257 0 0 0 
2481 1 0.513213 0.515434 0.170467 0 0 0 
2483 1 0.518622 0.513156 0.16528 0 0 0 
2480 1 0.513197 0.512451 0.176126 0 0 0 
2482 1 0.519512 0.515327 0.171798 0 0 0 
2486 1 0.520848 0.523373 0.160922 0 0 0 
2487 1 0.515721 0.524858 0.157677 0 0 0 
2488 1 0.517387 0.5298 0.161438 0 0 0 
5867 5 0.512675 0.506267 0.169249 3 0 0 
5820 6 0.182073 0.534416 0.188385 1 1 -1 
2877 1 0.46706 0.523662 0.172448 0 0 0 
2876 1 0.461219 0.524247 0.175989 0 0 0 
2875 1 0.466891 0.525124 0.179141 0 0 0 
2873 1 0.468091 0.530796 0.183748 0 0 0 
2874 1 0.46237 0.528976 0.181869 0 0 0 
2870 1 0.463601 0.535244 0.185336 0 0 0 
2869 1 0.46637 0.539215 0.189913 0 0 0 
2871 1 0.469836 0.537506 0.183252 0 0 0 
2872 1 0.466545 0.534597 0.179082 0 0 0 
2493 1 0.500893 0.537334 0.165378 0 0 0 
2497 1 0.497116 0.548277 0.163222 0 0 0 
2495 1 0.498047 0.544131 0.169115 0 0 0 
2496 1 0.502573 0.547289 0.166129 0 0 0 
2494 1 0.503256 0.541044 0.170483 0 0 0 
2498 1 0.501723 0.551186 0.159667 0 0 0 
2491 1 0.506904 0.535427 0.162125 0 0 0 
2492 1 0.505793 0.534325 0.168305 0 0 0 
3100 1 0.530451 0.53748 0.154028 0 0 0 
3102 1 0.529401 0.53703 0.161127 0 0 0 
3083 1 0.534343 0.549553 0.18082 0 0 0 
3107 1 0.529315 0.529368 0.176379 0 0 0 
3108 1 0.534433 0.530607 0.179446 0 0 0 
3101 1 0.535675 0.537474 0.158408 0 0 0 
3099 1 0.534816 0.54214 0.153371 0 0 0 
3104 1 0.532749 0.532132 0.165354 0 0 0 
3103 1 0.533497 0.5385 0.165569 0 0 0 
3105 1 0.529916 0.53432 0.171034 0 0 0 
3106 1 0.533464 0.528789 0.17183 0 0 0 
1408 1 0.546766 0.54567 0.18706 0 0 0 
1405 1 0.550424 0.548696 0.192137 0 0 0 
1409 1 0.541518 0.54179 0.186428 0 0 0 
5989 5 0.810402 0.518912 0.171755 -3 -1 -4 
7521 6 0.929209 0.516156 0.180401 -3 -3 0 
2499 1 0.496385 0.550342 0.156094 0 0 0 
2501 1 0.493816 0.554159 0.161778 0 0 0 
2508 4 0.500642 0.552773 0.182947 0 0 0 
2504 1 0.498365 0.561347 0.170589 0 0 0 