ITEM: TIMESTEP
20000000
ITEM: NUMBER OF ATOMS
9000
ITEM: BOX BOUNDS pp pp pp
-75 75
-75 75
-75 75
ITEM: ATOMS id type xs ys zs ix iy iz 
5408 6 0.771664 0.0117533 0.0482378 1 -1 -1 
7018 5 0.424353 0.0260516 0.0395722 5 -3 3 
6075 6 0.980884 0.0501215 0.0322132 2 -1 2 
6845 5 0.0607874 0.054861 0.0261673 -3 -5 2 
6030 6 0.713893 0.0565199 0.992468 0 -1 3 
8206 6 0.166448 0.109287 0.983197 -6 1 -4 
6950 5 0.722339 0.103634 0.0527459 1 4 0 
8393 5 0.0660288 0.10342 0.0260691 8 -1 -3 
8955 5 0.646057 0.0524633 0.987875 2 -2 -4 
8383 6 0.294749 0.129537 0.0120063 -3 5 2 
7081 6 0.579815 0.111334 0.0236599 2 -4 2 
6060 6 0.70901 0.154293 0.989876 1 2 0 
5458 6 0.318115 0.185658 0.994355 -3 -1 -5 
7347 5 0.398817 0.155041 0.0477695 0 -1 2 
8639 5 0.990889 0.128182 0.00683854 -3 2 2 
8464 5 0.334539 0.193667 0.0156043 -2 2 -1 
7099 6 0.676907 0.147192 0.977929 4 7 -4 
8763 6 0.300266 0.240669 0.0389955 1 -2 1 
5159 6 0.201461 0.238141 0.0290987 -3 -4 -5 
8099 6 0.253581 0.296828 0.992976 2 -4 0 
8355 6 0.304318 0.278537 0.00457355 -4 1 -1 
8772 6 0.393302 0.252224 0.00510027 3 3 2 
7991 6 0.89715 0.26657 0.00564976 4 1 0 
7100 5 0.192 0.293512 0.0253789 1 7 3 
7317 6 0.337361 0.281646 0.964919 -1 2 0 
7315 6 0.410625 0.259404 0.999614 -1 2 -1 
6647 5 0.298306 0.319536 0.00870976 0 0 4 
5605 5 0.127109 0.321843 0.999827 2 -2 -4 
5694 5 0.586872 0.378658 0.0146429 4 4 2 
5019 6 0.854661 0.371076 0.9963 -2 0 -1 
8036 5 0.757069 0.373259 0.0173194 -4 1 6 
5493 6 0.870307 0.360075 0.0124394 5 2 -1 
8211 5 0.892658 0.357407 0.00381692 3 -4 -2 
6330 5 0.443275 0.397286 0.0308396 -2 3 2 
6884 6 0.565397 0.433078 0.058498 6 1 3 
5550 5 0.652774 0.366904 0.0221518 1 -1 -1 
5067 5 0.946537 0.43994 0.0194277 1 -3 3 
5185 6 0.164973 0.450327 0.996952 -1 -5 5 
7122 5 0.502296 0.42474 0.0100541 2 -4 1 
8384 6 0.451035 0.441312 0.98175 1 4 -4 
8688 6 0.522859 0.434929 -9.78275e-05 0 5 -1 
8636 6 0.712722 0.431858 0.986935 -2 2 -2 
5956 6 0.989354 0.443261 0.0109308 -2 2 0 
6045 5 0.663808 0.461613 0.0181576 0 0 4 
5132 6 0.646147 0.454452 0.0444574 0 1 -2 
8311 6 0.120346 0.422997 0.964655 -2 -6 -1 
5091 5 0.105649 0.513315 0.0211967 -1 0 3 
8031 6 0.419006 0.518385 0.00645145 0 1 2 
7792 5 0.408209 0.522714 0.97102 1 2 -1 
8767 5 0.581826 0.571184 0.97954 -2 -1 5 
5676 5 0.175897 0.581581 0.998028 5 2 -3 
7095 6 0.50355 0.640685 0.974916 2 3 1 
8597 6 0.846554 0.531969 0.0162897 -1 2 -6 
7635 6 0.358092 0.567896 1.00007 -2 -5 4 
7797 5 0.417926 0.598555 0.0490724 0 -1 0 
6722 6 0.578685 0.594923 0.0150035 0 -4 1 
6945 6 0.216395 0.608009 0.0267113 4 0 1 
5523 5 0.0645386 0.673153 0.028392 0 -4 5 
5155 5 0.821747 0.681021 0.991972 -6 0 1 
7332 5 0.0774519 0.68013 0.999071 1 3 2 
5007 5 0.368974 0.714262 0.014696 1 0 4 
7554 6 0.744277 0.682205 0.0394091 -1 2 0 
8984 6 0.130587 0.693066 0.0199613 1 -1 -4 
7967 5 0.232862 0.716476 0.0129237 4 -1 -3 
6940 5 0.327977 0.735312 0.0279448 -1 -3 2 
6178 6 0.399949 0.733418 0.0136248 -1 2 -3 
5686 6 0.00692428 0.779381 0.9883 2 -3 1 
6464 6 0.202579 0.772017 0.0365594 3 -1 1 
5004 6 0.336966 0.76222 0.0169728 4 0 6 
5603 6 0.043679 0.824569 0.993785 -2 1 -1 
5506 5 0.785076 0.812883 0.00225636 -1 1 2 
8656 6 0.481457 0.837985 0.00142389 -3 2 2 
7944 5 0.608427 0.854083 0.0503943 6 -4 -1 
5424 5 0.076813 0.877505 0.0361278 -2 -2 5 
5024 5 0.426995 0.847489 0.978415 -4 -8 -6 
8351 6 0.815637 0.848774 1.00385 0 -1 -3 
5544 5 0.0989145 0.888058 0.010404 3 -7 1 
6142 5 0.535672 0.892563 0.0200278 1 -2 0 
8321 5 0.85911 0.878372 0.0100262 0 -1 -2 
8333 5 0.790755 0.890876 0.0284551 7 -2 -3 
5728 6 0.162109 0.963932 0.984822 0 -4 -4 
6193 5 0.26961 0.917455 0.996415 1 -1 2 
5239 5 0.258045 0.93906 0.00601889 -2 2 -1 
7569 5 0.499854 0.937649 0.00482032 2 1 1 
5845 6 0.741588 0.95641 0.979415 0 -1 1 
5227 6 0.176198 0.994193 0.0401623 -1 -4 1 
7236 5 0.334326 0.976748 0.0301871 0 1 -2 
7775 6 0.416145 0.996509 0.967191 1 -4 -1 
5656 6 0.741372 0.00746988 0.0376599 -6 4 2 
5900 5 0.828434 0.992835 0.985029 -2 -2 4 
6794 5 0.934136 0.98211 0.0137949 2 -5 -1 
7145 5 0.725003 0.98906 0.0286906 0 0 2 
5440 5 0.825468 0.03901 0.0372214 -4 -1 3 
6233 6 0.873728 0.0632657 0.982842 0 5 1 
7747 5 0.946606 0.0846015 0.0475918 0 5 -3 
7299 5 0.0522341 0.0236988 0.0371078 2 3 -1 
5330 6 0.364056 0.115839 0.0793689 0 -3 -1 
8134 6 0.414079 0.0622733 0.0752966 0 0 -1 
8981 5 0.890956 0.0784509 0.00322202 -1 5 0 
8387 6 0.959052 0.0880981 0.0381994 1 0 2 
6962 6 0.627061 0.116631 0.0284635 2 0 2 
8193 5 0.804901 0.120291 0.0263939 -4 -1 -2 
6666 6 0.88192 0.0979628 0.064974 1 -3 0 
7396 6 0.208628 0.10798 0.0271813 -1 -1 4 
8848 5 0.583649 0.143482 0.0367838 -6 4 1 
8972 6 0.85803 0.112672 0.035061 -6 -1 4 
8693 6 0.433733 0.160204 0.0490652 0 -4 4 
8647 5 0.438248 0.162126 0.0638852 -1 -1 3 
7176 6 0.528989 0.133387 0.0267715 -5 1 3 
7772 6 0.850879 0.141346 0.068406 2 6 1 
8699 6 0.843811 0.220997 0.0390995 -4 -3 -6 
8719 6 0.119842 0.213615 0.0817573 1 0 2 
7971 6 0.457262 0.203922 0.0254579 5 1 -2 
7644 6 0.698437 0.225059 0.0470962 -3 4 -2 
5710 6 0.935002 0.22102 0.980072 -4 -2 -3 
8005 6 0.222904 0.238593 0.00605302 5 0 5 
7579 6 0.0615819 0.317135 0.0252256 2 0 2 
6939 5 0.563727 0.357538 0.0306027 2 -4 -1 
5598 6 0.773609 0.30573 0.0687759 3 1 0 
5088 6 0.867395 0.333117 0.0115928 -2 -3 2 
7681 6 0.98787 0.347776 0.0671731 -4 0 2 
7846 5 0.367639 0.365857 0.0804583 -6 -3 3 
6273 5 0.599817 0.368329 0.0927911 2 -2 0 
7843 5 0.749999 0.364017 0.0285615 0 2 0 
5412 5 0.702631 0.371787 0.00714699 0 2 2 
6037 5 0.95642 0.397875 0.98673 5 3 3 
5290 6 0.258146 0.408175 0.0684317 -1 -3 -1 
5762 5 0.731053 0.414477 0.0418669 -1 1 -2 
6831 5 0.935172 0.372917 0.0346647 -2 2 -2 
7625 5 0.024458 0.427996 0.0466466 0 -4 -3 
6902 6 0.189552 0.379892 0.0251436 2 1 1 
6473 6 0.441901 0.432028 0.0385659 0 2 -1 
8785 6 0.699828 0.423288 0.0630717 -2 -1 -1 
6489 6 0.101539 0.457935 0.0709866 -4 -1 3 
6569 5 0.181461 0.465863 0.0453282 1 1 -5 
7976 5 0.245206 0.465242 0.0712495 -1 0 0 
8733 5 0.642373 0.479586 0.0207345 -2 -1 0 
5998 6 0.710307 0.467255 0.0162567 -3 -1 -3 
6541 5 0.187692 0.43406 0.0240669 0 1 -3 
7323 5 0.930445 0.485037 0.0484975 -2 3 7 
7823 5 0.363604 0.49545 0.028941 -2 1 0 
8429 6 0.660728 0.478691 0.0506831 -4 -4 1 
6015 5 0.857393 0.559314 0.0300034 -1 0 6 
5467 5 0.440103 0.504691 0.0242642 2 2 -1 
5927 6 0.786452 0.573437 0.0224962 -1 2 -2 
5050 5 0.856718 0.53512 0.0665803 1 1 1 
7255 5 0.860833 0.552376 0.0260296 0 2 0 
7639 5 0.106421 0.610589 0.0856889 -4 6 -2 
8323 5 0.352506 0.592859 0.0535394 -4 -1 -3 
6044 6 0.400605 0.615345 0.00596624 -4 -1 1 
5051 6 0.784686 0.64607 0.0653493 -3 2 -2 
8059 6 0.607153 0.685943 0.0426666 -2 4 -5 
6503 6 0.798095 0.676914 0.00163271 2 1 3 
6641 5 0.314641 0.702117 0.0559982 2 1 -3 
8291 6 0.499282 0.713622 0.0175368 -2 -3 4 
6477 6 0.404708 0.723325 0.0304457 4 3 1 
5109 6 0.391708 0.761188 0.025033 3 -4 3 
6298 6 0.197378 0.768525 0.0194157 -4 0 0 
8921 6 0.885971 0.800705 0.0399443 -7 3 0 
5634 5 0.6801 0.819933 0.0614721 -3 2 -1 
6285 6 0.0887633 0.834059 0.0271741 3 1 0 
6483 6 0.416933 0.832989 0.0279128 3 -3 3 
8229 5 0.820804 0.820599 0.0619206 -5 -4 -2 
6996 6 0.117821 0.855916 0.0247173 1 4 3 
7783 5 0.0882898 0.880401 0.0313853 2 0 -2 
6585 5 0.245665 0.860091 0.992463 -2 0 -4 
5626 6 0.377015 0.908215 0.0535971 2 -1 1 
5083 5 0.638219 0.88176 0.048526 2 -6 1 
5642 5 0.99501 0.913474 0.0269166 1 -3 -2 
7128 6 0.0136217 0.880937 0.0338881 3 4 2 
8615 5 0.221734 0.914835 0.0359575 0 1 6 
7500 6 0.939692 0.899615 0.0289684 4 2 2 
6726 6 0.134084 0.95197 0.0307696 3 7 7 
5874 6 0.128444 0.0350752 0.032651 7 -1 0 
5119 6 0.0897912 0.949118 0.0147426 -11 -2 -1 
8589 6 0.476893 0.989853 0.055146 -6 1 3 
6799 6 0.628815 0.985386 0.08491 0 -2 2 
8442 5 0.777686 0.993062 0.0374128 -3 1 3 
7490 5 0.782253 0.0303102 0.0679016 1 0 -6 
5824 6 0.295609 0.0986904 0.0321957 5 2 2 
5046 6 0.589058 0.088515 0.0543306 0 2 4 
5486 6 0.354178 0.0834504 0.0966729 -1 0 0 
8758 5 0.350374 0.0778927 0.0648186 1 -6 -1 
6624 6 0.367194 0.123808 0.00600155 3 5 0 
8774 5 0.460536 0.0754795 0.0664416 2 -6 1 
8562 5 0.808393 0.0937494 0.0741092 1 -3 0 
5027 6 0.57358 0.121947 0.0642027 -2 2 0 
5164 6 0.113612 0.154595 0.0318999 -1 2 3 
6027 5 0.27346 0.155882 0.0518928 3 -1 -2 
5457 6 0.630822 0.15805 0.037948 0 1 4 
8226 6 0.539826 0.171708 0.0839891 2 2 4 
5005 5 0.366733 0.240962 0.0577985 -1 -3 -1 
6591 5 0.489042 0.236708 0.0434167 5 -1 -2 
5009 5 0.667682 0.244794 0.0502847 3 7 -3 
6159 5 0.527441 0.253192 0.0492297 1 2 1 
8976 6 0.815106 0.264111 0.0548645 4 -2 3 
7265 6 0.0668023 0.272483 0.0804122 2 3 1 
8766 6 0.22116 0.349909 0.0451815 -3 4 1 
6083 6 0.425836 0.307488 0.0625795 5 0 -3 
8067 6 0.444646 0.337229 0.00814716 -2 1 -2 
8741 5 0.702921 0.258675 0.036083 -1 2 -1 
6800 6 0.832511 0.28 0.036174 -2 -2 -1 
5943 6 0.103132 0.312937 0.06571 -5 1 0 
7669 5 0.545249 0.328184 0.0836358 5 -7 2 
8143 6 0.80958 0.345271 0.0877524 -3 -1 0 
5937 6 0.556285 0.369941 0.0813932 -1 2 1 
8070 6 0.903675 0.398135 0.0847769 4 1 0 
8708 5 0.89666 0.3702 0.0479503 -6 -2 5 
6187 6 0.193927 0.425339 0.0231892 -4 -1 3 
7840 5 0.800504 0.391638 0.0751365 0 0 -4 
5044 5 0.957924 0.422876 0.036755 0 1 3 
6441 5 0.221395 0.42839 0.0670629 2 1 3 
7498 6 0.695928 0.425389 0.0757553 -1 -2 2 
5323 5 0.135333 0.482562 0.0748982 4 -1 3 
8017 6 0.118926 0.435721 0.0507138 0 1 -2 
8251 5 0.0923162 0.508287 0.0533328 -2 1 -5 
7079 6 0.741127 0.503687 0.0559654 4 -2 7 
8269 6 -0.00139391 0.541726 0.0446764 -1 -1 2 
5182 6 0.0897207 0.517485 0.0497266 -2 0 1 
8627 6 0.625036 0.568151 0.0562924 0 1 0 
8128 6 0.24893 0.568929 0.0489116 1 4 1 
5959 6 0.594039 0.583692 0.00473364 2 -3 1 
8281 5 0.855526 0.540016 0.0569415 -2 6 3 
7951 6 0.0639598 0.606079 0.0467189 3 -3 3 
7847 6 0.363474 0.606423 0.0315845 8 -2 1 
7552 5 0.442902 0.622254 0.0288714 4 -1 2 
8163 6 0.728525 0.63556 0.058514 -1 3 0 
5479 6 0.101566 0.623983 0.0862214 -5 -1 1 
8822 6 0.705552 0.669186 0.0889466 1 -1 -2 
5271 5 0.192037 0.64808 0.0311916 1 -2 0 
5371 5 0.517753 0.646557 0.0743999 2 -1 -5 
5909 5 0.0709551 0.67884 0.0354229 3 1 -1 
6221 5 0.669975 0.665655 0.0691987 -4 3 0 
8271 5 0.0777637 0.702979 0.102439 4 2 5 
7221 5 0.15674 0.688952 0.0381612 -1 3 2 
5679 5 0.469077 0.676114 0.0434346 3 3 1 
5695 5 0.624274 0.703621 0.0746181 0 -4 3 
8595 6 0.748313 0.675967 0.0884212 -2 1 -1 
8966 6 0.779575 0.669841 0.0730753 0 -2 -4 
7415 5 0.942879 0.739772 0.0309761 -2 1 2 
7456 5 0.00964842 0.715065 0.040339 3 4 0 
8095 5 0.114513 0.758094 0.0218277 3 0 -1 
6633 6 0.662243 0.764135 0.0659569 -1 -1 -2 
5025 5 0.859228 0.821524 0.0843337 -5 -1 2 
8324 6 0.938627 0.805058 0.0597954 0 0 2 
7147 5 0.984145 0.771771 0.0399988 -3 1 0 
5197 6 0.746735 0.767179 0.0804448 0 0 2 
7343 6 0.125991 0.82337 0.0280778 4 0 3 
7686 5 0.532034 0.791159 0.0707699 1 -1 -2 
6107 6 0.63966 0.79552 0.0665279 2 -2 0 
7460 6 0.561196 0.858239 0.0680796 -5 1 4 
5521 6 0.309177 0.845605 0.0366008 -4 5 5 
8000 6 0.499192 0.850643 0.0569183 0 -2 -1 
7653 6 0.570701 0.86858 0.0557857 -5 -3 1 
8013 6 0.6649 0.840512 0.0191411 2 0 0 
8684 6 0.9531 0.835775 0.0493359 1 -2 -3 
7814 6 0.0564086 0.870569 0.0617607 1 -1 4 
7969 5 0.085156 0.867379 0.0237798 -2 -1 2 
8481 6 0.429772 0.893864 0.0641909 -1 -3 0 
7520 6 0.0615751 0.911265 0.101716 -1 3 -5 
5204 5 0.694607 0.887556 0.0562056 2 1 4 
8761 5 0.167016 0.93423 0.076799 0 -1 4 
8908 6 0.638191 0.963529 0.0632932 -2 4 4 
8358 5 0.975119 0.941602 0.0680624 -4 -6 4 
8695 5 0.484537 0.977727 0.0773058 -2 -4 -6 
5509 5 0.75329 0.98073 0.0504967 0 0 3 
5518 6 0.912391 0.986616 0.122577 0 2 -4 
7470 5 0.298973 0.0172677 0.0531405 2 -2 2 
8107 5 0.466481 0.98355 0.0732772 6 -5 -3 
7804 6 0.532036 0.959911 0.0767022 -3 0 -4 
6752 6 0.489044 0.0532324 0.0506884 2 0 1 
6568 6 0.128501 0.0634251 0.0626832 0 1 -3 
6938 5 0.179192 0.0415915 0.11271 1 3 3 
8877 5 0.474051 0.12079 0.0685947 -1 1 8 
8147 5 0.545549 0.0818175 0.0784799 0 2 1 
8157 5 0.522464 0.118811 0.0986105 0 -2 1 
7473 6 0.663933 0.0945079 0.0419558 -3 0 2 
5512 6 0.915625 0.107545 0.0882094 0 -3 -1 
7600 5 0.251884 0.138971 0.0967127 0 5 0 
7089 5 0.328752 0.125202 0.0759224 0 2 -2 
6353 6 0.594104 0.143598 0.0828857 0 0 3 
8521 6 0.120041 0.183226 0.0358603 3 0 -4 
7839 5 0.22282 0.17788 0.0678163 -4 1 6 
5511 6 0.698993 0.143314 0.0916772 5 3 2 
7364 6 0.911593 0.124498 0.122578 -3 -2 -3 
5884 6 0.0212947 0.2048 0.105118 3 0 3 
8755 6 0.0205385 0.193997 0.0795682 -2 1 4 
8556 5 0.413771 0.188432 0.0956269 1 -2 0 
8038 5 0.694649 0.172922 0.103025 1 6 1 
6470 6 0.821794 0.173215 0.0468104 1 -1 -1 
5108 6 0.361742 0.19588 0.0354073 2 -1 -2 
5975 6 0.421619 0.240121 0.0559309 -5 1 0 
8883 5 0.785908 0.250927 0.0821301 3 5 1 
6248 5 0.955543 0.222545 0.0712828 -2 1 2 
7003 6 0.396731 0.227472 0.0255211 0 7 -1 
7862 6 0.482793 0.231675 0.0823997 1 -3 0 
8439 5 0.263583 0.309023 0.0609968 2 2 2 
6796 6 0.316956 0.29883 0.0717685 1 3 1 
7334 6 0.601851 0.275607 0.0935536 1 1 1 
5069 5 0.730959 0.236219 0.0877967 3 -1 1 
6693 5 0.38755 0.307793 0.0835172 5 -2 0 
5420 6 0.413228 0.329975 0.0938665 0 -1 1 
7032 6 0.443739 0.34136 0.0735574 1 -2 3 
5962 6 0.125644 0.279633 0.08834 -1 -5 -3 
5813 6 0.680392 0.316272 0.099903 0 2 -3 
5765 5 0.0566349 0.337687 0.0875352 0 -1 -4 
8859 6 0.131431 0.33664 0.0900354 7 4 -2 
8700 6 0.214398 0.379095 0.059997 -5 1 9 
6497 5 0.937958 0.367947 0.0617989 -4 -1 0 
5783 6 0.868699 0.383673 0.0658488 0 -2 4 
5526 6 0.355073 0.434021 0.0826748 2 2 -2 
7084 6 0.983829 0.438177 0.0724811 -2 -2 5 
5973 5 0.511815 0.420712 0.0213494 -1 -1 1 
7684 5 0.552103 0.434671 0.0500412 1 -3 1 
5107 6 0.219282 0.447614 0.0997833 -2 1 -2 
8501 5 0.66655 0.455554 0.0395132 1 0 -3 
8795 5 0.804149 0.471606 0.0672253 0 -1 3 
8220 6 0.0318795 0.487207 0.0607707 -2 1 -3 
5111 6 0.5813 0.478605 0.119453 2 2 -1 
6434 6 0.734053 0.472212 0.0580321 4 2 2 
7560 6 0.846875 0.499239 0.0307345 -1 1 2 
8587 5 0.535267 0.47894 0.0802679 -2 -1 3 
6240 6 0.454059 0.544019 0.0725145 -2 -1 -4 
6519 5 0.388736 0.557597 0.0605473 0 2 -3 
6013 6 0.423072 0.566566 0.0728065 0 0 -5 
5502 5 0.0780766 0.580504 0.0715258 -2 2 3 
5231 5 0.140761 0.604455 0.065735 -3 1 2 
7481 6 0.264967 0.613549 0.0956535 -1 -2 2 
7073 6 0.786651 0.584598 0.0838736 -2 1 3 
5944 6 0.540036 0.632912 0.0399829 0 0 1 
8509 5 0.725123 0.583817 0.0300956 -3 -1 -4 
6665 5 0.282024 0.694729 0.103687 0 1 -4 
7271 6 0.369954 0.683119 0.116818 1 2 0 
6220 5 0.552373 0.701318 0.119402 2 -4 -3 
8964 5 0.725807 0.683383 0.0856144 4 1 -1 
6450 6 0.291342 0.72294 0.114765 -1 -4 -2 
6770 6 0.724353 0.712411 0.0824117 -1 2 2 
5331 6 0.96195 0.710519 0.0874864 -1 3 0 
6746 6 0.801661 0.701647 0.0734199 -1 -1 4 
8619 5 0.375085 0.730907 0.0611261 3 -2 3 
7240 6 0.800932 0.750829 0.0778974 -1 2 2 
6324 5 0.201554 0.863394 0.0871797 -1 -2 -2 
7609 6 0.401932 0.829314 0.100516 5 -2 -3 
6701 6 1.00173 0.867102 0.0822891 0 1 2 
6878 6 0.687802 0.901258 0.0614661 0 0 -5 
5121 6 0.844409 0.89416 0.0637938 1 0 1 
5022 6 0.0321133 0.935925 0.0637249 2 2 1 
8873 6 0.423499 0.921796 0.0735346 -4 -1 4 
7371 5 0.344615 0.964578 0.1026 3 -1 -4 
7832 6 0.0483907 0.948739 0.093116 3 2 -4 
7799 5 0.480804 0.0129232 0.0870975 6 3 3 
6059 6 0.965603 0.0498125 0.0968053 -5 1 3 
6707 5 0.276238 0.0923235 0.081048 1 -1 -2 
6139 6 0.537947 0.0674947 0.111838 3 4 -1 
6376 6 0.137556 0.0761428 0.0734734 0 1 1 
5546 5 0.690716 0.108325 0.113057 -2 2 -1 
6662 5 0.0956326 0.140357 0.0849368 2 1 0 
7605 6 0.660476 0.122435 0.109686 -4 -2 -2 
7384 6 0.159645 0.144962 0.07688 2 1 1 
8689 6 0.669497 0.156614 0.111754 1 -3 3 
5140 6 0.48095 0.195547 0.0768569 3 -3 2 
6600 5 0.190627 0.16924 0.0940555 -1 -1 0 
5683 5 0.57666 0.191595 0.111056 1 4 4 
8780 6 0.735383 0.179345 0.0746024 -3 1 0 
7220 6 0.104024 0.231825 0.0828693 2 0 0 
7112 6 0.286094 0.262722 0.0769502 1 0 0 
7805 5 0.298932 0.219679 0.133108 -1 -1 1 
6185 5 0.910214 0.274138 0.119935 2 -2 1 
7556 5 0.0365451 0.257469 0.103824 -1 3 -2 
7314 6 0.612741 0.270888 0.100494 -2 0 2 
7769 6 0.289155 0.305996 0.115853 -2 1 -4 
6759 5 0.103556 0.333671 0.0928033 0 -3 -1 
8306 6 0.897599 0.298768 0.0834715 -2 1 4 
5768 5 0.864722 0.34809 0.133659 1 -1 -3 
7662 5 0.995602 0.309231 0.078274 0 2 2 
6428 6 0.319144 0.357881 0.0618817 0 1 -3 
7907 6 0.538025 0.384038 0.0936974 0 2 1 
7960 5 0.292267 0.349872 0.0958612 0 -1 0 
8381 5 0.140288 0.399343 0.123685 3 1 4 
6392 6 0.466623 0.378678 0.0893453 -3 -5 0 
8209 5 0.624417 0.443164 0.126295 0 1 -4 
5866 6 0.00751686 0.464593 0.12429 0 3 3 
6135 6 0.125081 0.421765 0.0827375 3 2 -1 
8600 6 0.13846 0.426717 0.124804 2 -3 4 
5594 6 0.184551 0.416947 0.11934 3 4 -2 
6750 5 0.247667 0.422088 0.0970426 -2 -4 4 
8276 6 0.227334 0.410111 0.101888 -1 1 -2 
8275 6 0.485959 0.416148 0.094127 3 1 0 
7407 6 0.376964 0.4434 0.0918146 7 1 3 
7070 5 0.0390279 0.52043 0.107086 3 2 -1 
7538 5 0.50025 0.54754 0.0821743 -1 0 1 
6542 5 0.698504 0.531651 0.0908883 3 -1 -5 
7903 6 0.721854 0.530005 0.0881234 2 -1 5 
8510 5 0.141078 0.595625 0.135494 -1 2 2 
7290 6 0.553412 0.555194 0.113469 1 4 3 
5627 6 0.882563 0.663919 0.113283 1 -1 -1 
8631 6 0.185814 0.685329 0.112626 -4 1 -2 
6352 5 0.220887 0.678014 0.0999053 -2 -4 3 
4657 1 0.584499 0.682024 0.10507 0 0 0 
4659 1 0.5857 0.683032 0.111265 0 0 0 
8368 6 0.314091 0.709757 0.102926 -1 0 1 
6017 5 0.515681 0.688817 0.109635 -3 -4 4 
4655 1 0.583433 0.684627 0.0986265 0 0 0 
4650 1 0.583187 0.701761 0.103152 0 0 0 
4652 1 0.587456 0.695302 0.102162 0 0 0 
4649 1 0.57803 0.698899 0.105211 0 0 0 
4651 1 0.584017 0.696279 0.107023 0 0 0 
4660 1 0.583896 0.689067 0.111675 0 0 0 
4658 1 0.589311 0.68578 0.107044 0 0 0 
4656 1 0.588648 0.681988 0.100225 0 0 0 
4654 1 0.588558 0.689112 0.098126 0 0 0 
4653 1 0.584268 0.689896 0.103103 0 0 0 
5173 5 0.933483 0.713367 0.121414 -3 -2 -1 
4647 1 0.576334 0.705269 0.108116 0 0 0 
4648 1 0.576868 0.704539 0.101599 0 0 0 
4646 1 0.575479 0.710698 0.104256 0 0 0 
4644 1 0.575432 0.718017 0.105631 0 0 0 
4645 1 0.57734 0.712846 0.109748 0 0 0 
7795 6 0.527413 0.717557 0.097176 -1 -5 -8 
7501 6 0.641414 0.746658 0.112488 -3 3 -2 
5167 6 0.893223 0.739037 0.122231 3 6 0 
6561 6 0.343396 0.770459 0.136276 -3 -8 5 
8158 6 0.69227 0.816886 0.155906 -3 -2 0 
8060 5 0.774962 0.787157 0.103629 0 -2 -1 
6742 5 0.850922 0.755644 0.100124 0 -2 0 
8601 6 -0.00013763 0.814126 0.0991496 1 4 1 
8528 6 0.817194 0.794431 0.0926144 1 3 2 
8375 5 0.137553 0.833592 0.115485 2 -4 0 
5722 6 0.158562 0.808897 0.0602467 1 0 -1 
6432 5 0.416921 0.808064 0.123803 3 -3 -1 
8457 5 0.059171 0.871448 0.0697057 -1 2 3 
5881 5 0.290414 0.846548 0.126074 -3 -2 1 
6260 6 0.515164 0.846419 0.0836624 -2 -2 2 
5042 6 0.658292 0.835614 0.09391 0 -5 1 
8094 6 0.685705 0.828386 0.101269 3 0 0 
6783 5 0.959036 0.876984 0.0942817 0 -7 -5 
8274 6 0.35569 0.855173 0.100616 2 1 -3 
7203 5 0.443796 0.900007 0.0994675 3 2 -4 
8898 5 0.96853 0.876784 0.0809478 -2 2 -1 
6733 6 0.987537 0.937517 0.12498 -3 2 3 
8912 5 0.813307 0.921534 0.13038 -2 3 0 
6676 6 0.852342 0.943748 0.117013 -3 2 4 
8982 6 0.774452 0.964439 0.0499549 -1 0 1 
8240 5 0.719474 0.970827 0.141741 -4 -5 1 
8959 5 0.315766 0.0226706 0.126069 4 -2 4 
6502 6 0.873719 0.994687 0.104914 0 3 0 
8353 5 0.697636 0.014306 0.128039 0 -4 5 
8334 6 0.629503 0.0271951 0.0951486 1 -4 -3 
7367 5 0.258977 0.0915755 0.123783 2 2 -1 
8332 5 0.747409 0.0345563 0.117661 0 1 -2 
5188 6 0.792582 0.07492 0.138638 1 2 2 
5146 5 0.433723 0.102433 0.123873 -3 2 0 
7442 6 0.963626 0.0899011 0.133047 -1 1 6 
6008 5 0.138608 0.0936427 0.099032 -1 -4 -1 
6129 5 0.00697244 0.13678 0.130112 -1 3 -5 
6110 6 0.361427 0.150751 0.153408 -5 0 5 
5924 6 0.349243 0.134184 0.158892 5 -1 -3 
5303 6 0.46042 0.191728 0.0579164 1 -3 2 
5713 5 0.216176 0.243266 0.159363 1 4 3 
8794 6 0.0115699 0.215092 0.150084 1 -3 1 
5048 6 0.144884 0.281735 0.127178 5 5 1 
7699 6 0.410377 0.264048 0.114225 -1 1 3 
7519 6 0.700041 0.218857 0.0994406 1 0 2 
5141 6 0.828987 0.231949 0.118479 2 -3 -1 
8256 5 0.681738 0.249845 0.130136 -4 1 0 
6050 5 0.810561 0.232133 0.13679 -1 -1 -5 
7732 6 0.831631 0.20442 0.115764 -3 -5 2 
7463 5 0.943403 0.29958 0.0909013 1 0 -2 
8447 6 0.136505 0.280865 0.157478 3 3 -4 
6896 6 0.933217 0.28143 0.0990152 -3 1 -1 
7886 5 0.919235 0.315737 0.148771 2 0 -1 
6976 5 0.379339 0.343434 0.150802 -3 2 1 
8172 5 0.488986 0.350977 0.104515 1 0 -1 
5395 6 0.936711 0.315805 0.111889 0 0 3 
8028 5 0.871981 0.40737 0.139207 -2 3 0 
7288 5 0.0667564 0.392164 0.105746 4 -3 -3 
6088 6 0.954309 0.450402 0.159752 6 -3 2 
6119 6 0.0316234 0.494649 0.127878 1 0 4 
5135 6 0.661455 0.443893 0.146092 -2 0 0 
8971 6 0.982718 0.49924 0.137291 -6 5 3 
6166 6 0.520986 0.517784 0.101318 5 -7 3 
7682 6 0.380532 0.526828 0.107628 -3 0 1 
8374 6 0.527644 0.491614 0.0992254 6 1 2 
6691 5 0.0953521 0.552012 0.14432 5 -2 -3 
5886 6 0.180773 0.635838 0.10798 -4 -1 5 
6117 6 0.271863 0.61237 0.145817 1 -1 1 
7649 6 0.580844 0.59457 0.126354 4 2 1 
8497 5 0.881193 0.595242 0.101908 -2 3 1 
7570 5 0.107481 0.64301 0.11313 0 2 -2 
1789 1 0.683677 0.662417 0.135518 0 0 0 
1793 1 0.695858 0.662439 0.129261 0 0 0 
1794 1 0.7008 0.659457 0.131725 0 0 0 
1792 1 0.69519 0.662361 0.135794 0 0 0 
1791 1 0.68977 0.659893 0.133264 0 0 0 
1796 1 0.698656 0.653249 0.135835 0 0 0 
1797 1 0.693563 0.649721 0.13428 0 0 0 
1795 1 0.696425 0.654812 0.130536 0 0 0 
1081 1 0.732361 0.661739 0.141045 0 0 0 
6307 5 0.169728 0.649377 0.0824608 0 -2 -1 
4686 1 0.552086 0.653475 0.130803 0 0 0 
4680 1 0.553571 0.668891 0.129899 0 0 0 
4681 1 0.5575 0.664112 0.128299 0 0 0 
4684 1 0.548236 0.657921 0.126321 0 0 0 
4682 1 0.551817 0.664336 0.12462 0 0 0 
4683 1 0.554176 0.658428 0.124944 0 0 0 
4679 1 0.558382 0.668593 0.134566 0 0 0 
4685 1 0.550331 0.659487 0.13196 0 0 0 
4687 1 0.550775 0.653575 0.136953 0 0 0 
4688 1 0.556017 0.657284 0.136561 0 0 0 
4667 1 0.5795 0.69104 0.133421 0 0 0 
1785 1 0.670349 0.66526 0.132313 0 0 0 
1786 1 0.676672 0.664913 0.12995 0 0 0 
1783 1 0.66918 0.671099 0.137501 0 0 0 
1784 1 0.673048 0.671189 0.132163 0 0 0 
1782 1 0.672131 0.676614 0.137617 0 0 0 
1781 1 0.666142 0.677367 0.136187 0 0 0 
1787 1 0.676617 0.6649 0.136433 0 0 0 
1788 1 0.68177 0.668477 0.13468 0 0 0 
1790 1 0.688857 0.666115 0.133755 0 0 0 
1080 1 0.72605 0.661192 0.13834 0 0 0 
1082 1 0.730848 0.666608 0.1369 0 0 0 
1083 1 0.731687 0.669147 0.142782 0 0 0 
1084 1 0.7358 0.671209 0.1383 0 0 0 
5325 6 0.779259 0.68989 0.130036 0 2 3 
5483 5 0.824248 0.696923 0.0803143 -2 3 1 
6407 6 0.21986 0.670482 0.14959 0 0 1 
4675 1 0.564925 0.679727 0.132452 0 0 0 
4678 1 0.558672 0.674198 0.131606 0 0 0 
4676 1 0.564155 0.675491 0.136917 0 0 0 
4666 1 0.580254 0.696206 0.129992 0 0 0 
4664 1 0.584932 0.695277 0.124224 0 0 0 
4663 1 0.58655 0.689406 0.121617 0 0 0 
4662 1 0.586547 0.693666 0.116812 0 0 0 
4668 1 0.576594 0.695812 0.137111 0 0 0 
4665 1 0.580835 0.691211 0.126227 0 0 0 
4661 1 0.589236 0.688347 0.114876 0 0 0 
1779 1 0.669621 0.683008 0.139878 0 0 0 
1780 1 0.666917 0.677912 0.142131 0 0 0 
3741 1 0.523395 0.719851 0.134786 0 0 0 
3739 1 0.523537 0.726969 0.130545 0 0 0 
3743 1 0.516936 0.717752 0.13657 0 0 0 
3744 1 0.513255 0.718834 0.131659 0 0 0 
3742 1 0.519949 0.715786 0.131397 0 0 0 
3740 1 0.518538 0.72342 0.131873 0 0 0 
3738 1 0.524174 0.721298 0.127101 0 0 0 
3737 1 0.525599 0.726507 0.123097 0 0 0 
3746 1 0.507398 0.720496 0.136099 0 0 0 
3736 1 0.520953 0.72269 0.120922 0 0 0 
5771 5 0.587525 0.725195 0.122055 0 -2 7 
4642 1 0.578866 0.724781 0.107788 0 0 0 
4640 1 0.583925 0.727197 0.112853 0 0 0 
4641 1 0.583944 0.721679 0.109815 0 0 0 
4635 1 0.591815 0.71958 0.12693 0 0 0 
4636 1 0.594065 0.72274 0.121607 0 0 0 
4639 1 0.583505 0.72213 0.116611 0 0 0 
4638 1 0.590265 0.723745 0.115214 0 0 0 
4643 1 0.57688 0.720376 0.111844 0 0 0 
4634 1 0.598166 0.720846 0.127335 0 0 0 
4632 1 0.600574 0.720844 0.134661 0 0 0 
4631 1 0.595173 0.718468 0.137992 0 0 0 
4633 1 0.597553 0.716288 0.131706 0 0 0 
4637 1 0.589709 0.718646 0.119266 0 0 0 
8337 6 0.0746918 0.71065 0.144086 -5 -1 -1 
7988 6 0.344343 0.736041 0.0967602 -1 -1 1 
7958 5 0.38241 0.732166 0.116708 2 0 2 
3764 1 0.483162 0.731497 0.14474 0 0 0 
3762 1 0.482641 0.724661 0.142364 0 0 0 
3763 1 0.478508 0.727467 0.146279 0 0 0 
3745 1 0.51269 0.724144 0.135694 0 0 0 
3733 1 0.516967 0.728801 0.126519 0 0 0 
3727 1 0.517466 0.74126 0.137109 0 0 0 
3728 1 0.51252 0.736843 0.135305 0 0 0 
3730 1 0.509919 0.737355 0.128858 0 0 0 
3735 1 0.519345 0.728408 0.118852 0 0 0 
3725 1 0.515954 0.740873 0.144087 0 0 0 
3734 1 0.513997 0.725548 0.121657 0 0 0 
3732 1 0.51117 0.730928 0.124985 0 0 0 
3726 1 0.511807 0.742829 0.139672 0 0 0 
3729 1 0.515493 0.740136 0.130178 0 0 0 
3731 1 0.514349 0.736557 0.124273 0 0 0 
9000 6 0.534083 0.727715 0.136608 0 0 -4 
6114 5 0.809793 0.744003 0.128726 1 -3 -1 
8927 6 0.615412 0.710392 0.156986 4 -1 0 
7417 5 0.990982 0.783211 0.11546 -2 1 3 
6827 5 0.814544 0.758395 0.163563 3 -8 1 
6871 5 0.610175 0.779704 0.0974808 0 -2 2 
7723 6 0.836069 0.819818 0.107854 5 -1 2 
7459 6 0.89661 0.819474 0.0911658 0 1 3 
6765 5 0.994154 0.814398 0.133692 -1 -1 -1 
7543 6 0.554362 0.840564 0.10519 0 0 1 
8048 5 0.662227 0.81599 0.118453 3 -1 1 
6614 5 0.988637 0.877684 0.142316 -4 2 0 
5447 6 0.148465 0.86746 0.124804 -7 0 -2 
6646 5 0.653632 0.885114 0.119272 -6 1 3 
7282 6 0.68262 0.814999 0.135959 1 1 -1 
7189 5 0.688514 0.861594 0.0897775 -1 -1 1 
8989 6 0.263235 0.87804 0.159094 -1 -4 -8 
8127 6 0.384496 0.932716 0.132677 0 0 -4 
8082 5 0.571706 0.888793 0.11543 4 2 -2 
7276 5 0.620113 0.895096 0.102264 3 -1 1 
6239 6 0.67987 0.906474 0.134021 -5 -3 1 
8214 6 0.178033 0.915662 0.110829 -7 2 -1 
7238 6 0.531544 0.926414 0.13293 5 1 2 
5878 6 0.192135 0.893261 0.127909 4 -1 2 
6970 5 0.399486 0.913597 0.141398 -1 -2 5 
6361 6 0.859163 0.991118 0.136472 -1 2 -3 
6018 6 0.210936 0.968831 0.0802349 -5 0 7 
7931 6 0.575959 0.968849 0.133406 0 1 5 
6237 6 0.995244 0.98392 0.122921 -4 2 1 
5888 6 0.401337 0.0170201 0.164429 -3 2 1 
6469 6 0.522735 0.0317634 0.14762 2 9 0 
8673 6 0.29823 0.0379256 0.147285 5 -3 1 
8434 5 0.387573 1.00209 0.124644 -3 -3 1 
8634 5 0.620925 0.0454383 0.140921 -1 0 1 
6941 5 0.41947 0.0612969 0.168476 0 -3 3 
7661 6 0.514832 0.0681007 0.135505 2 -4 2 
6865 6 0.553705 0.0660357 0.163458 -3 -3 2 
5950 6 0.65979 0.0827905 0.166811 1 -6 0 
8932 6 0.827286 0.062408 0.169598 -2 -2 1 
6780 6 0.378551 0.0995814 0.1759 6 0 5 
5819 6 0.699906 0.0989191 0.0733041 0 3 4 
6903 5 0.979642 0.155602 0.139443 2 1 -2 
6628 6 0.314607 0.12329 0.123597 -3 3 1 
7406 6 0.346282 0.156592 0.123789 -3 -2 1 
7305 6 0.340175 0.127644 0.156656 3 1 5 
7471 5 0.370698 0.127012 0.161179 -2 2 -5 
6070 5 0.759793 0.245013 0.140367 5 2 -6 
7896 6 0.991637 0.220706 0.108891 0 7 -2 
6074 6 0.232662 0.298934 0.127855 1 0 4 
7186 5 0.766621 0.313939 0.17068 2 1 0 
5836 6 0.0961601 0.307958 0.174994 5 -2 -3 
5049 5 0.0329927 0.330456 0.155846 1 1 1 
5717 6 0.648054 0.343679 0.139255 3 3 0 
8264 6 0.900128 0.350952 0.162057 2 1 1 
7353 5 0.992995 0.316516 0.170018 -1 3 -1 
5410 6 0.187583 0.365431 0.145986 2 0 -1 
8467 5 0.153208 0.318494 0.165409 -2 -1 10 
7641 6 0.266991 0.386768 0.150942 -5 2 1 
5912 6 0.946324 0.378763 0.157952 0 3 1 
8579 6 0.872302 0.377562 0.151101 -5 -4 1 
8729 6 0.750567 0.386876 0.178415 -5 0 -2 
6263 6 1.00378 0.457895 0.0875955 -1 2 5 
5772 6 0.931745 0.393926 0.137952 3 3 2 
7573 6 0.580482 0.423726 0.127426 0 -1 -2 
5397 6 0.828145 0.461294 0.16244 2 -1 2 
7412 6 0.94834 0.445823 0.133101 -2 8 -4 
6388 6 0.937326 0.459468 0.16868 -3 3 2 
6697 6 0.146377 0.50687 0.120537 0 -4 2 
6527 6 0.322021 0.503271 0.117916 0 1 0 
8029 5 0.165278 0.513 0.144368 0 1 0 
6284 6 0.544463 0.510179 0.139047 -2 1 1 
5610 6 0.835901 0.537875 0.133773 -5 2 2 
5270 5 1.0038 0.580659 0.185736 2 1 3 
8947 6 0.787939 0.539126 0.156342 -4 0 -1 
8200 6 0.61216 0.614849 0.124325 -1 -1 2 
8681 5 0.291471 0.607775 0.158286 -3 -1 5 
1808 1 0.696385 0.629884 0.158479 0 0 0 
1807 1 0.690166 0.630047 0.158144 0 0 0 
1806 1 0.692957 0.627745 0.152147 0 0 0 
1805 1 0.689605 0.633541 0.151814 0 0 0 
1804 1 0.694695 0.633589 0.147532 0 0 0 
1802 1 0.691458 0.639696 0.149044 0 0 0 
1803 1 0.689686 0.636004 0.14442 0 0 0 
5426 5 0.693875 0.638323 0.15717 2 1 -1 
1799 1 0.69288 0.648468 0.142124 0 0 0 
1798 1 0.697811 0.646207 0.138172 0 0 0 
1800 1 0.695746 0.64298 0.144079 0 0 0 
1801 1 0.689457 0.643138 0.144052 0 0 0 
1079 1 0.725774 0.663477 0.144048 0 0 0 
1072 1 0.711759 0.647793 0.1529 0 0 0 
1071 1 0.710811 0.647004 0.14679 0 0 0 
1073 1 0.710787 0.653853 0.150768 0 0 0 
1075 1 0.716405 0.652401 0.146737 0 0 0 
1076 1 0.717793 0.658417 0.148251 0 0 0 
1074 1 0.716451 0.653198 0.153425 0 0 0 
1077 1 0.722709 0.656712 0.144802 0 0 0 
1070 1 0.70735 0.642249 0.150127 0 0 0 
7779 5 0.710981 0.635278 0.147808 -2 -5 0 
1068 1 0.710526 0.640372 0.156079 0 0 0 
7565 5 0.840555 0.656398 0.171159 0 0 -1 
6459 5 0.882102 0.656212 0.157532 -3 5 -1 
4673 1 0.567738 0.68422 0.137394 0 0 0 
4689 1 0.554433 0.656036 0.142552 0 0 0 
4691 1 0.549219 0.659858 0.145464 0 0 0 
4690 1 0.550679 0.660811 0.139896 0 0 0 
4693 1 0.551842 0.664555 0.15121 0 0 0 
4694 1 0.557442 0.661433 0.151221 0 0 0 
4695 1 0.557159 0.665171 0.156098 0 0 0 
4692 1 0.55437 0.66394 0.145255 0 0 0 
4669 1 0.576191 0.689895 0.140386 0 0 0 
4671 1 0.570351 0.687676 0.14349 0 0 0 
6151 5 0.657119 0.680431 0.161067 -1 1 -1 
7981 6 0.687728 0.666191 0.156239 -2 -5 -2 
1078 1 0.719803 0.662161 0.142285 0 0 0 
5558 5 0.725547 0.679452 0.173435 3 -1 8 
1094 1 0.734382 0.673779 0.16534 0 0 0 
1086 1 0.737894 0.675193 0.144094 0 0 0 
1085 1 0.739428 0.668908 0.143845 0 0 0 
1088 1 0.740783 0.672322 0.150058 0 0 0 
1087 1 0.74469 0.673324 0.144636 0 0 0 
1089 1 0.743783 0.678094 0.150178 0 0 0 
1090 1 0.743634 0.675585 0.155962 0 0 0 
1091 1 0.740268 0.680924 0.156656 0 0 0 
1092 1 0.740953 0.677247 0.162002 0 0 0 
1093 1 0.734796 0.678766 0.161329 0 0 0 
7881 5 0.891937 0.646021 0.153202 -2 -4 1 