ITEM: TIMESTEP
20000000
ITEM: NUMBER OF ATOMS
9000
ITEM: BOX BOUNDS pp pp pp
-75 75
-75 75
-75 75
ITEM: ATOMS id type xs ys zs ix iy iz 
7542 6 0.220144 0.0101462 0.0337005 2 0 -4 
8481 5 0.485528 0.979909 0.0148219 -1 -4 4 
6213 6 0.760244 0.0163841 0.0268235 1 1 -3 
6883 5 0.996453 0.989955 0.0950715 -2 0 2 
7143 5 0.846701 0.0320271 0.00347347 2 1 4 
6898 5 0.0769619 0.0564237 0.983346 5 -2 -1 
7413 5 0.469863 0.0761563 0.998191 -2 0 0 
7397 6 0.526749 0.075857 0.0128438 -3 1 3 
8021 5 0.642536 0.0965076 0.9972 -6 5 -2 
7765 6 0.139411 0.124276 0.969817 -1 -3 -2 
6314 5 0.378673 0.0940002 0.0318977 1 1 -4 
8141 5 0.428076 0.107143 0.985425 -1 2 -5 
6439 6 0.853796 0.126196 0.0296999 0 1 -2 
6222 6 0.297976 0.19934 0.0344558 -2 -3 -2 
9000 5 0.569228 0.201782 0.990053 -7 4 5 
6313 6 0.620835 0.213258 0.0292449 2 1 -2 
6637 6 0.950758 0.190926 0.969324 0 -2 -3 
7990 5 0.592439 0.215276 0.0149002 0 -1 1 
5682 6 0.73479 0.188692 0.0234827 2 0 0 
8376 6 0.191712 0.240549 0.0146932 -1 -2 3 
8690 6 0.604656 0.28305 0.0340039 0 2 0 
5155 5 0.0239999 0.257417 0.030883 0 -1 -3 
7295 6 0.49927 0.274455 0.0038495 2 0 -1 
7022 6 0.699567 0.304023 0.995052 -4 1 -2 
5594 6 0.270983 0.28349 0.990473 -2 -2 0 
5323 5 0.329386 0.320545 0.99847 -4 -2 4 
7045 5 0.583207 0.350633 0.0323809 5 -2 -2 
5997 5 0.279044 0.351499 0.0394981 -2 -1 0 
5835 6 0.361587 0.363803 0.999832 1 0 -1 
8957 6 0.411931 0.37446 0.0527354 2 3 1 
6254 6 0.839283 0.350894 0.0310233 -4 2 -5 
6031 6 0.526029 0.373137 0.00477788 -1 3 -3 
6157 5 0.587652 0.389906 0.97531 0 -5 -1 
8280 6 0.631243 0.354079 0.0162207 1 -6 0 
7478 6 0.716842 0.362721 0.973394 -5 5 -1 
8591 5 0.101471 0.398465 0.0190047 0 -1 -3 
8455 6 0.456577 0.410646 0.0354945 1 5 -2 
5514 5 0.487213 0.403179 0.986972 4 -4 -2 
7839 6 0.492832 0.371439 0.0222562 0 -2 1 
5649 6 0.695413 0.447787 0.0639729 2 -3 -2 
7422 5 0.26189 0.41513 0.0208088 2 -1 2 
6548 6 0.641184 0.452648 0.00452542 3 0 2 
6119 6 0.639547 0.483336 0.00707158 2 0 1 
5862 5 0.288312 0.475497 0.972943 -2 -2 -3 
5950 6 0.347732 0.493702 0.0297216 -3 4 4 
5288 5 0.502181 0.510543 0.0260976 -1 -3 -1 
7396 5 0.604482 0.514407 0.00127507 2 2 1 
7803 6 0.940301 0.529293 0.0304279 1 0 0 
5360 5 0.394528 0.556036 0.0319819 6 -3 3 
6128 5 0.805392 0.533858 0.0517605 -1 2 3 
6933 6 0.658902 0.586155 0.0229634 1 -1 1 
5815 6 0.705479 0.642799 0.0383528 0 2 0 
6447 5 0.881762 0.697735 0.989399 -2 2 -1 
7270 6 0.868543 0.659049 0.990123 -1 0 2 
8278 5 0.706586 0.674693 0.0354025 3 -6 2 
6682 5 0.729674 0.688005 0.0323727 0 1 -1 
8511 6 0.553202 0.732766 0.017032 0 1 3 
5286 6 0.519812 0.781338 0.960188 2 3 -4 
5296 5 0.268565 0.756078 0.0393299 1 -2 3 
8221 6 0.362234 0.726193 0.0135811 0 6 -2 
7729 5 0.391392 0.818663 0.0227065 4 -3 0 
6373 6 0.548167 0.809461 0.0363669 -1 -2 -1 
7679 6 0.487344 0.781521 0.989509 0 1 -1 
5525 6 0.323503 0.802176 0.980444 -2 -1 -1 
8039 5 0.659895 0.893247 0.0209561 -7 2 0 
5547 5 0.00191509 0.810504 0.962589 -3 -4 0 
5285 6 0.0159842 0.838667 0.995399 2 5 -2 
7499 6 0.547676 0.9112 0.998965 5 -2 3 
5928 6 0.907275 0.836801 0.0285149 -2 0 1 
7109 5 0.130909 0.889852 0.00303011 3 -7 0 
6109 6 0.28853 0.878935 0.987447 3 -1 -2 
6527 5 0.939514 0.892181 0.0163323 0 -1 5 
5297 5 0.302384 0.914293 0.97724 4 1 2 
6379 5 0.834558 0.891753 0.0103595 2 -1 4 
7313 6 0.875598 0.878888 0.019417 2 -5 2 
7522 5 0.574025 0.889997 0.0331188 2 2 -3 
7512 6 0.367707 0.967481 0.988825 0 -2 -2 
5704 6 0.889423 0.961312 0.00561738 1 1 1 
5706 5 0.91652 0.990095 0.998083 0 4 1 
7529 6 0.022387 0.951228 0.0117091 -1 -3 1 
8101 5 0.0961252 0.0146989 0.0307929 1 -1 -2 
7953 6 0.0583624 0.00800229 0.0732488 -1 -1 2 
8132 5 0.117868 0.0474296 0.0352488 -2 -4 2 
6005 5 0.288159 0.0286589 0.0187287 -1 -2 -2 
8525 6 0.342147 0.999146 0.0392265 -1 0 1 
8964 5 0.846083 0.0719426 0.0327251 -5 -1 -3 
8671 5 0.950854 0.0806103 0.0295038 -1 1 3 
8291 5 0.811255 0.13974 0.0243929 3 -6 1 
6600 6 0.785434 0.150571 0.0542581 -1 0 -2 
6341 5 0.149684 0.138504 0.0468743 -2 2 -3 
8247 6 0.210605 0.15016 0.023287 0 0 2 
5194 6 0.716515 0.135333 0.0298596 -1 1 2 
5451 6 0.145635 0.208471 0.0597271 -1 2 -1 
8341 6 0.488506 0.160601 0.0450069 1 -3 0 
6202 6 0.0692991 0.152534 0.0531233 2 1 3 
6398 6 0.373483 0.206248 0.0281845 2 0 -3 
6334 5 0.734854 0.181673 0.0350108 0 -1 2 
7286 5 0.72292 0.202552 0.0491977 -1 2 -1 
5137 6 0.0348353 0.241445 0.0333737 2 4 -3 
8331 6 0.676554 0.266785 0.0287885 3 3 1 
8932 6 0.0410489 0.234051 0.0331285 -2 -3 0 
6575 6 0.51967 0.206237 0.0445887 -2 0 4 
6542 6 0.46276 0.268549 0.0390459 -3 5 -5 
5976 5 0.575565 0.249467 0.0340713 1 0 -4 
8812 6 0.560672 0.284562 0.0410393 1 -2 5 
8683 6 0.948647 0.23426 0.0648677 -4 0 1 
5439 6 0.58109 0.284886 0.0693506 4 2 -10 
8903 5 0.683619 0.298686 0.00605296 0 0 3 
6824 5 0.957591 0.275413 0.0190867 0 5 1 
8237 6 0.98776 0.3049 0.025927 -5 -4 3 
7657 5 0.316215 0.324868 0.0311937 -3 4 4 
8917 6 0.231202 0.343161 0.0674178 3 2 2 
7719 5 0.304977 0.339641 0.999765 5 4 -1 
7371 6 0.667024 0.372453 0.0395751 -2 1 0 
8146 5 0.902489 0.326336 0.0486631 -4 -1 -1 
7502 6 0.443959 0.402157 0.0358329 0 2 -4 
7892 5 0.406736 0.420036 0.0201215 2 0 1 
5819 6 0.179442 0.437238 0.0120843 1 0 0 
5995 6 0.45855 0.418312 0.0419104 -2 -2 4 
8329 6 0.597932 0.438128 0.0228709 -4 -4 2 
6810 6 0.657494 0.461756 0.0416549 0 -2 -1 
6023 5 0.0791737 0.493584 0.0287903 4 -1 8 
8952 6 0.884336 0.447832 0.0468536 -1 2 1 
8684 6 0.904903 0.475668 0.0291886 1 2 0 
8357 5 0.121922 0.574361 0.0401194 2 4 1 
6590 6 0.311036 0.482292 0.974935 -3 -3 -2 
7337 5 0.477983 0.538106 0.0021903 4 1 3 
7587 5 0.167214 0.579957 0.0419883 -4 -2 5 
7368 5 0.20658 0.600476 0.0570679 -1 -1 3 
6246 5 0.794951 0.603237 0.0277594 3 0 7 
7318 5 0.866472 0.594246 0.0313957 -1 5 5 
7289 6 0.00910429 0.548466 0.0409147 2 -2 3 
5590 6 0.0903407 0.58736 0.0306085 -3 2 -2 
5025 5 0.483975 0.608158 0.0548455 6 -4 -5 
8323 5 0.477941 0.582971 0.0165727 -1 -4 1 
7179 5 0.491299 0.601948 0.992828 2 4 -2 
6413 5 0.954531 0.57842 0.00174081 3 -2 -2 
7117 5 0.504766 0.636156 0.0556133 3 5 5 
6421 6 0.543017 0.627613 0.0421557 2 4 4 
6126 5 0.577468 0.611213 0.0299191 2 -1 4 
5753 6 0.139992 0.632602 0.0518153 -3 3 1 
6382 6 0.323978 0.635906 0.0416501 -8 -2 -4 
6793 6 0.998585 0.685263 0.0366096 3 -6 4 
8265 5 0.0756351 0.682206 0.0533653 0 1 -1 
7576 6 0.322216 0.662645 0.0321294 4 -3 2 
6518 5 0.402982 0.675564 0.00387578 -3 -3 9 
7630 5 0.56258 0.665417 0.0375362 -4 3 -2 
6595 5 0.901539 0.668135 0.0179452 -3 -3 2 
5257 6 0.186775 0.720152 0.0435692 -2 -2 -4 
8951 6 0.630559 0.723124 0.0340674 -1 1 1 
5665 6 0.67642 0.698302 0.0174604 -6 -2 -1 
8999 5 0.75689 0.716492 0.0599798 -2 -1 -5 
7860 5 0.908091 0.736036 0.0470593 0 -7 -3 
6021 6 0.640665 0.778989 0.0709507 2 -1 0 
8789 6 0.469726 0.772763 0.039736 0 -3 1 
8210 5 0.566323 0.787018 0.0609776 1 0 -2 
5732 6 0.772929 0.807474 0.997417 0 -8 1 
8307 6 0.017318 0.76734 0.0492729 0 -2 4 
8306 5 0.162329 0.807137 0.0407842 6 1 -3 
5226 5 0.406278 0.819135 0.036666 -2 -2 2 
6784 5 0.331733 0.863428 0.0133873 1 -3 0 
5062 6 0.466969 0.861176 0.052669 2 -8 2 
6534 6 0.844067 0.8244 0.0823981 -3 -3 1 
6910 5 0.890559 0.853633 0.0388094 -4 0 -4 
7503 6 0.411819 0.869605 0.0233916 -4 1 -3 
7219 6 0.597882 0.864629 0.0466857 -1 0 1 
6216 6 0.100277 0.935596 0.0457081 4 2 0 
6332 5 0.455184 0.884808 0.0373203 2 -6 2 
7714 6 0.711633 0.867361 0.0244007 2 -2 3 
6962 6 0.533827 0.905131 0.0382433 1 -5 0 
5446 6 0.917008 0.902977 0.0198695 -2 2 -2 
8434 5 0.57182 0.946897 0.0337944 1 1 2 
7571 5 0.605656 0.917607 0.0260675 5 -8 0 
5549 5 0.70314 0.933534 0.0538003 -2 -3 -2 
6777 5 0.320667 0.997912 0.996641 0 3 -1 
5829 5 0.541756 0.980077 0.0471282 -3 -2 -6 
7460 6 0.0393634 0.997838 0.047286 2 -1 1 
7683 5 0.00585287 0.00129563 0.0413597 3 -2 2 
6877 6 0.0363553 0.027993 0.076644 -6 1 1 
7698 5 0.2747 0.0832395 0.0585851 -1 -1 1 
5708 6 0.681692 0.0315598 0.0454496 -4 1 -1 
7344 5 0.910331 0.0458983 0.0492926 -4 2 5 
6169 6 0.753351 0.0507247 0.0830962 -5 1 5 
6155 5 0.838261 0.0468528 0.0570876 1 -2 6 
8016 5 0.0929138 0.123638 0.0156191 -5 0 2 
6309 6 0.439134 0.0455205 0.0772623 -2 -5 -1 
8966 5 0.0813675 0.110255 0.00814033 -2 1 2 
8465 6 0.532106 0.127421 0.0500213 -2 -2 -4 
5115 5 0.406118 0.115373 0.0496111 2 1 -5 
7239 5 0.461999 0.136045 0.0536581 4 0 2 
6071 6 0.710733 0.166472 0.0634704 -5 -4 -3 
6684 5 0.859392 0.139105 0.0404338 0 -4 1 
8770 5 0.130632 0.196719 0.0195851 1 -2 3 
7660 5 0.33002 0.191779 0.0479295 2 4 -4 
5366 6 0.972641 0.21118 0.0499804 -1 -3 5 
7812 5 0.729699 0.241482 0.0130897 3 1 4 
8755 5 0.73341 0.305852 0.0264887 4 2 1 
5124 6 0.246573 0.281495 0.0803229 -1 1 -1 
8644 5 0.338081 0.320153 0.0579339 0 2 -3 
5148 6 0.497447 0.337142 0.0808686 -5 1 4 
6070 5 0.612356 0.373199 0.077089 -1 -1 -3 
5390 5 0.116918 0.346078 0.0451954 1 2 4 
7365 6 0.653955 0.371674 0.086919 -1 -1 0 
6981 5 0.0581076 0.435124 0.0995134 -2 3 -4 
8750 5 0.706565 0.401618 0.0132588 -5 -2 -3 
5195 6 0.851106 0.420647 0.0583225 -2 3 -4 
5374 6 0.142911 0.421834 0.0379879 -2 4 0 
5243 5 0.478585 0.445591 0.0663749 1 0 5 
8594 5 0.557344 0.460966 0.0993978 2 4 -2 
6989 6 0.337521 0.440874 0.0710886 2 -3 3 
7145 5 0.863506 0.477551 0.0786184 -2 0 2 
6751 6 0.90017 0.485939 0.0700425 -5 3 1 
7859 5 0.161015 0.506397 0.0646491 0 -3 2 
5458 5 0.666504 0.506248 0.0465109 -1 -1 -1 
7092 5 0.665622 0.505181 0.0610276 -3 -5 3 
5520 5 0.858711 0.528448 0.055739 0 -4 1 
7080 5 0.415911 0.514627 0.0682588 -2 0 2 
7504 5 0.852825 0.570245 0.0544839 6 -2 3 
5237 6 0.763871 0.593883 0.108707 -5 -2 -3 
7094 5 0.966027 0.581157 0.0826588 -3 1 0 
7317 6 0.0133972 0.585304 0.0514226 6 -2 1 
5372 5 0.361837 0.6272 0.0409642 -1 0 4 
6438 5 0.96948 0.62953 0.0425143 4 1 -2 
5112 6 0.279716 0.672017 0.0564943 -3 -1 4 
5455 6 0.473079 0.648614 0.0935935 -4 0 2 
5278 5 0.351984 0.668222 0.0555112 -1 -5 7 
7976 6 0.538924 0.696653 0.048843 2 -2 1 
8798 5 0.975058 0.654272 0.0400038 4 -2 3 
5066 6 0.8054 0.741602 0.0568113 -7 1 7 
5040 6 0.440431 0.695956 0.079673 2 3 -1 
5699 6 0.730542 0.769228 0.0324304 -2 5 0 
7252 5 0.809248 0.729035 0.0451437 3 0 1 
5527 5 0.258685 0.741617 0.0539657 1 -2 -2 
7172 5 0.407518 0.778715 0.0228272 -3 1 1 
6611 6 0.108198 0.729018 0.0620605 0 -6 2 
7868 5 0.631061 0.777381 0.0173139 -2 0 -3 
7166 6 0.391913 0.768355 0.0440653 4 0 4 
8655 6 0.850078 0.796104 0.0778734 1 4 2 
5947 5 0.958525 0.749035 0.0682568 -2 -2 0 
7672 6 0.258461 0.826567 0.0655817 1 -6 2 
5270 5 0.265397 0.7634 0.0435206 -6 -4 2 
7849 5 0.40189 0.785076 0.0576468 0 -1 -1 
7521 5 0.514328 0.774153 0.0761891 1 6 3 
5271 6 0.209909 0.832115 0.058404 -1 2 2 
8878 5 0.310891 0.84939 0.0893357 5 -3 2 
5027 6 0.784222 0.822298 0.057817 -2 -2 3 
6177 6 0.0993883 0.82446 0.0458478 -1 -1 1 
6441 6 0.0793499 0.8588 0.0249224 3 -3 -2 
8699 6 0.00355423 0.91732 0.0676417 1 0 2 
6930 6 0.195279 0.895416 0.034713 3 -3 -2 
7677 5 0.662558 0.885723 0.111245 4 2 1 
7924 6 0.974993 0.881616 0.0546475 -4 3 0 
6495 6 0.215887 0.940118 0.0514586 -2 -3 -2 
6044 5 0.898997 0.964885 0.0577996 0 2 2 
8658 6 0.673104 0.00691915 0.107402 1 2 -1 
8520 6 0.328538 0.0503666 0.0408513 -3 -1 2 
7389 6 0.850596 0.0295743 0.0858343 -2 4 4 
7952 6 0.331773 0.0351525 0.10193 1 -1 1 
8484 6 0.871033 0.0914352 0.0396678 1 -2 2 
5492 5 0.276302 0.131557 0.0870694 0 -3 6 
6144 6 0.725468 0.094333 0.0652311 0 2 5 
6133 5 0.935546 0.109675 0.106879 1 -2 -4 
5073 5 0.505697 0.160569 0.0358561 -5 -4 -1 
6090 6 0.540878 0.15846 0.0801325 -1 1 -1 
8685 5 0.425198 0.124818 0.0518463 -1 3 -1 
6323 6 0.747918 0.158311 0.0374838 -1 0 4 
8838 5 0.213368 0.18237 0.0618733 7 0 2 
7662 6 0.157247 0.181685 0.0384322 4 -4 3 
6901 5 0.248564 0.235787 0.0610404 6 1 -2 
5561 6 0.870786 0.235034 0.0825687 0 -5 -1 
6469 5 0.732155 0.288443 0.0839022 -1 -3 0 
6622 5 0.843453 0.299021 0.10444 0 -2 0 
7862 5 0.194558 0.292494 0.0802147 -3 -1 1 
7443 5 0.775936 0.310134 0.103991 8 1 1 
6747 6 0.839372 0.30457 0.0546118 1 4 2 
8231 5 0.826339 0.284427 0.0778161 -3 -1 1 
6583 6 0.109072 0.287446 0.0627276 2 3 1 
8395 5 0.322446 0.356666 0.0908857 -2 -2 7 
5308 6 0.508426 0.342472 0.0971709 -3 -1 1 
5102 6 0.543241 0.348171 0.0957461 -1 2 -2 
5416 6 0.554657 0.31709 0.0642294 -2 0 3 
7351 6 0.647044 0.353582 0.0671583 0 4 1 
6975 6 0.755006 0.372978 0.0795404 -1 -1 2 
6996 6 0.0298316 0.399539 0.0818815 1 4 -2 
5478 6 0.0596878 0.409943 0.0671114 0 -3 -7 
6146 6 0.118788 0.438995 0.122108 3 -2 -3 
7131 5 0.0124322 0.4367 0.113101 3 0 -1 
8800 6 0.403399 0.422317 0.103356 -3 -4 3 
6774 6 0.735075 0.415523 0.044662 -5 0 -4 
5093 6 0.831769 0.450629 0.0766447 0 2 -3 
7266 6 0.137747 0.474566 0.0777272 -1 -3 3 
5910 6 0.165766 0.44634 0.0595161 0 3 1 
8124 5 0.930424 0.526389 0.101638 1 -2 5 
8242 5 0.0592977 0.557747 0.0968694 0 0 1 
5318 6 0.502933 0.519014 0.0567288 1 4 -1 
5085 6 0.343872 0.594437 0.0717277 2 -7 -1 
5488 5 0.498943 0.50143 0.10378 1 2 -2 
6689 5 0.573284 0.558254 0.10013 1 -1 0 
6564 5 0.00883415 0.579699 0.0741991 -1 0 1 
7417 6 0.251513 0.598714 0.0854228 1 -2 2 
6936 5 0.390485 0.589188 0.0696296 4 1 2 
6176 6 0.076046 0.627427 0.0706586 4 2 -1 
6705 6 0.407239 0.618659 0.0901752 -1 3 3 
6569 5 0.670347 0.627923 0.0806712 -3 -3 3 
7607 6 0.84023 0.616161 0.0899086 -2 -1 -2 
6471 6 0.268643 0.684392 0.0515984 1 1 -1 
5509 6 0.849301 0.686066 0.0899047 -1 1 1 
6417 5 0.291479 0.7145 0.103512 1 4 -4 
7964 6 0.493393 0.732039 0.0752381 4 -1 3 
8617 6 0.377034 0.715415 0.0775063 0 -6 -1 
8978 6 0.98173 0.771127 0.0841952 -2 -1 6 
8609 6 0.102583 0.744009 0.0837786 -1 -4 -1 
7292 6 0.144693 0.800303 0.13115 -1 -3 0 
6667 6 0.459836 0.80604 0.0767715 4 -5 -1 
7421 6 0.634785 0.789734 0.0840057 10 -2 0 
7755 6 0.0455279 0.7957 0.0932817 1 0 -7 
6836 6 0.433184 0.811959 0.0818341 -4 0 -3 
7925 5 0.593658 0.82675 0.0603322 1 1 -1 
5436 6 0.834344 0.842585 0.109736 1 -4 4 
7554 5 0.219536 0.86722 0.0969413 -3 1 -1 
7383 5 0.36407 0.84357 0.0882228 -4 0 -1 
6116 5 0.7827 0.859438 0.0551032 4 -9 1 
5602 6 0.975644 0.841331 0.0890863 -4 -1 -1 
5944 6 0.288277 0.86687 0.0709404 1 1 -2 
6234 6 0.439651 0.866093 0.0886807 -2 0 -5 
5347 6 0.378362 0.86503 0.0618333 -3 5 -3 
7393 5 0.588248 0.848274 0.0749772 4 2 3 
7968 6 0.00665781 0.861325 0.0615441 -5 -2 -2 
5541 5 0.597881 0.873377 0.0838242 -3 -2 4 
5909 6 0.89376 0.910265 0.0600336 1 2 -1 
6348 6 0.258319 0.918675 0.0532496 1 1 2 
5573 6 0.959265 0.939603 0.0647893 -2 5 2 
7343 6 0.0274725 0.938621 0.0772087 -2 1 0 
6487 5 0.805529 0.926648 0.081209 0 -3 4 
6945 5 0.321739 0.944868 0.100087 6 0 -1 
5827 6 0.757515 0.957433 0.11268 2 -3 5 
8890 5 0.962404 0.959818 0.0902481 -3 1 0 
8540 5 0.215376 0.00697498 0.131814 -1 3 2 
7926 6 0.32311 0.0247708 0.0952318 0 2 3 
7419 6 0.408178 0.00332572 0.136028 -1 -4 -4 
6405 6 0.419546 0.00834949 0.0954498 -1 -5 1 
6816 6 0.889104 0.0679212 0.12357 5 -4 3 
8342 6 0.0738792 0.0615948 0.0708865 -1 1 -2 
6367 5 0.129716 0.0945312 0.131152 2 -1 2 
6719 5 0.181636 0.0215068 0.13076 4 2 -1 
8442 5 0.395991 0.0843865 0.0834251 4 3 -3 
5513 5 0.846978 0.0528847 0.0895549 -3 0 1 
8654 5 0.300576 0.0894377 0.114601 1 2 0 
6235 5 0.848036 0.121422 0.0929197 1 1 6 
5203 6 0.0761538 0.124417 0.110173 3 6 -3 
7058 5 0.567379 0.164841 0.112025 2 -3 -3 
7593 6 0.919344 0.135351 0.147767 -2 4 -2 
8818 6 0.0345684 0.159098 0.103263 4 -5 3 
7756 5 0.10941 0.133194 0.0941256 5 0 -5 
7556 6 0.388962 0.150646 0.12877 3 5 3 
5251 6 0.653735 0.165574 0.0756587 5 -2 1 
7406 6 0.790975 0.132673 0.10038 0 1 4 
6018 6 0.177132 0.224431 0.0700311 -2 -1 1 
8542 5 0.109441 0.183437 0.094166 0 6 -3 
8718 6 0.156004 0.203383 0.0937935 -4 -2 1 
8741 5 0.255555 0.226285 0.0618581 2 1 -1 
8198 5 0.465521 0.275348 0.0866664 0 -2 5 
6537 6 0.137862 0.250789 0.116458 -6 0 1 
5262 6 0.326151 0.244349 0.0807975 1 0 -5 
8717 5 0.478825 0.255822 0.131991 4 -1 1 
5122 5 0.183906 0.284179 0.0830006 -3 2 1 
8908 5 0.420819 0.288372 0.101447 3 2 4 
5579 6 0.53213 0.291547 0.0884887 2 2 2 
7625 5 0.831789 0.288199 0.066884 2 5 4 
6339 6 0.730833 0.289182 0.0925373 -1 4 -1 
8861 5 0.642971 0.323779 0.0647069 2 1 2 
6263 6 0.704347 0.356272 0.148738 -5 -2 2 
8125 6 0.0147138 0.351365 0.114671 -3 3 3 
5330 5 0.950988 0.33682 0.0679382 -1 -1 -2 
5914 6 0.336682 0.376499 0.128186 -1 0 3 
8814 5 0.531332 0.40049 0.105775 4 4 5 
8165 6 0.303596 0.389035 0.0621766 -4 1 1 
5539 5 0.633234 0.370207 0.11406 -1 4 0 
6780 6 0.465762 0.490077 0.0852399 -2 -4 3 
7678 6 0.940693 0.424775 0.109167 0 1 -3 
8531 5 0.313992 0.463497 0.131556 3 0 0 
5739 6 0.426459 0.497622 0.124382 0 -6 5 
6884 6 0.97119 0.469795 0.116818 2 3 3 
7777 5 0.171953 0.527805 0.10999 2 -3 1 
6614 6 0.56891 0.474491 0.0917885 -1 0 0 
5511 6 0.517671 0.477118 0.0859602 -2 -2 0 
8958 5 0.773825 0.507187 0.107898 2 3 -2 
8444 6 0.81437 0.550063 0.129273 0 3 2 
5801 5 0.71857 0.564386 0.110522 2 -2 -1 
5393 5 0.801316 0.537302 0.107808 2 -4 1 
5698 5 0.745091 0.58203 0.0667096 -2 0 -5 
6041 6 0.743321 0.564499 0.0762456 -4 -1 -2 
6347 6 0.610237 0.585121 0.0841217 -3 1 1 
5749 5 0.659395 0.62386 0.144368 2 4 -2 
8797 6 0.771942 0.628254 0.0690437 -5 0 -1 
8160 5 0.859079 0.583629 0.0799291 -1 5 3 
6867 5 0.12804 0.667998 0.0807292 0 -2 4 
8405 5 0.522983 0.626339 0.125959 3 1 0 
6620 5 0.166167 0.6729 0.0975419 5 -2 -1 
7112 5 0.461542 0.698239 0.102884 0 1 -1 
8001 6 0.817332 0.683881 0.0793662 4 -8 7 
7969 6 0.832115 0.647125 0.12745 -4 -7 1 
5993 5 0.784057 0.678493 0.103505 2 -1 0 
6639 6 0.756815 0.69538 0.103822 -8 3 0 
8959 6 0.72521 0.717427 0.129031 -1 -2 -5 
7258 6 0.395048 0.716565 0.115806 -7 1 -2 
7471 6 0.376143 0.754279 0.0821848 -1 -4 5 
5863 5 0.312715 0.811018 0.0866289 -1 -3 5 
5447 5 0.409232 0.768108 0.109913 1 0 -1 
7770 5 0.533677 0.794291 0.127304 4 -1 4 
5054 6 0.458933 0.825434 0.111754 1 -1 0 
5904 6 0.402437 0.813567 0.122258 -1 -2 -6 
5722 5 0.160674 0.850839 0.03898 -3 -2 0 
5959 6 0.128994 0.851452 0.0915996 -8 2 -1 
5847 6 0.365358 0.864309 0.11088 -3 2 -4 
8127 5 0.957716 0.8639 0.0789192 -7 3 -2 
8785 6 0.0742332 0.88956 0.122904 5 -2 1 
5325 6 0.441648 0.907287 0.0721055 0 -3 1 
6428 5 0.575451 0.917058 0.0806312 3 5 1 
5242 6 0.952749 0.941024 0.129148 -3 4 1 
6535 6 0.966202 0.909271 0.0756964 3 -3 4 
7596 5 0.0437764 0.867583 0.131901 -2 -2 4 
7198 5 0.374502 0.982261 0.10965 -4 -5 4 
8842 5 0.383544 0.906535 0.0887473 -1 0 2 
7666 6 0.17784 0.955223 0.113094 3 3 -1 
7220 5 0.289283 0.964204 0.123554 -3 -3 -1 
7042 6 0.621819 0.0149079 0.0906395 4 0 1 
7629 6 0.402472 0.0299643 0.0981979 3 1 7 
7129 6 0.921578 0.00849061 0.115633 -1 3 4 
7887 5 0.976458 0.105202 0.137148 -1 -1 0 
7053 5 0.509305 0.119145 0.136326 -2 -4 1 
7664 5 0.0930423 0.111487 0.115301 -4 1 1 
8390 5 0.106218 0.147968 0.133675 -1 -2 -1 
6343 5 0.201032 0.139813 0.1341 0 1 -4 
7830 5 0.105241 0.164253 0.146937 1 5 -6 
5834 5 0.544272 0.224136 0.127605 0 -4 -1 
8616 6 0.870669 0.185389 0.12114 0 2 -4 
6310 6 0.330804 0.227476 0.11274 6 1 1 
6827 6 0.472355 0.233306 0.0869076 -3 -2 0 
8441 6 0.916412 0.189616 0.143924 0 6 2 
6814 6 0.132635 0.285448 0.0994728 1 1 0 
8191 6 0.441789 0.240105 0.117838 0 0 3 
5744 6 0.95765 0.226095 0.11005 2 -2 -3 
7229 5 0.583485 0.290695 0.103756 -3 -3 0 
5537 6 0.142804 0.338927 0.153311 -2 5 -3 
8287 5 0.256275 0.301965 0.111755 4 -6 -2 
7233 6 0.356343 0.357688 0.126435 4 4 -3 
8562 6 0.298402 0.322311 0.149844 0 3 -2 
5201 5 0.761086 0.305253 0.104552 3 -5 -4 
7407 5 0.28693 0.349491 0.091856 2 9 -2 
8630 5 0.50739 0.343389 0.145025 6 8 -4 
5684 6 0.916163 0.415308 0.166136 2 -5 0 
7039 5 0.794413 0.370782 0.0971986 -1 2 -1 
8521 5 0.00131206 0.421599 0.152332 5 1 2 
8589 6 0.719512 0.389057 0.0988741 -2 1 1 
8615 5 0.221295 0.416625 0.107949 -1 -3 -2 
7142 6 0.307724 0.445265 0.112214 2 2 5 
8776 6 0.501708 0.417423 0.102602 1 3 1 
8438 6 0.561015 0.45648 0.116611 -4 -3 4 
6529 6 0.0640293 0.43995 0.101815 7 -2 -2 
7619 6 0.646222 0.479999 0.134941 6 -4 4 
5588 6 0.377226 0.470026 0.127884 2 3 4 
5822 5 0.0747458 0.50506 0.133913 2 3 -5 
6612 6 0.13692 0.502095 0.140404 -5 -6 -1 
5503 5 0.0819621 0.551565 0.119726 -3 3 1 
5337 6 0.222015 0.522113 0.136365 -3 -3 2 
8679 6 0.396337 0.558951 0.119742 -1 0 4 
7837 5 0.455218 0.534302 0.119824 5 -5 1 
7940 6 0.144888 0.562749 0.109122 1 1 4 
5837 5 0.782319 0.591136 0.102391 -2 -5 0 
8140 6 0.823854 0.593665 0.127512 1 1 0 
8815 5 0.361553 0.625612 0.13202 1 5 2 
6264 6 0.801199 0.575656 0.109941 -5 2 2 
5785 6 0.190673 0.661941 0.0978724 -4 1 0 
8730 6 0.0597384 0.660309 0.13368 0 2 -1 
5129 5 0.503456 0.603769 0.110469 3 -5 6 
7670 6 0.275183 0.711001 0.0740836 0 -3 5 
5198 6 0.7479 0.713461 0.171697 -2 -3 3 
6038 6 0.67833 0.690013 0.123287 -5 3 -4 
8419 5 0.74254 0.720289 0.0752426 -5 -2 1 
6507 6 0.868777 0.763653 0.0926234 -6 -4 7 
7241 5 0.00102805 0.811596 0.154141 -1 0 2 
7616 5 0.988211 0.806857 0.0816559 0 4 5 
7139 5 0.0663295 0.793573 0.112454 3 -5 6 
7961 5 0.445048 0.807788 0.0814698 -4 -1 -4 
7768 6 0.660218 0.827604 0.115152 -2 1 4 
5878 6 0.756044 0.804576 0.144882 -1 4 0 
7658 6 0.979004 0.821161 0.088225 -1 0 1 
5412 5 0.30084 0.816141 0.138161 -5 2 -2 
6092 5 0.739121 0.815679 0.12099 2 -1 1 
7885 6 0.772225 0.844616 0.133504 -4 -3 5 
7694 6 0.915704 0.836122 0.176627 5 -3 5 
6768 5 0.158286 0.850439 0.110178 4 -2 -1 
8827 5 0.498499 0.835075 0.104641 -2 2 -5 
5900 5 0.952879 0.851475 0.11469 -1 -1 0 
6691 6 0.64458 0.929122 0.14216 2 -2 7 
8477 6 0.49406 0.936307 0.120407 -5 -2 -1 
5587 6 0.772311 0.923747 0.142598 1 -3 1 
7563 6 0.792914 0.954441 0.158212 2 1 -3 
6098 5 0.160205 0.972154 0.0681612 0 0 0 
5487 6 0.659341 0.987527 0.0867115 0 0 3 
5906 5 0.062068 0.0451063 0.112335 -4 0 2 
5100 6 0.344453 0.969383 0.12435 -5 -1 -1 
7615 5 0.676525 0.00645699 0.151683 2 0 -1 
5659 5 0.86719 0.969485 0.128938 1 -4 -2 
5761 6 0.651102 0.970466 0.194776 0 -7 5 
8003 6 0.389486 0.111418 0.189303 -5 0 -2 
5161 6 0.538954 0.0645912 0.155355 -1 0 5 
5850 6 0.568922 0.0363177 0.148228 -3 -1 -2 
8645 5 0.611811 0.0740926 0.179928 -1 1 0 
7813 6 0.59353 0.0876997 0.122863 -1 -3 3 
6006 6 0.654822 0.0201063 0.156651 1 4 2 
8235 6 0.796255 0.102032 0.152854 4 4 4 
8744 6 0.51543 0.101792 0.108853 -5 1 0 
8209 5 0.549214 0.0941917 0.174568 -1 -2 0 
7240 5 0.423938 0.163384 0.135299 3 -2 2 
7941 6 0.507831 0.167401 0.176253 -1 0 3 
8309 5 0.663397 0.134968 0.134775 0 5 0 
8726 6 0.673509 0.149363 0.180447 0 1 2 
6588 6 0.705718 0.164583 0.14259 1 1 3 
6105 5 0.756997 0.194713 0.194163 2 -5 -2 
8472 5 0.793227 0.175146 0.161345 3 0 -2 
8015 5 0.862579 0.19868 0.142649 0 3 5 
7090 6 0.00542784 0.203447 0.159202 -1 1 2 
8281 5 0.102508 0.213735 0.172858 2 -3 5 
5092 6 0.526157 0.233986 0.125006 -1 4 2 
6446 5 0.66096 0.213791 0.154106 -3 6 4 
6661 5 0.864298 0.214193 0.135387 -1 -3 5 
7506 6 0.916306 0.254027 0.162585 1 -3 1 
8063 6 0.950246 0.251517 0.124744 -2 3 4 
7225 6 0.0881395 0.258381 0.128345 4 -1 0 
8446 5 0.636954 0.304398 0.117448 2 -4 -1 
5879 5 0.758185 0.284285 0.12851 2 -4 3 
5693 5 0.973407 0.297651 0.186664 4 -1 -2 
5128 6 0.563726 0.295411 0.192211 0 1 2 
5454 5 0.820326 0.289968 0.126413 -2 2 1 
8244 6 0.970549 0.287103 0.144528 0 3 0 
8549 5 0.978433 0.318484 0.122724 1 -1 3 
7074 5 0.0814646 0.361976 0.150791 4 1 1 
6750 5 0.19995 0.313571 0.1404 0 1 1 
5701 5 0.67948 0.291232 0.1738 1 -1 5 
6828 5 0.625275 0.397376 0.143435 -6 -2 -1 
6839 5 0.647419 0.374777 0.157822 -1 2 2 
7326 6 0.0708773 0.375404 0.174299 -2 1 -6 
6819 6 0.347592 0.371453 0.134431 2 1 -2 
6503 5 0.72152 0.423442 0.149507 4 -3 -1 
6562 6 0.781206 0.399691 0.160522 3 -3 -2 
6227 5 0.0109895 0.460561 0.118077 -2 6 -3 
6069 6 0.24988 0.497295 0.149678 -1 -3 -1 
5144 6 0.664271 0.445864 0.158687 -2 -2 -1 
7473 6 0.227534 0.465095 0.150409 -4 0 4 
6322 6 0.144212 0.520899 0.151559 1 -1 0 
7495 5 0.491805 0.494227 0.146842 1 2 3 
6729 6 0.723169 0.525992 0.146574 5 2 1 
8121 5 0.776896 0.527103 0.144188 0 -6 1 
6427 6 0.164999 0.517975 0.152735 1 0 -2 
7349 6 0.321428 0.526748 0.140643 1 -8 -2 
7236 5 0.673387 0.536072 0.173393 -2 0 2 
6173 6 0.670173 0.554622 0.161971 1 -3 3 
7870 6 0.754509 0.539676 0.101252 5 -2 -3 
5798 5 0.893496 0.562116 0.134227 -3 1 5 
5217 6 0.30048 0.566897 0.169957 7 -3 -2 
7016 6 0.642675 0.53957 0.113339 -3 -6 -2 
6316 5 0.871488 0.609379 0.144353 -1 -2 -2 
8557 5 0.937155 0.615168 0.149507 3 -3 -1 
5685 5 0.0428076 0.610461 0.10764 -2 -1 -3 
6965 5 0.082292 0.64082 0.138136 1 -2 2 
6212 6 0.293998 0.654602 0.15348 5 -1 -4 
6645 6 0.523939 0.603148 0.154624 1 -2 3 
7015 5 0.640472 0.630045 0.182101 -3 -3 3 
6434 6 0.162137 0.661342 0.114877 1 -5 5 
5425 6 0.825809 0.650603 0.116424 1 -5 -2 
6797 6 0.89039 0.681411 0.149223 3 0 2 
5473 6 0.0898523 0.667931 0.172811 -1 4 0 
5566 5 0.223502 0.669294 0.117369 1 -3 -2 
7215 6 0.06439 0.731154 0.165579 1 -1 0 
8158 5 0.927971 0.704911 0.160403 1 -4 4 
6139 5 0.0480625 0.756144 0.108504 1 4 4 
7278 5 0.49368 0.769701 0.152593 -2 -5 -5 
7989 6 0.450535 0.842115 0.16041 -1 -3 3 
8774 6 0.761077 0.868511 0.153175 1 -3 -1 
8433 6 0.146372 0.879273 0.165134 4 -3 4 
8467 6 0.88429 0.866713 0.172662 -2 -6 -6 
6589 5 0.236524 0.871796 0.157938 -3 4 2 
6973 5 0.668812 0.930438 0.152633 2 -2 1 
7079 6 0.254248 0.965228 0.180001 -1 0 0 
5764 6 0.127985 0.946549 0.150373 3 5 2 
6315 6 0.379332 0.9945 0.157885 -1 0 1 
8975 5 0.420523 0.994418 0.163665 -1 -3 2 
8981 6 0.985552 0.0353868 0.181137 3 0 -1 
5660 6 0.743772 0.0044435 0.158843 6 2 0 
7822 6 0.3451 0.0250266 0.152336 -1 -3 -2 
7905 5 0.602322 0.104902 0.185495 2 3 2 
5843 5 0.552466 0.117584 0.190932 -1 0 6 
6050 5 0.897498 0.119179 0.177157 1 1 1 
8314 6 0.338889 0.131534 0.191143 0 2 -3 
5241 5 0.135611 0.184841 0.192418 0 1 6 
5557 5 0.715569 0.179676 0.170536 0 0 5 
6286 6 0.780601 0.199266 0.199924 -1 -3 -1 
6992 6 0.263385 0.182221 0.141499 2 1 4 
8082 6 0.532997 0.156308 0.192796 1 2 -1 
7760 6 0.473145 0.237337 0.164368 2 3 -5 
6559 6 0.91869 0.254946 0.151692 3 0 0 
5631 6 0.507423 0.250734 0.170293 -1 2 5 
8802 5 0.70965 0.233028 0.127562 2 1 -1 
8553 6 0.122205 0.282836 0.130769 1 1 2 
7162 6 0.708964 0.236275 0.136078 -1 -3 3 
6450 5 0.293059 0.313287 0.181779 2 0 5 
7411 5 0.482988 0.277542 0.156503 -3 0 0 
5679 6 0.585588 0.297505 0.146359 2 1 0 
8439 6 0.779405 0.292154 0.198135 -3 -2 3 
6408 6 0.867617 0.291162 0.212563 -3 0 -1 
6170 5 0.961155 0.324619 0.163268 -1 -3 -3 
6466 6 0.00622251 0.377367 0.131135 8 0 -1 
6091 6 0.0795533 0.427285 0.167415 3 -1 -2 
8862 6 0.0993729 0.402411 0.188151 2 4 0 
6277 6 0.186889 0.379053 0.183998 3 -3 1 
1923 4 0.34153 0.431139 0.175425 0 0 0 
6372 6 0.733485 0.43344 0.16238 -1 5 0 
8646 6 0.05933 0.44313 0.190874 1 -3 1 
1922 1 0.344414 0.433049 0.169952 0 0 0 
1920 4 0.354024 0.44007 0.169322 0 0 0 
1921 4 0.347723 0.438134 0.169473 0 0 0 
5196 6 0.0691471 0.423681 0.169805 5 -3 0 
5980 6 0.223046 0.486368 0.180012 -2 1 -3 
5681 5 0.704772 0.498251 0.139015 1 2 -4 
6674 6 0.0011077 0.529693 0.206132 -3 -2 -3 
7974 6 0.791653 0.56259 0.183707 -4 5 -1 
7939 6 0.911454 0.52539 0.167482 -6 1 -2 
8330 5 0.792083 0.551024 0.146807 1 2 1 
6096 5 0.793875 0.581078 0.165646 -3 0 1 
8475 5 0.23605 0.614531 0.180325 -1 2 3 
7308 5 0.415507 0.5848 0.191636 2 5 3 
7040 5 0.0206812 0.576024 0.164935 4 1 0 
5087 5 0.711932 0.648958 0.18083 -2 -3 0 
8973 6 0.139976 0.659272 0.19493 0 -2 2 
6272 5 0.860747 0.690663 0.171932 3 3 0 
5577 5 0.0167265 0.652467 0.176682 -4 0 3 
8095 5 0.176628 0.701339 0.186195 -1 0 3 
8453 5 0.370115 0.66491 0.162407 -2 0 3 
7200 6 0.0340323 0.718701 0.173263 4 -5 -3 
7461 6 0.310804 0.688633 0.203075 -4 -1 -3 
5274 6 0.344712 0.686559 0.192026 1 0 -2 
5193 5 0.612732 0.731483 0.126631 -5 0 3 
5233 5 0.877337 0.674452 0.208309 -5 -2 -4 
8992 6 0.219648 0.786137 0.1385 0 -2 1 
7228 6 0.78535 0.726494 0.140375 3 2 1 
7403 5 0.357309 0.756494 0.167293 -2 -1 -1 
5231 6 0.395035 0.750763 0.152718 3 -2 -3 
5383 6 0.450039 0.778861 0.136721 -1 0 -1 
5187 6 0.368277 0.786371 0.176137 3 -1 6 
5981 5 0.522366 0.757071 0.177512 2 0 -4 
6349 5 0.00585468 0.815144 0.191236 -3 0 -3 
6916 5 0.0635737 0.861858 0.175445 1 -1 3 
5349 5 0.184896 0.832342 0.168433 3 3 -1 
7311 6 0.51515 0.833743 0.164725 -1 -3 1 
8272 5 0.664603 0.827028 0.181908 2 -1 5 
6813 6 0.992475 0.809143 0.176967 2 1 -2 
6483 6 0.345925 0.886143 0.167963 3 -2 1 
6555 6 0.291737 0.917508 0.183523 7 -6 1 
7013 6 0.381134 0.917183 0.148932 -2 -2 2 
6380 6 0.077157 0.952287 0.194957 -3 0 1 
8413 6 0.178654 0.950457 0.152208 -3 1 -1 
5174 6 0.276156 0.990565 0.155307 3 -3 3 
8847 6 0.618716 0.926971 0.145936 2 -8 2 
5197 6 0.617961 0.969856 0.177854 -4 -1 -2 
6728 6 0.738532 0.94539 0.179361 2 -2 -2 
7072 5 0.0286438 0.973714 0.179361 1 -1 3 
7005 6 0.455511 0.981591 0.149456 1 -2 0 
5816 5 0.425455 0.00114666 0.194969 5 -1 3 
6278 5 0.929109 0.956809 0.15406 4 -4 -4 
6019 6 0.519181 0.0311661 0.203767 -6 -1 -1 
7589 6 0.425006 0.0365899 0.188674 2 2 -3 
6183 6 0.793963 0.0263845 0.211633 2 4 0 
6655 5 0.301539 0.0444639 0.159117 1 3 2 
8229 6 0.914377 0.0640187 0.178394 1 -1 -4 
7845 6 0.0870998 0.103177 0.179052 1 4 5 
7532 6 0.696308 0.0724923 0.210099 -1 -1 0 
5951 6 0.959932 0.131348 0.218531 -1 -4 1 
7826 6 0.461801 0.0872701 0.210876 -3 -5 -1 
6581 5 0.699062 0.12176 0.176491 3 -2 7 
6386 5 0.510697 0.156179 0.211287 -3 5 0 
8554 5 0.587814 0.137868 0.180925 1 -2 2 
8023 6 0.649028 0.16658 0.201001 2 -4 4 
7242 5 0.849187 0.150917 0.18318 1 -1 0 
6459 5 0.483396 0.21342 0.180656 3 2 -1 
6501 5 0.662311 0.2048 0.149109 3 5 -2 
6568 6 0.636485 0.227547 0.193502 -1 -2 -3 
5592 5 0.475692 0.229902 0.232831 1 -2 -2 
7000 6 0.604486 0.254371 0.229658 1 5 -5 
8298 6 0.655775 0.279193 0.225168 4 -1 -1 
5636 5 0.717772 0.241053 0.20015 -2 -2 7 
6363 6 0.526684 0.295698 0.194029 1 3 -2 
7059 6 0.594985 0.336329 0.193551 -1 0 2 
6353 5 0.581182 0.318615 0.180067 -4 -4 1 
7915 6 0.15526 0.298907 0.198674 -1 -1 5 
8632 5 0.383549 0.331952 0.204891 -1 2 -1 
5818 6 0.768332 0.284644 0.17097 1 -4 0 
6976 5 0.772974 0.346256 0.206052 -1 -3 -4 