ITEM: TIMESTEP
20000000
ITEM: NUMBER OF ATOMS
9000
ITEM: BOX BOUNDS pp pp pp
-75 75
-75 75
-75 75
ITEM: ATOMS id type xs ys zs ix iy iz 
6706 6 0.376631 0.0255895 0.0330532 3 -1 -4 
6194 6 0.226091 0.0322216 0.0331607 -4 -3 -2 
8858 6 0.423609 0.028705 0.00703236 -3 -2 -3 
8559 6 0.663914 0.0292587 0.0191054 -1 -1 -2 
5849 5 0.761422 0.0352957 0.0014179 6 1 -1 
7947 5 0.0232771 0.051135 0.0400649 1 -4 5 
7965 5 0.302329 0.0290326 0.0341287 -3 0 2 
8243 6 0.754485 0.103733 0.0305652 -1 4 2 
5681 5 0.197464 0.116593 1.00104 1 -1 -1 
7173 6 0.309093 0.0842895 0.0113247 2 -5 4 
5212 6 0.843694 0.140049 0.0320049 0 3 1 
7640 5 0.989329 0.10529 0.96738 4 -5 -1 
5350 5 0.373025 0.175642 0.0368042 -3 1 6 
7130 6 0.362423 0.153125 0.0343467 3 -6 1 
8199 6 0.545947 0.161915 0.0160931 -3 1 -1 
7042 5 0.603903 0.194941 0.00448572 2 2 5 
8977 6 0.118407 0.216985 0.0336922 7 -1 -1 
5199 6 0.916216 0.226996 -0.00347557 -4 -2 3 
6124 6 0.404577 0.177059 0.0230421 4 3 0 
6467 6 0.558308 0.255447 0.0247674 5 0 0 
5567 5 0.63391 0.208918 0.0531184 -5 -2 -2 
7941 6 0.831433 0.237477 0.0355039 -1 -1 0 
7038 6 0.675572 0.275099 0.00164832 3 0 2 
6477 5 0.205808 0.296466 0.996199 0 0 4 
6434 6 0.593257 0.297801 0.0239019 0 1 5 
7174 6 0.723386 0.239491 0.0165338 5 1 -1 
8252 6 0.861595 0.269413 0.00470395 1 -4 4 
7084 5 0.502252 0.325437 0.0184987 7 5 -1 
6764 6 0.753632 0.331797 0.0406976 0 -7 -3 
7477 6 0.0313421 0.347632 0.995559 1 5 -5 
5155 6 0.483839 0.367145 0.0289378 0 0 1 
8681 5 0.0865354 0.413708 0.97286 -3 -3 1 
5123 6 0.312924 0.425185 0.0427262 3 -2 -3 
7942 6 0.876039 0.408824 0.00664175 3 -2 -2 
8196 6 0.545349 0.442335 0.00199407 2 0 -3 
6119 5 0.945295 0.496131 0.0144952 -1 3 0 
8384 6 0.128549 0.525101 0.017461 1 3 2 
7822 5 0.474774 0.4464 0.966574 -3 2 -4 
6405 6 0.795849 0.446125 0.0243508 1 4 -1 
7188 5 0.13976 0.50219 0.990738 -4 -2 3 
7983 5 0.437555 0.505109 0.00888665 1 -3 3 
8923 5 0.833057 0.486924 0.996027 -6 0 -3 
8699 6 0.684172 0.496996 0.98554 -1 0 -1 
6593 6 0.328408 0.507673 0.0304984 1 0 5 
8309 6 0.786113 0.562197 0.990916 -2 1 2 
6675 5 0.496699 0.570446 0.995824 -2 1 -3 
5504 5 0.83031 0.556982 -0.000952626 -4 -1 0 
8274 5 0.846872 0.565759 0.99457 -5 -1 2 
8635 5 0.532137 0.596144 0.0258272 -2 2 2 
6535 6 0.771465 0.565944 0.0181744 3 -3 7 
7755 6 0.0762969 0.636804 0.018253 -2 -1 -2 
6201 6 0.135677 0.664315 0.986085 -2 2 5 
8402 6 0.27264 0.637773 0.0254018 0 -4 2 
6634 5 0.706186 0.675258 1.00075 0 -1 0 
6614 6 0.681733 0.645562 0.0136379 4 -2 4 
5650 6 0.31455 0.710553 0.981933 7 0 2 
8643 6 0.617963 0.730865 0.0091126 -2 4 -1 
5164 5 0.745218 0.700183 0.00581296 1 -2 4 
8719 5 0.873114 0.721407 0.0127455 -3 4 3 
5510 6 0.348437 0.759158 0.00522986 0 2 2 
8222 6 0.142415 0.801435 0.0166057 4 -1 -1 
5622 6 0.331609 0.78631 0.0285155 1 2 -2 
5961 5 0.91396 0.804666 0.0161988 -3 -4 1 
7848 6 0.945219 0.851255 0.0190038 1 0 -3 
5434 6 0.04463 0.820813 0.0327946 -5 -3 5 
6472 6 0.872421 0.83837 0.0114874 2 0 4 
8220 6 0.914957 0.818941 0.999178 3 1 4 
6263 6 0.909427 0.851092 0.98204 2 -6 -6 
5179 6 0.656003 0.892995 0.0125216 1 2 3 
7428 6 0.230215 0.889325 0.0631693 4 1 5 
5020 6 0.577965 0.896433 0.0290318 0 -5 -5 
8295 6 0.859198 0.931432 0.0298642 0 -3 -3 
5014 6 0.0987953 0.927949 0.981118 -4 1 -4 
6203 5 0.263131 0.936513 0.0454966 0 2 -1 
6208 5 0.701296 0.967486 0.00411811 1 -3 -1 
5715 5 0.596934 0.970838 0.00215545 -1 -5 -4 
5136 6 0.761258 0.950052 0.995586 -2 -2 -1 
6321 6 0.0685757 0.983989 0.0202882 0 6 1 
6730 6 0.631325 0.972841 0.000332444 -3 -3 1 
7856 6 0.206179 0.0114912 0.00275504 2 7 2 
7445 6 0.125737 0.0180178 0.0520292 0 -1 -1 
6800 6 0.0363131 0.0539157 0.0252895 5 1 1 
6539 6 0.735887 0.0547259 0.036372 5 2 2 
6720 6 0.374127 0.083508 0.020947 2 1 1 
6206 5 0.934238 0.10687 0.0655521 2 -1 0 
6445 6 0.393547 0.125286 0.00610461 -3 -2 2 
8200 5 0.755612 0.159422 0.0373486 2 0 -4 
7589 6 0.740317 0.153553 0.0168166 -3 -2 -3 
8868 6 0.103609 0.160227 0.0278801 0 0 1 
7622 6 0.488929 0.177825 0.0424255 0 0 -5 
7263 6 0.572807 0.110738 0.058393 1 -1 3 
5636 6 0.207804 0.201259 0.0514327 -1 1 -1 
6313 6 0.247652 0.248908 0.0337642 -3 -3 0 
7348 5 0.503291 0.223833 0.020404 -3 -1 -1 
5226 6 0.832045 0.251983 0.0698581 1 5 -2 
5957 6 0.857927 0.219348 0.0486909 -5 3 2 
5982 6 0.280647 0.262481 0.0530811 -2 2 1 
7801 5 0.337887 0.247048 0.010168 3 -1 2 
7620 5 0.951333 0.260535 0.0623045 6 4 -1 
8506 6 0.00126028 0.289861 0.0078199 4 1 -5 
6232 6 0.224717 0.284292 0.0106367 1 3 -1 
5426 6 0.204292 0.258774 0.0168021 -4 -3 -1 
7491 6 0.622713 0.267924 0.00546769 3 -3 3 
5216 6 0.539126 0.29483 0.0890799 2 -1 2 
8829 6 0.720568 0.233921 0.0311678 2 -2 3 
8226 5 0.786332 0.25791 0.0593234 0 1 -2 
5934 6 0.610248 0.289365 0.0435518 0 -1 5 
7240 6 0.651036 0.226509 0.0358679 -3 -4 3 
7262 6 0.880013 0.291915 0.0284446 0 -2 1 
6164 5 0.495173 0.324711 0.0186199 4 0 6 
6623 6 0.188707 0.317395 0.0446433 1 -1 0 
6746 5 0.240822 0.322689 0.0674948 -2 3 -2 
5583 5 0.595496 0.323857 0.0156904 -3 -3 2 
6644 5 0.707497 0.370855 0.0330031 1 -2 -3 
5469 6 0.543598 0.355977 0.0394401 -1 -3 -2 
6389 5 0.568003 0.353751 0.0918294 1 4 6 
8492 5 0.795061 0.372639 -0.0017614 -4 3 1 
7718 6 0.733463 0.436146 0.0324402 -1 -2 2 
6306 5 0.997246 0.483988 0.0340931 2 -2 0 
7446 6 0.151821 0.457738 0.0315248 -2 1 3 
7365 6 0.641235 0.470572 0.986995 1 -1 0 
6514 5 0.744025 0.466661 0.0419822 2 -1 0 
5150 5 0.98661 0.452694 0.0254545 0 0 3 
6568 6 0.604182 0.508777 0.0412981 -5 -2 2 
6146 6 0.763233 0.545254 0.0369759 1 5 0 
5776 5 0.721168 0.58422 0.0261026 1 -1 -4 
5490 6 0.743622 0.622708 1.00015 -1 1 1 
5154 6 0.250148 0.647275 0.0748795 1 -3 1 
8146 5 0.883953 0.60992 0.027123 1 4 1 
8509 5 0.521308 0.678562 0.0251787 0 -2 1 
7422 5 0.663441 0.685462 0.0209278 4 2 -1 
8275 5 0.768337 0.710006 0.0537703 0 -5 -1 
8361 6 0.231567 0.759744 0.0366712 4 -4 1 
6798 5 0.590917 0.753265 0.0332149 -2 -1 1 
5366 6 0.129796 0.738357 0.0667483 2 1 3 
5296 5 0.632068 0.74778 0.0260294 0 2 1 
7912 5 0.0831135 0.780891 0.00361853 2 4 3 
7339 6 0.83801 0.791783 0.0297172 -3 -5 2 
5586 5 0.0558083 0.798528 0.0466517 -6 3 4 
7269 5 0.7187 0.808611 0.0386481 2 3 -2 
5323 5 0.877109 0.786352 0.0452028 -5 -1 3 
5852 5 0.42977 0.854201 0.0117409 -3 1 3 
6596 6 0.727908 0.829338 0.0648668 -2 1 1 
6669 5 0.888582 0.845175 0.0572324 2 -2 3 
5070 5 0.275545 0.898868 0.0576841 6 -4 2 
7131 5 0.837233 0.885743 0.0317478 -1 1 0 
8312 5 0.951405 0.874709 0.0375169 1 -4 -3 
7181 6 0.971907 0.883779 0.0240261 1 -1 -1 
8905 6 0.783025 0.885681 0.0496076 0 -4 3 
7175 6 0.865582 0.894189 0.00115804 -4 0 4 
5537 5 0.0558646 0.915891 0.9864 0 -4 3 
6709 5 0.101413 0.930386 0.0600336 1 -1 2 
5058 6 0.142241 0.944539 0.0563345 6 -2 4 
5096 6 0.249663 0.926043 0.0254665 5 -3 -3 
8105 6 0.369666 0.89388 0.986586 4 -1 -2 
5021 5 0.72057 0.939171 0.0234966 -2 0 -1 
8158 5 0.41495 0.932064 0.00926265 5 3 3 
8033 6 0.120747 0.965586 0.0348041 2 1 3 
7924 6 0.146421 0.980473 0.037034 -3 -6 0 
7111 6 0.296135 0.993463 0.0224326 0 -1 4 
8916 6 0.39387 0.88894 0.0523263 -1 3 0 
8564 6 0.578128 0.986002 0.0229918 1 1 -2 
8557 6 0.651844 0.943976 0.047558 4 -4 3 
6930 5 0.316975 0.964885 0.0464963 1 -1 -2 
7783 6 0.979596 0.987598 0.01378 -1 0 4 
8287 6 0.176853 0.0161427 0.0387582 2 4 -1 
7550 5 0.435149 0.974126 0.0316174 -2 0 2 
7452 6 0.814995 0.996843 0.0604691 6 -1 -2 
8005 6 0.860631 0.0178565 0.0688429 1 0 -2 
5417 6 0.910442 0.0215829 0.0579867 -2 4 0 
8473 5 0.903143 0.0220158 0.0189288 -4 -2 1 
6257 6 0.070541 0.0591414 0.0658898 0 0 0 
8986 5 0.323913 0.0974309 0.0390869 2 -6 6 
5965 5 0.499436 0.0851496 0.0762545 2 5 1 
7401 6 0.865464 0.101566 0.108845 -2 -6 3 
8593 6 0.916146 0.10531 0.0889149 -1 -1 -3 
8795 5 0.878831 0.118657 0.0853649 -1 -3 0 
6780 5 0.88219 0.122429 0.031512 2 -1 0 
5770 6 0.541124 0.151499 0.0992695 -1 0 2 
6195 6 0.549185 0.11954 0.0709206 -1 3 0 
8193 6 0.63295 0.132383 0.0314096 3 5 -3 
7810 6 0.278601 0.237393 0.0368637 5 0 0 
5028 6 0.771415 0.164385 0.0546257 2 -2 1 
7117 6 0.22397 0.207546 0.0714011 -1 2 3 
7298 5 0.628387 0.216491 0.0736129 -2 4 2 
6214 5 0.711288 0.237342 0.0709817 1 -1 1 
7563 5 0.602894 0.262554 0.0369461 0 4 0 
7234 5 0.614517 0.250003 0.0753078 1 3 -1 
5829 5 0.0805696 0.317302 0.055523 -7 1 1 
8507 6 0.36924 0.300796 0.0429594 2 0 -2 
7665 6 0.398733 0.332885 0.0820682 2 -2 -4 
7056 6 0.51292 0.310654 0.0454431 -3 -2 2 
6475 5 0.355123 0.357123 0.00694346 1 -2 -3 
7383 6 0.559085 0.332275 0.0562954 3 2 2 
8224 6 0.435711 0.370785 0.0919187 3 3 2 
5105 5 0.923569 0.387185 0.0830479 1 2 4 
8572 6 0.928551 0.347241 0.0970857 3 0 -1 
7370 5 0.235592 0.39979 0.042488 0 3 -2 
6656 6 0.35474 0.416303 0.0312413 3 4 2 
6836 5 0.304929 0.407145 0.0599549 -2 3 0 
8630 6 0.789616 0.407168 0.0483346 1 3 -3 
7060 5 0.973396 0.410456 0.0642592 1 3 -2 
6145 6 0.51748 0.425396 0.0599277 3 -1 4 
8501 6 0.569388 0.493095 0.0451203 -1 -5 2 
5799 5 0.91566 0.474035 0.0882317 -5 3 -5 
7321 6 0.569962 0.533303 0.0434493 -1 0 4 
8393 5 0.78639 0.587845 0.0618626 -7 -3 3 
6492 6 0.845283 0.538712 0.0638394 -1 5 -2 
6177 5 0.00755273 0.592648 0.0479335 0 1 2 
7277 6 0.0601495 0.560304 0.0490533 2 4 4 
8910 6 0.479017 0.644488 0.0700004 1 -2 -2 
7674 5 0.0164264 0.659966 0.0311319 2 0 1 
8192 5 0.363159 0.607579 0.0365263 2 1 -5 
7616 6 0.648434 0.666131 0.0655884 -1 -3 -2 
5333 6 0.746698 0.681801 0.0711052 2 2 1 
6488 6 0.823837 0.697965 0.0562127 0 0 -3 
5492 6 0.973495 0.679118 0.0963878 -3 4 -3 
8957 5 0.228883 0.745316 0.0620335 -4 1 -6 
5439 5 0.649151 0.747109 0.0655633 -2 2 3 
8765 6 0.693713 0.729396 0.0472373 -3 -5 1 
7387 6 0.250019 0.757117 0.0744205 -2 -1 0 
6062 6 0.282649 0.761176 0.066319 -3 0 1 
7012 6 0.310399 0.732213 0.0592643 1 2 -1 
5533 5 0.341252 0.754694 0.0328676 0 2 0 
6284 6 0.0975108 0.788672 0.0648944 -1 -6 -2 
5812 6 0.517284 0.780752 0.0719327 0 -1 3 
5424 6 0.166227 0.803737 0.0858864 -1 -2 3 
7254 5 0.535049 0.77257 0.0528409 3 3 2 
6230 5 0.585941 0.798905 0.0973992 1 0 -3 
5867 5 0.096952 0.826824 0.0331501 0 1 0 
8284 5 0.929821 0.785009 0.0424539 -4 -1 2 
6760 6 0.649194 0.859594 0.0225733 -5 1 3 
8117 5 0.64275 0.8846 0.0521927 0 -4 -3 
8594 6 0.240316 0.891644 0.0420598 0 0 0 
6429 6 0.581296 0.864073 0.0477371 0 4 1 
8444 5 0.85043 0.89066 0.0838084 -1 3 0 
7226 5 0.0869704 0.871156 0.0753246 -1 2 -6 
7431 5 0.229471 0.89856 0.0910989 -6 -3 -3 
8503 6 0.567 0.889836 0.072474 4 -4 6 
6303 6 0.692055 0.905357 0.0667443 1 2 -2 
8649 6 0.422315 0.927162 0.0351763 1 0 3 
8394 5 0.341773 0.96889 0.0459214 -6 1 6 
5943 6 0.388417 0.952776 0.0731486 2 0 2 
6040 5 0.905999 0.997557 0.0747902 0 1 0 
6004 6 0.918914 0.998131 0.0497667 7 4 -6 
5342 6 0.24985 0.996753 0.101318 0 2 -2 
5507 5 0.000526583 0.0228659 0.0900377 2 -5 3 
6425 5 0.0862239 0.0352991 0.0725783 1 1 0 
6240 5 0.561181 0.0260278 0.0837543 7 -1 0 
7274 6 0.583831 0.0584127 0.080779 1 -6 -3 
8360 6 0.700595 0.0912537 0.07937 4 3 1 
8497 6 0.0651766 0.0563979 0.103452 4 1 1 
7520 6 0.455848 0.0772473 0.0374643 -4 -3 2 
5300 5 0.69656 0.115806 0.0611667 -1 -3 3 
8391 6 0.82259 0.127026 0.0810758 -2 2 -2 
6770 5 0.908617 0.166573 0.0649598 -1 3 0 
7460 6 0.27483 0.168877 0.0586379 3 -5 0 
8075 6 0.544617 0.172561 0.0393969 -1 1 -4 
8695 5 0.222281 0.151479 0.111602 7 1 1 
5407 5 0.391313 0.203195 0.11735 -1 1 -1 
5280 6 0.409402 0.228945 0.0357728 -2 0 1 
7782 6 0.334115 0.202746 0.0736699 1 -1 2 
7323 6 0.0864435 0.208557 0.0521109 2 2 -6 
7303 6 0.139165 0.258916 0.0631072 4 -6 2 
6242 6 0.659937 0.226069 0.0938071 -1 -1 4 
8136 6 0.0535741 0.240164 0.0503408 0 -1 -6 
5421 6 0.115509 0.24736 0.107533 -3 2 3 
7461 6 0.37892 0.248555 0.0629739 -2 3 0 
8429 5 0.924462 0.264805 0.0707537 2 2 0 
7806 6 0.482804 0.262102 0.0906157 1 1 -8 
5418 6 0.413059 0.291544 0.106943 -2 -2 -1 
5598 5 0.122255 0.30695 0.110956 3 1 1 
8897 6 0.476282 0.343871 0.0828084 -4 4 2 
8902 5 0.536858 0.312567 0.0873923 -1 1 -2 
7236 5 0.670216 0.310981 0.101453 -2 2 2 
6526 6 0.986926 0.329674 0.0699768 4 4 3 
7113 5 0.0486586 0.380602 0.0888826 -6 2 -1 
5658 6 0.249824 0.323826 0.0705427 -2 -5 -2 
5558 6 0.127829 0.351267 0.0578065 -3 -3 3 
6789 5 0.327589 0.356364 0.0754148 1 0 -3 
8924 5 0.725679 0.3776 0.0981469 1 1 2 
8338 5 0.556374 0.367259 0.0758446 0 -2 -1 
8566 5 0.643685 0.368106 0.0893404 2 -1 3 
7229 6 0.837981 0.421601 0.0849657 2 -4 1 
8017 5 0.0448264 0.389081 0.0871762 -4 -1 -5 
5862 5 0.54261 0.437382 0.0896729 2 2 2 
7326 5 0.965235 0.411463 0.0594839 0 2 -1 
8315 6 0.563536 0.505638 0.054068 8 5 3 
6786 5 0.372138 0.479618 0.0600456 5 0 2 
7504 6 0.715088 0.461705 0.0674774 0 -4 -1 
8285 5 0.726255 0.4902 0.0528919 1 0 3 
8845 5 0.316396 0.462487 0.0884042 -1 4 -2 
6743 5 0.322684 0.535052 0.0775539 2 -2 -2 
8641 5 0.195945 0.504053 0.0934665 -1 1 3 
6848 5 0.834632 0.547443 0.0872784 2 1 1 
6043 6 0.311883 0.579325 0.0830588 0 -2 -3 
5737 5 0.499082 0.579617 0.0635979 0 1 -3 
7903 5 0.639449 0.575272 0.105907 2 -1 0 
5888 5 0.230652 0.614287 0.0978028 -3 2 -3 
7866 6 0.574988 0.607394 0.0850876 -2 2 0 
5343 5 0.753554 0.635277 0.0864921 -1 -4 1 
8886 6 0.793501 0.629171 0.0590141 3 1 -1 
7363 6 0.0590893 0.652685 0.0204743 3 -1 3 
7118 5 0.617116 0.617253 0.0798491 2 -1 -2 
8460 5 0.806341 0.625158 0.0892951 2 3 5 
5259 6 0.680475 0.660759 0.075987 0 -3 -2 
6862 6 0.579287 0.714306 0.0468493 4 -1 -4 
5018 6 0.675146 0.695156 0.104573 7 1 -1 
7220 5 0.0739359 0.713398 0.0838738 0 -1 -3 
8809 5 0.144194 0.755388 0.11791 8 1 2 
8774 6 0.285708 0.766312 0.0894233 1 3 -4 
5941 5 0.896587 0.74837 0.100732 -2 -5 -4 
6761 6 0.82473 0.791392 0.113028 -4 -1 2 
5522 6 0.236287 0.837658 0.0831422 5 -1 2 
6607 5 0.000110862 0.809303 0.0912523 2 1 3 
8493 6 0.233907 0.815699 0.0886241 -2 -1 0 
5618 6 0.0883327 0.855101 0.0361139 2 2 1 
8189 6 0.0422377 0.935111 0.0713435 1 1 0 
6143 6 0.0888715 0.907507 0.0853322 3 2 3 
8539 5 0.581034 0.916493 0.07488 6 -3 2 
7872 6 0.203824 0.896522 0.109236 4 1 1 
5117 6 0.886274 0.898998 0.0659128 -1 2 -1 
8187 6 0.571988 0.941255 0.0546536 0 -1 1 
8498 5 0.289455 0.998817 0.0799013 -1 -1 0 
6157 6 0.651716 0.981491 0.0827131 -6 -2 -3 
8772 6 0.701315 0.995012 0.0951588 0 -5 -4 
5526 6 0.910605 0.00145609 0.0891852 -4 0 4 
8582 5 0.956011 0.0264462 0.10123 0 -3 3 
5094 6 0.16103 0.992368 0.082766 1 3 4 
5564 6 0.864696 0.0110001 0.128085 2 -4 -6 
5784 6 0.0376734 0.0353997 0.0903022 3 -1 -4 
8638 6 0.118101 0.0206834 0.086192 6 -2 4 
8908 6 0.469746 0.0309719 0.102237 0 -4 1 
5019 6 0.717759 0.0644424 0.103159 -4 3 -4 
8791 6 0.774542 0.0779232 0.119781 -4 0 0 
7752 6 0.724499 0.0702525 0.0826067 3 1 0 
8639 5 0.742319 0.0743402 0.068176 -5 1 -5 
6970 5 0.0251945 0.0708504 0.106422 3 1 2 
6144 6 0.0762734 0.0962545 0.107046 6 4 3 
5562 5 0.679234 0.132049 0.116824 3 -1 -2 
8674 6 0.189043 0.145251 0.079045 -2 5 2 
8558 6 0.66631 0.164585 0.100387 -4 6 -5 
8763 6 0.0282899 0.138333 0.0796876 3 -5 0 
5738 6 0.723827 0.196941 0.0797527 0 -2 0 
5077 6 0.0640543 0.211413 0.0882698 -2 2 1 
5919 6 0.013176 0.213093 0.0901108 -2 5 1 
8281 6 0.100564 0.184135 0.100513 3 3 2 
7637 5 0.321345 0.200329 0.0983698 -2 -1 1 
5953 6 0.579056 0.223072 0.116617 0 1 5 
6893 5 0.657684 0.252571 0.0850724 -4 1 -4 
5235 6 0.214207 0.222227 0.112091 4 -6 -5 
7355 6 0.050982 0.303391 0.0828198 0 1 1 
5046 6 0.152125 0.27727 0.112344 3 3 2 
5936 6 0.0855835 0.319596 0.0853412 -2 -1 -3 
7456 5 0.99062 0.277581 0.119579 -2 2 5 
7519 5 0.00772897 0.325898 0.100489 1 1 -3 
6992 5 0.705652 0.293862 0.0749128 2 6 -2 
6971 6 0.540492 0.348845 0.0476511 -3 0 3 
8540 5 0.159184 0.366954 0.129954 -5 -2 -1 
8422 6 0.663255 0.335262 0.108166 3 -2 3 
6459 5 0.954825 0.369554 0.144734 0 -3 -1 
8067 6 0.218485 0.42031 0.134137 -2 4 2 
6072 6 0.87791 0.411368 0.0897945 -1 -1 3 
5839 6 0.172086 0.423569 0.134109 -2 -3 1 
5449 5 0.198213 0.457748 0.113799 -2 -1 2 
8147 5 0.59985 0.437048 0.0919029 2 5 -1 
8491 6 0.551519 0.453384 0.116092 -1 2 1 
5080 5 0.0866356 0.513353 0.107948 0 -6 0 
8967 6 0.996348 0.467523 0.115933 0 0 3 
7171 6 0.127093 0.516676 0.0993065 3 -4 2 
7927 5 0.238769 0.520813 0.0926098 -5 0 -1 
5072 5 0.658119 0.500931 0.125179 -3 -1 -2 
5841 5 0.0355393 0.502847 0.120267 -4 -1 -3 
6353 6 0.104512 0.489252 0.0689606 0 -1 1 
7197 6 0.375548 0.57806 0.13329 0 0 -1 
8556 6 0.182513 0.558891 0.13001 -5 0 -4 
8486 5 0.45276 0.560731 0.103595 3 0 -1 
5692 5 0.925828 0.563683 0.0799323 -2 0 -6 
7914 5 0.790132 0.636278 0.0886445 0 3 0 
6927 5 0.953352 0.66389 0.0836961 -3 2 -1 
6502 6 0.0033717 0.657256 0.124307 -3 2 0 
7032 5 0.308027 0.619416 0.110527 -5 -1 -1 
6852 6 0.405637 0.650541 0.0930618 1 1 1 
8390 6 0.654645 0.653284 0.125636 -2 -1 1 
5481 5 0.0925811 0.727493 0.0700011 -2 2 -2 
8788 6 0.381712 0.675604 0.139146 -2 1 1 
5456 6 0.301344 0.688721 0.0639149 3 -3 -1 
5735 6 0.148132 0.737886 0.106491 3 6 -1 
8021 6 0.196496 0.725885 0.119597 2 -2 -1 
7594 5 0.407769 0.732488 0.122782 -3 2 1 
6915 5 0.659324 0.741617 0.0949358 0 -4 0 
8132 5 0.661273 0.704452 0.0911506 -6 -6 3 
7284 6 0.274379 0.748408 0.106411 -1 1 0 
6061 6 0.475424 0.733688 0.159284 3 3 2 
8717 6 0.183992 0.763651 0.0865799 2 2 5 
6981 6 0.244895 0.766545 0.118309 0 -3 0 
6561 6 0.753236 0.743644 0.118788 0 2 2 
8876 6 0.515958 0.788731 0.0834902 -2 3 0 
6777 5 0.12007 0.824288 0.107083 1 -3 -1 
6672 6 0.724003 0.812491 0.0902493 -1 1 2 
7807 5 0.0599192 0.847427 0.084342 -1 -1 -2 
8707 5 0.969348 0.864133 0.127093 -1 1 2 
5699 5 0.272213 0.912164 0.0959836 2 -2 -1 
7202 6 0.207196 0.875744 0.0968368 -4 0 -2 
6199 6 0.980629 0.94708 0.110584 -4 -4 3 
7781 6 0.0973577 0.984847 0.0812118 -6 1 1 
8614 6 0.393718 0.961768 0.0786244 -2 0 -3 
8124 6 0.362659 0.94415 0.0889443 2 1 -3 
5198 5 0.163515 0.00342075 0.0837188 4 -2 -1 
5851 5 0.564367 0.995971 0.110434 -2 -4 -1 
6667 6 0.741424 0.989597 0.123793 -3 -9 2 
5966 6 0.0550268 0.00832136 0.102195 2 -3 -2 
8862 6 0.744309 0.078735 0.108123 -2 1 -1 
8733 6 0.153852 0.0527976 0.156486 -1 -6 1 
7418 5 0.330968 0.0956738 0.12355 1 0 -6 
5311 6 0.719201 0.0542344 0.116707 2 3 4 
8973 6 0.205502 0.150893 0.119487 -1 3 0 
6820 6 0.266103 0.153773 0.130898 0 0 -1 
5721 6 0.304829 0.161089 0.11005 0 1 -1 
7216 6 0.664588 0.185412 0.122192 -1 4 -2 
8768 6 0.724792 0.168087 0.148033 -2 3 1 
8474 6 0.717156 0.182628 0.140917 0 0 1 
7374 5 0.196873 0.157817 0.099037 -5 -5 0 
7635 6 0.0511303 0.181055 0.135275 3 2 3 
7063 6 0.590253 0.23338 0.145409 -2 -6 1 
7427 5 0.917925 0.191377 0.123579 -4 -1 2 
8101 6 0.492313 0.257 0.155875 2 4 -1 
8758 5 0.616045 0.282672 0.10525 -2 -3 2 
7740 6 0.621347 0.268091 0.120169 -2 -2 -1 
5126 6 0.862706 0.256816 0.0802312 0 5 -1 
7008 5 0.891831 0.289909 0.137937 2 0 5 
6490 6 0.572489 0.303415 0.121053 -1 2 1 
6944 5 0.493383 0.283809 0.0854977 -4 3 -2 
7825 6 0.549987 0.338801 0.151803 2 4 7 
5920 5 0.81571 0.292449 0.107419 2 -2 -1 
8807 5 0.155296 0.318378 0.131323 0 0 2 
7624 6 0.996377 0.323045 0.13592 3 -7 2 
8007 6 0.0726193 0.349826 0.119095 1 0 4 
5906 5 0.810786 0.358427 0.136254 -2 -4 -5 
8174 6 0.539058 0.451199 0.104576 3 -1 -1 
6392 5 0.786082 0.441185 0.102601 2 4 0 
5261 6 0.93193 0.464839 0.0895324 1 2 -1 
5652 5 0.99674 0.540337 0.132515 -1 -3 -3 
7613 5 0.141696 0.528148 0.11816 -3 -1 -4 
8689 6 0.74982 0.497088 0.125267 0 -2 3 
6039 6 0.00293032 0.538895 0.0996273 1 -1 0 
5263 6 0.565874 0.538874 0.132011 2 -2 0 
6174 6 0.642858 0.52564 0.102611 2 1 -5 
7459 6 0.720102 0.485943 0.115235 -3 3 1 
5061 6 0.913272 0.5488 0.106219 -6 3 -5 
5174 6 0.854527 0.572264 0.139622 6 1 0 
5291 5 0.5964 0.566464 0.109222 2 0 2 
6336 5 0.316053 0.643329 0.123382 4 3 2 
7110 6 0.794884 0.666124 0.109325 3 -3 0 
5349 6 0.247008 0.678205 0.14333 -3 -2 -2 
6290 6 0.356844 0.701109 0.105751 2 1 -2 
6738 5 0.988895 0.658973 0.0992733 2 6 -3 
6386 5 0.448743 0.707781 0.130212 4 1 3 
7773 5 0.907654 0.754021 0.142068 -2 -4 0 
6886 6 0.986243 0.701082 0.132912 0 0 0 
7191 6 0.979761 0.723076 0.0881844 -2 0 6 
8736 5 0.0622795 0.7412 0.156541 1 0 0 
7068 6 0.238928 0.741239 0.0863287 2 1 0 
7726 5 0.351149 0.800108 0.110853 -1 -3 0 
5833 5 0.392964 0.799975 0.139707 -3 2 1 
5351 5 0.605066 0.821268 0.149521 5 -2 2 
8806 6 0.77055 0.861808 0.121487 2 -2 -1 
5135 6 0.0107118 0.858286 0.104879 -1 -8 3 
8039 6 0.678618 0.90288 0.102964 2 -3 -2 
8934 6 0.723522 0.816681 0.141307 3 3 -1 
7710 5 0.756357 0.900893 0.123576 2 2 -3 
5716 6 0.725251 0.91592 0.112803 2 0 0 
7200 6 0.3256 0.88529 0.120013 3 -5 0 
8655 6 0.383167 0.925999 0.110975 -1 1 2 
6913 6 0.401287 0.912633 0.13296 0 -2 3 
5677 6 0.18525 0.907242 0.126711 -2 0 -2 
5649 6 0.778948 0.926609 0.112585 -2 4 1 
6427 5 0.167574 0.961928 0.129735 -1 -3 -1 
7017 5 0.296526 0.973141 0.106473 -2 -4 -4 
8581 5 0.426996 0.983093 0.0883851 -6 -1 1 
6470 6 0.407008 0.984059 0.12224 -1 4 -1 
8377 5 0.96201 0.993705 0.108772 0 0 -2 
5275 6 0.243925 0.99436 0.120289 1 -1 -4 
8389 6 0.629693 0.0364213 0.135262 0 3 1 
8618 6 0.0455505 0.0653565 0.151802 -3 0 2 
5523 5 0.509889 0.0827279 0.160611 2 2 -1 
6990 6 0.207281 0.10248 0.170504 -2 -1 -3 
1082 1 0.560761 0.133304 0.166609 0 0 0 
1081 1 0.558381 0.137886 0.171183 0 0 0 
1083 1 0.555109 0.131598 0.168846 0 0 0 
7698 6 0.602557 0.162829 0.135356 2 1 5 
6946 6 0.89435 0.203679 0.140048 -4 2 -1 
6294 5 0.0228254 0.216089 0.163612 -5 -2 -2 
6310 6 0.186494 0.209486 0.167807 0 4 1 
6292 6 0.884779 0.242996 0.166233 1 -2 0 
5459 6 0.940084 0.238834 0.162717 0 0 2 
5245 6 0.285858 0.258879 0.11574 1 -3 3 
7778 6 0.315766 0.248852 0.146757 2 -3 0 
5162 6 0.655784 0.259402 0.196385 5 3 3 
7311 6 0.760417 0.257501 0.123409 0 1 -3 
6925 5 0.0302845 0.304395 0.147701 -1 2 3 
8370 6 0.0845314 0.315022 0.138081 1 -1 -1 
7510 6 0.0782195 0.329009 0.129118 -6 -5 4 
5345 6 0.605083 0.3212 0.148943 1 -1 2 
5644 6 0.768719 0.323941 0.192997 -1 1 -3 
7913 5 0.954331 0.352018 0.133311 1 -1 2 
6413 6 0.849434 0.361507 0.141397 -5 3 -1 
7189 6 0.907463 0.445787 0.126124 -1 1 3 
5853 5 -0.00407137 0.465135 0.174357 2 4 -2 
8926 6 0.905628 0.417723 0.129589 -2 -4 -2 
5178 6 0.0569653 0.449863 0.167584 2 1 -1 
8089 6 0.250527 0.463143 0.121523 -2 -2 1 
7013 6 0.201296 0.549813 0.138604 -1 5 2 
5990 5 0.411634 0.498932 0.158519 2 1 -1 
8043 5 0.572481 0.566407 0.122201 2 0 0 
5031 5 0.876301 0.529048 0.149359 4 4 2 
5297 6 0.386334 0.581013 0.160703 2 -4 -2 
8895 6 0.173818 0.601979 0.1609 1 1 -4 
5465 5 0.240482 0.595348 0.121131 4 1 0 
8696 6 0.597733 0.655435 0.173043 3 4 0 
7769 5 0.684083 0.702653 0.147932 1 2 -1 
6591 5 0.223441 0.694022 0.124499 3 -5 5 
5698 5 0.571792 0.687014 0.151513 -2 -2 -4 
6154 5 0.606585 0.680373 0.104474 0 -1 6 
6824 6 0.0503953 0.706821 0.125346 5 0 0 
7376 6 0.344463 0.694807 0.112442 2 1 -1 
8698 5 0.872573 0.743511 0.145699 -6 -1 0 
5619 6 0.136049 0.765306 0.135222 -2 -2 -2 
5497 5 0.73437 0.737486 0.15449 3 -1 -1 
7420 6 0.874527 0.741964 0.167439 -6 1 1 
7400 5 0.172875 0.787371 0.148937 -3 -4 1 
5740 5 0.142432 0.785496 0.116625 -1 -4 3 
7564 5 0.0569108 0.808678 0.116251 -2 3 1 
6735 5 0.399131 0.839557 0.121439 4 1 3 
8853 5 0.651298 0.820445 0.158409 -1 2 -2 
5757 6 0.988104 0.793586 0.157775 -3 1 -4 
5665 5 0.0843526 0.843098 0.134263 -5 -3 1 
7255 5 0.78192 0.875506 0.161001 -2 -5 0 
8968 5 0.104402 0.919877 0.210048 2 5 2 
7533 6 0.578994 0.919215 0.156142 0 0 0 
6136 6 0.845821 0.917677 0.140992 -5 0 0 
6694 5 0.137454 0.947522 0.134138 3 4 -1 
6787 6 0.13893 0.973909 0.158023 2 -2 1 
7152 6 0.215688 -0.00210919 0.120232 5 -2 3 
5132 6 0.392462 0.973096 0.174502 -1 4 -1 
8046 5 0.16331 0.0117586 0.159463 6 -2 -2 
7632 6 0.289226 0.988641 0.152418 0 -2 1 
5056 5 0.798474 0.989711 0.154829 -3 -1 3 
7931 5 0.508524 0.0223187 0.194112 -2 3 -1 
7313 5 0.618837 0.974121 0.15751 -3 3 -2 
5630 5 0.560784 0.00984914 0.153887 -1 1 2 
6481 6 0.385799 0.0599895 0.131152 0 -1 -1 
6462 5 0.997057 0.0559032 0.177539 -2 4 0 
6729 6 0.376118 0.107583 0.148052 -2 1 0 
1128 1 0.535818 0.0891117 0.180361 0 0 0 
1126 1 0.541299 0.0930504 0.177977 0 0 0 
1127 1 0.5417 0.0873449 0.180023 0 0 0 
1125 1 0.546839 0.0910657 0.175794 0 0 0 
7853 6 0.71367 0.0542154 0.178129 -1 -4 0 
6380 6 0.248666 0.114412 0.195004 -2 0 3 
5889 6 0.281756 0.114825 0.159631 5 -7 -4 
8116 6 0.34912 0.128246 0.193458 0 -1 5 
1116 1 0.548152 0.108303 0.16559 0 0 0 
1113 1 0.538585 0.101392 0.164506 0 0 0 
1114 1 0.541672 0.106201 0.167894 0 0 0 
1109 1 0.528868 0.109274 0.170147 0 0 0 
1108 1 0.528891 0.105203 0.174767 0 0 0 
1110 1 0.535089 0.108261 0.170777 0 0 0 
1112 1 0.535426 0.106853 0.163385 0 0 0 
1111 1 0.5323 0.103372 0.167845 0 0 0 
1115 1 0.543668 0.106023 0.161624 0 0 0 
1119 1 0.553923 0.101147 0.166735 0 0 0 
1117 1 0.54711 0.102534 0.168477 0 0 0 
1123 1 0.554198 0.0919391 0.177895 0 0 0 
1118 1 0.552154 0.105243 0.171386 0 0 0 
1122 1 0.553936 0.0981964 0.177269 0 0 0 
1120 1 0.558095 0.100521 0.171683 0 0 0 
1121 1 0.554657 0.0952993 0.171712 0 0 0 
1124 1 0.548509 0.0945142 0.1807 0 0 0 
7527 6 0.633043 0.128199 0.21495 6 -1 1 
6400 5 0.789513 0.107947 0.182413 -2 6 -1 
7908 5 0.115701 0.104214 0.153402 1 5 1 
7329 6 0.148103 0.0950373 0.169093 -2 4 0 
8410 5 0.228583 0.127846 0.169901 3 0 3 
1096 1 0.53631 0.120353 0.189239 0 0 0 
1094 1 0.539078 0.120182 0.181929 0 0 0 
1092 1 0.538025 0.121407 0.174889 0 0 0 
1093 1 0.541646 0.125017 0.178797 0 0 0 
1088 1 0.542809 0.131088 0.164684 0 0 0 
1089 1 0.540283 0.132328 0.170306 0 0 0 
5062 5 0.552847 0.132255 0.198677 -1 2 1 
1090 1 0.540641 0.126105 0.169386 0 0 0 
1091 1 0.536068 0.127209 0.173839 0 0 0 
1095 1 0.537671 0.125304 0.185359 0 0 0 
1080 1 0.561652 0.140567 0.166775 0 0 0 
1086 1 0.549673 0.130481 0.163132 0 0 0 
1084 1 0.557022 0.127643 0.16433 0 0 0 
1085 1 0.55197 0.124959 0.166481 0 0 0 
7356 5 0.555659 0.132801 0.182974 1 4 -3 
1087 1 0.547198 0.129336 0.169463 0 0 0 
1065 1 0.55975 0.126542 0.1865 0 0 0 
1066 1 0.562778 0.130358 0.189977 0 0 0 
1069 1 0.561521 0.137466 0.186675 0 0 0 
8760 5 0.452701 0.155971 0.13761 -2 4 3 
1073 1 0.557301 0.147512 0.179599 0 0 0 
1075 1 0.550402 0.14635 0.177478 0 0 0 
1078 1 0.555424 0.144918 0.166231 0 0 0 
1079 1 0.560293 0.144939 0.171187 0 0 0 
1076 1 0.551239 0.142348 0.172374 0 0 0 
1074 1 0.554681 0.141375 0.179276 0 0 0 
1072 1 0.562456 0.143748 0.180754 0 0 0 
1077 1 0.553951 0.148384 0.1714 0 0 0 
1071 1 0.558925 0.144285 0.185755 0 0 0 
1070 1 0.564671 0.143141 0.187547 0 0 0 
7541 6 0.640698 0.181777 0.155075 2 0 5 
7410 5 0.803839 0.146278 0.184755 -4 -1 -7 
8183 6 0.99602 0.112415 0.163273 3 -5 -2 
6016 6 0.169791 0.226503 0.145599 2 -3 1 
7925 6 0.256745 0.176406 0.130836 2 4 1 
8332 6 0.347105 0.214478 0.181105 -2 2 5 
8633 5 0.435728 0.198318 0.162758 0 5 0 
5825 6 0.0998175 0.197367 0.141844 2 1 1 
5638 5 0.245654 0.210043 0.180824 -2 -1 6 
8171 5 0.666457 0.22273 0.175361 0 1 -4 
7940 5 0.677304 0.251955 0.127154 2 1 2 
7586 5 0.660191 0.234922 0.185943 3 2 1 
6283 5 0.406127 0.325121 0.159395 -1 4 -2 
7909 5 0.870254 0.351007 0.17355 -2 2 3 
7524 5 0.363145 0.379606 0.158641 2 -5 0 
5340 5 0.597467 0.339699 0.155342 0 1 2 
8825 6 0.192906 0.429116 0.197443 -6 2 0 
6875 5 0.683291 0.410757 0.161296 0 -8 4 
8463 6 0.695952 0.449703 0.163964 2 4 2 
7454 6 0.806872 0.395783 0.164013 1 1 -4 
6404 6 0.421973 0.451196 0.151482 0 0 2 
6487 5 0.804998 0.45121 0.201923 -2 1 0 
5566 6 0.819184 0.45143 0.189766 1 3 1 
7751 5 0.117266 0.493245 0.163769 2 -3 0 
8513 6 0.887407 0.509803 0.162842 1 1 -1 
8541 5 0.995909 0.49032 0.14838 -5 -3 -2 
8984 6 0.769324 0.555911 0.11554 3 -3 2 
5401 6 0.514026 0.640821 0.165443 -1 1 -1 
5901 5 0.83359 0.591372 0.169243 0 -1 -5 
7745 6 0.110418 0.589455 0.210939 0 -2 2 
8724 6 0.232637 0.598998 0.154459 1 4 -2 
6747 6 0.118338 0.643432 0.175239 4 2 -3 
8822 5 0.831517 0.642752 0.141783 1 2 5 
5422 5 0.96522 0.59081 0.145951 -2 2 2 
6660 6 0.288681 0.638304 0.167611 0 2 2 
8520 6 0.350265 0.712169 0.137477 1 2 -2 
6298 5 0.594731 0.6826 0.172921 -2 -4 1 
6597 5 0.0759025 0.638787 0.164252 -1 -2 0 
6346 6 0.280926 0.717038 0.183376 6 -2 1 
5536 5 0.19382 0.72578 0.192301 2 4 1 
8190 5 0.332568 0.717537 0.140909 2 -5 5 
6525 5 0.655727 0.705319 0.196741 -1 -2 0 
5042 5 0.777408 0.718368 0.150291 -6 -2 0 
8077 5 0.222727 0.72298 0.163788 0 -8 3 
6171 6 0.414506 0.822904 0.171828 5 -1 -1 
8051 6 0.96063 0.790274 0.141065 -7 2 -2 
8567 6 0.948721 0.815427 0.188923 3 1 -3 
8549 6 0.525213 0.83519 0.156112 1 -3 2 
8999 6 0.19924 0.897973 0.187603 2 2 0 
5009 5 0.139146 0.901841 0.148044 1 4 -3 
5302 6 0.174876 0.906477 0.200063 -2 -3 4 
8517 6 0.910706 0.924199 0.166818 -5 -4 5 
7694 5 0.121473 0.933254 0.179067 0 -3 0 
7195 6 0.871098 0.979258 0.163106 -3 -3 1 
7211 5 0.984301 -0.00183178 0.191469 3 -8 0 
6159 5 0.475314 0.974982 0.185789 2 -3 4 
6175 6 0.279164 -0.00167814 0.204548 1 1 0 
5657 6 0.964081 0.0486782 0.23246 6 1 0 
6522 6 0.311886 0.0744761 0.203285 0 0 3 
7052 5 0.397084 0.0801506 0.188187 -2 6 -3 
6869 5 0.791688 0.0718317 0.193334 3 -3 -3 
1130 1 0.538491 0.0933931 0.186162 0 0 0 
1129 1 0.538113 0.0871442 0.186303 0 0 0 
1131 1 0.541756 0.0911369 0.191486 0 0 0 
6953 5 0.986432 0.0469674 0.200888 4 1 -2 
5221 5 0.382462 0.106525 0.16253 0 5 2 
1106 1 0.523845 0.108185 0.178733 0 0 0 
1105 1 0.527063 0.109089 0.184552 0 0 0 
1107 1 0.529933 0.110582 0.177908 0 0 0 
1102 1 0.521576 0.114087 0.187949 0 0 0 
1104 1 0.520579 0.108027 0.185167 0 0 0 
1135 1 0.55339 0.0884617 0.193719 0 0 0 
1137 1 0.554882 0.0939252 0.198432 0 0 0 
1139 1 0.559349 0.0998663 0.197505 0 0 0 
6803 5 0.5485 0.0941013 0.195842 3 -4 1 
1132 1 0.545458 0.0959814 0.189096 0 0 0 
1133 1 0.548759 0.0902599 0.188223 0 0 0 
1134 1 0.553199 0.0942118 0.190156 0 0 0 
1138 1 0.561123 0.094485 0.200639 0 0 0 
1136 1 0.559049 0.0921305 0.193737 0 0 0 
1140 1 0.565518 0.0994781 0.198568 0 0 0 
1142 1 0.566907 0.106884 0.198898 0 0 0 
5589 6 0.0889733 0.102241 0.206099 4 0 1 
1103 1 0.523715 0.108818 0.191056 0 0 0 
1097 1 0.53086 0.123039 0.187901 0 0 0 
1101 1 0.520508 0.11552 0.193894 0 0 0 
1099 1 0.524582 0.121203 0.190999 0 0 0 
1100 1 0.526579 0.115584 0.192448 0 0 0 