ITEM: TIMESTEP
20000000
ITEM: NUMBER OF ATOMS
9000
ITEM: BOX BOUNDS pp pp pp
-75 75
-75 75
-75 75
ITEM: ATOMS id type xs ys zs ix iy iz 
7361 5 0.791029 0.976726 0.954844 1 -1 3 
5367 6 0.986123 0.97066 0.999264 0 0 -2 
8879 6 0.699819 0.0156336 0.0250484 3 -1 1 
5740 6 0.93346 0.0659216 0.0240553 4 2 7 
5209 6 0.801512 0.0791554 0.00603687 -1 0 4 
7687 6 0.206374 0.0977564 0.0229061 -6 2 -1 
6285 6 0.243614 0.143485 0.0121923 1 2 1 
6381 5 0.427857 0.15335 0.0214289 -3 1 0 
6732 5 0.550044 0.0966154 0.997683 -3 6 -2 
6504 5 0.49884 0.1735 0.0315971 1 2 -3 
5323 6 0.743833 0.197955 0.990772 2 0 0 
8982 6 0.0140148 0.177915 0.0105826 5 1 -1 
8610 6 0.982141 0.217894 0.0203819 1 -4 -2 
5357 6 0.287239 0.228328 0.0222714 2 -2 3 
7199 5 0.181622 0.244428 0.054984 0 5 -1 
6429 5 0.634916 0.20621 0.00124333 4 1 1 
7268 6 0.0217211 0.240252 0.00382155 -4 1 2 
7120 5 0.914872 0.254501 0.00276285 0 -1 -2 
6308 6 0.662398 0.235508 0.0297206 0 3 4 
8846 6 0.0866649 0.296583 0.0267479 -5 -1 -5 
7998 5 0.21547 0.311762 0.0111308 3 -6 -7 
5374 5 0.576051 0.317563 0.0170691 0 -3 1 
6819 6 0.24946 0.317687 0.98684 -2 3 -3 
5092 6 0.224347 0.381827 0.0318379 -1 -2 1 
7575 5 0.425002 0.347457 0.050831 -1 -1 0 
8224 6 0.578716 0.358681 0.042737 0 -3 3 
8756 5 0.75341 0.335546 0.00844789 -4 2 -5 
8438 5 0.396314 0.425091 0.990689 3 2 -3 
7367 6 0.709778 0.381947 0.997354 -2 -4 0 
5067 6 0.786208 0.373611 0.977926 0 4 1 
6222 6 0.177804 0.430136 0.00735232 2 0 -2 
5938 5 0.522357 0.458217 0.0237005 -1 -2 -5 
7453 5 0.253111 0.461962 0.0153133 3 1 0 
7261 5 0.502134 0.457614 0.981498 4 1 6 
8719 6 0.198404 0.445737 0.0318521 3 2 2 
7258 6 0.92159 0.523726 0.0188878 2 -4 -5 
5564 6 0.208308 0.526214 0.0422333 -1 4 0 
6686 6 0.356298 0.563534 0.0240412 -3 1 1 
6213 6 0.873018 0.525063 0.991125 -4 -3 1 
7569 6 0.584864 0.554701 0.00412188 3 6 0 
5756 5 0.927733 0.519547 0.994639 0 -4 -1 
7964 6 0.207801 0.603746 0.957468 -4 0 -1 
6537 5 0.976036 0.600858 0.0364617 -5 -7 -5 
6730 6 0.0921643 0.583022 0.0348221 0 1 -6 
6965 6 0.49329 0.593523 0.00946265 2 -9 -4 
6315 5 0.635846 0.593459 0.997497 -3 -3 1 
5674 5 0.894707 0.610438 0.0210283 2 -2 1 
5288 6 0.274463 0.64906 0.0256063 -3 6 -1 
6900 6 0.970637 0.647318 0.99273 -1 -4 4 
8629 5 0.948061 0.692525 0.00781791 -1 -1 1 
7126 5 0.977213 0.674922 0.982787 -4 -3 0 
5571 6 0.752159 0.724103 0.0363372 1 -2 -3 
5824 5 0.958306 0.679381 0.975775 2 -4 -2 
5600 5 0.417127 0.734843 0.0159842 -5 2 -2 
7021 6 0.986418 0.716831 0.97564 -5 -4 -2 
6159 6 0.987501 0.747164 0.991923 2 4 3 
5427 5 0.0761017 0.738734 0.0172299 2 -8 7 
6230 6 0.811342 0.696946 0.991526 5 0 2 
8019 5 0.685062 0.771562 0.0337315 2 1 1 
8188 5 0.410138 0.779432 0.0470843 -1 1 -2 
6111 5 0.703685 0.807773 0.0395617 0 -1 -1 
6327 6 0.0432433 0.828005 0.993189 0 4 1 
7649 5 0.340849 0.852876 0.0172022 0 1 4 
8664 5 0.356243 0.856902 0.0116727 -4 -2 0 
5238 6 0.777995 0.865734 0.00918321 -2 0 2 
8509 5 0.46673 0.891309 0.981925 2 2 1 
5418 5 0.535781 0.875991 0.997272 -4 4 1 
6089 6 0.977578 0.867731 0.00862556 -1 3 -2 
8678 5 0.717042 0.883817 0.0208756 4 0 1 
8501 5 0.0523392 0.956704 0.0640354 5 -2 3 
6156 5 0.639441 0.931502 1.00032 -1 0 0 
7901 5 0.0124935 0.961178 0.0165481 -1 -2 1 
8036 6 0.563177 0.896225 0.00953004 -3 2 -2 
7323 6 0.115543 0.948014 0.0459247 -3 -2 -4 
8712 5 0.443348 0.958623 0.0170737 2 -2 2 
8650 5 0.550659 0.969419 0.0255745 1 1 1 
8093 6 0.128743 0.99063 0.0165225 2 -4 -2 
6349 6 0.456769 0.027489 0.0742695 0 1 3 
7112 6 0.187384 0.00839908 0.0150602 3 2 1 
6437 6 0.664019 0.0357435 0.0230299 0 1 2 
5366 6 0.621341 0.0810552 0.0254858 1 6 -4 
5779 6 0.696794 0.0684283 0.0406833 2 2 1 
8849 6 0.0534325 0.147031 0.00283877 3 5 3 
7082 5 0.362793 0.141069 0.0617276 -4 -2 4 
8649 6 0.396303 0.189695 0.0640306 -1 0 6 
8959 6 0.644799 0.177004 0.0508828 -6 3 -1 
5073 6 0.818303 0.224133 0.0506967 0 -5 4 
5273 6 0.911702 0.172838 0.0344112 -7 -2 -3 
7744 5 0.305852 0.206556 0.0499857 3 -5 3 
6817 5 0.474527 0.187557 0.0254891 -1 -6 0 
8596 6 0.198038 0.256828 0.0192161 3 3 3 
8887 5 0.179851 0.284745 0.0123047 0 -6 5 
5096 5 0.827054 0.281955 0.054431 3 2 2 
7059 5 0.0748733 0.313133 0.997655 0 -1 0 
5387 5 0.201082 0.284738 0.0115242 2 -2 2 
6049 6 0.381275 0.328721 0.00297419 2 1 4 
6690 6 0.241832 0.327506 0.0295382 3 1 2 
8313 5 0.0789036 0.356544 0.0743751 -2 0 -1 
8444 6 0.777423 0.29671 0.0828453 6 1 -1 
7233 5 0.293649 0.39842 0.0388888 3 -3 1 
8246 5 0.0254246 0.423406 0.0220168 5 -1 2 
8418 6 0.273526 0.379298 0.0278538 0 -4 -1 
7169 5 0.754716 0.394848 0.0633759 3 -3 -1 
5841 5 0.971408 0.46267 0.0574486 3 -4 -1 
8160 6 0.544353 0.417211 0.00913405 3 -5 -3 
6691 6 0.735245 0.41611 0.020736 3 5 4 
6294 6 0.0458189 0.454429 0.0424781 0 3 -2 
7937 6 0.83233 0.421956 0.036646 -3 2 4 
6271 6 0.424838 0.476881 0.0707356 0 0 5 
6964 6 0.203981 0.481846 0.0441242 0 -2 0 
6885 6 0.698506 0.489014 0.0856067 5 4 2 
6442 6 0.639805 0.560868 0.0647798 3 -2 0 
5673 5 0.706305 0.603729 0.0388367 -1 -1 3 
7142 5 0.0184978 0.611375 0.990344 1 1 6 
5942 6 0.0836366 0.614156 0.0424474 6 -1 5 
6939 6 0.570783 0.570711 0.0187953 7 5 -1 
7160 5 0.471749 0.636067 0.04882 1 2 2 
5601 5 0.553866 0.615633 0.0518643 -1 -5 2 
6039 6 0.137612 0.664176 0.0533684 0 3 1 
6432 5 0.757897 0.624786 0.0136653 -2 4 -4 
8616 6 0.742018 0.670944 0.0573346 -1 1 6 
7739 5 0.849442 0.714325 0.0467319 2 -6 -2 
6468 6 0.0909012 0.731799 0.00227174 -3 -1 -2 
6768 6 0.774686 0.757382 0.0305144 -3 2 0 
5241 5 0.628199 0.73231 0.0300641 0 6 0 
5515 5 0.777588 0.756865 0.0593366 3 -4 -1 
5185 5 0.116043 0.780709 0.0288535 0 0 -1 
6174 5 0.523645 0.808114 0.0396805 1 -2 3 
6560 5 0.939569 0.751719 0.0874599 3 5 -1 
5085 6 0.91403 0.832673 0.039947 -1 5 0 
8498 5 0.00301714 0.836844 0.0165017 0 -2 5 
6076 6 0.266578 0.823936 0.0368262 -2 -4 -6 
6311 6 0.824598 0.820518 0.0462123 -3 -7 3 
5762 6 0.496959 0.845551 0.0629471 -2 3 1 
7057 5 0.137284 0.869941 0.0549049 4 0 -1 
6037 6 0.58762 0.854982 0.0370732 -3 2 3 
6925 5 0.770463 0.844782 0.00731631 0 5 0 
6527 5 0.817396 0.909832 0.0441137 -8 2 4 
8799 5 0.889724 0.882666 0.0491531 -1 -1 0 
8081 5 0.738257 0.91812 0.0152706 -3 1 3 
5907 5 0.199173 0.936532 0.0399711 -2 -3 2 
8385 6 0.57302 0.942763 0.0616675 0 -2 3 
7619 5 0.374156 0.949999 0.0362909 2 -4 3 
5736 5 0.415843 0.942818 0.0496261 -2 -2 0 
6384 5 0.898966 0.909888 0.0317583 0 1 0 
7917 6 0.625989 0.994171 0.0518938 -1 1 4 
8018 5 0.582297 0.0290553 0.0885499 4 -2 -1 
5064 5 0.480987 0.00456459 0.0790688 1 5 -4 
7969 5 0.991662 0.0238442 0.0389932 -1 0 6 
6459 5 0.0579189 0.05512 0.0290917 -1 1 2 
5436 6 0.832191 0.0444762 0.0532497 2 -4 1 
6436 6 0.821275 0.0624995 0.0641606 0 -1 5 
7060 6 0.0937823 0.105938 0.0934118 0 -5 2 
8468 6 0.601068 0.109181 0.0421152 3 1 4 
6678 5 0.0380786 0.102316 0.0399608 -1 -2 0 
8222 6 0.5937 0.108116 0.0743348 -1 0 0 
6778 6 0.862676 0.147918 0.0566991 -3 2 3 
8597 6 0.0193195 0.213501 0.00689846 0 3 1 
8315 5 0.757556 0.190418 0.0514394 -7 -4 -3 
5419 6 0.606859 0.238795 0.0544594 2 2 -2 
8938 6 0.965454 0.222816 0.0825372 -3 -1 0 
6848 6 0.0619272 0.274691 0.0543557 4 -6 2 
7061 6 0.831818 0.264483 0.0497318 -6 -5 2 
8909 6 0.982665 0.296936 0.044275 0 6 4 
8638 6 0.504577 0.290415 0.0444987 -7 3 1 
6232 6 0.736507 0.28421 0.0546495 -4 2 -2 
6788 6 0.411614 0.336943 0.0838736 2 0 4 
5878 6 0.628599 0.291817 0.0802986 -2 3 -1 
5134 5 0.0141968 0.346146 0.0881771 3 3 3 
6662 6 0.676932 0.365188 0.0993348 -5 6 1 
8358 5 0.866805 0.319523 0.0675792 -6 -1 2 
5658 5 0.108382 0.405278 0.032842 2 7 -2 
6979 5 0.49116 0.410577 0.0635369 -2 0 0 
7439 5 0.92245 0.42823 0.0423687 -1 -1 3 
6360 5 0.0359258 0.463644 0.0452428 -2 2 4 
8118 5 0.16471 0.449 0.0754699 2 4 0 
6580 5 0.561389 0.406816 0.102746 9 -1 3 
6386 5 0.93146 0.49904 0.0616544 -4 2 5 
8603 6 0.0281081 0.50116 0.0355561 -1 -5 0 
7197 5 0.111674 0.501214 0.0428215 0 2 5 
6994 6 0.692562 0.489097 0.101593 2 -1 5 
5876 6 0.428692 0.535913 0.0581196 4 1 1 
7108 6 0.503677 0.539495 0.0924769 -2 0 0 
7321 5 0.716543 0.528458 0.0523968 0 3 2 
8469 6 0.181217 0.541334 0.0403589 0 -3 2 
6671 6 0.229913 0.596948 0.0523424 -4 -2 1 
7157 6 0.358154 0.549656 0.0354157 -1 3 -2 
5964 6 0.578753 0.542769 0.0574662 1 -3 2 
8913 6 0.664688 0.571876 0.0555751 0 -5 3 
5765 5 0.404441 0.561918 0.0843349 0 1 0 
7089 6 0.806523 0.591669 0.0941172 -3 2 3 
6857 5 0.886056 0.571658 0.0531984 -1 -1 3 
8609 6 0.710109 0.532326 0.0941811 -2 -1 2 
8583 6 0.732128 0.618183 0.0965521 -8 0 3 
5528 6 0.594742 0.666071 0.0615792 1 -2 -2 
7326 6 0.774378 0.665843 0.0593779 1 -4 -3 
6257 5 0.040017 0.66597 0.0425731 4 3 5 
7330 6 0.0753381 0.689734 0.0481711 -4 3 -1 
8458 6 0.786823 0.677155 0.0567092 -8 -1 4 
6592 5 0.0782631 0.731756 0.0639317 0 3 0 
5385 5 0.37893 0.672479 0.0811298 -1 -2 5 
6571 6 0.789112 0.699923 0.0650561 5 1 0 
7756 6 0.343102 0.678579 0.0567701 1 -4 1 
6636 6 0.507149 0.716845 0.0385293 2 1 5 
5111 5 0.336343 0.729809 0.0344456 -2 0 -3 
5819 5 0.499809 0.751748 0.0243345 -1 0 -2 
5253 6 0.726323 0.748903 0.0459415 4 -1 -6 
6452 6 0.888691 0.690056 0.0075179 1 1 -1 
8811 5 0.364228 0.730458 0.045652 -2 -2 -3 
7329 5 0.915777 0.75383 0.0285097 2 0 1 
6840 5 0.0331461 0.818476 0.0147543 -2 1 3 
5110 6 0.0955884 0.836197 0.0636238 3 -2 1 
5854 6 0.987781 0.806002 0.0745401 -2 -3 -2 
6184 6 0.200159 0.845349 0.0871355 3 1 3 
5160 6 0.816329 0.793787 0.0549265 1 0 -1 
5752 6 0.897319 0.81155 0.0560646 5 3 -1 
5020 5 0.113273 0.867475 0.0654382 -1 -1 -1 
5723 5 0.150588 0.855493 0.0285744 3 2 2 
7236 6 0.19183 0.886645 0.0694855 -4 -2 0 
8478 5 0.196264 0.899541 0.0865079 -3 -1 0 
6591 6 0.502065 0.876849 0.0690216 2 -3 -3 
5563 5 0.627326 0.865173 0.0889498 -2 2 4 
5686 5 0.253302 0.912042 0.0664788 -2 1 2 
7955 5 0.68414 0.895799 0.0943367 -1 3 -1 
7651 6 0.921199 0.930529 0.0463906 -1 4 1 
6776 6 0.286172 0.936233 0.0523769 -1 2 7 
7084 5 0.546224 0.980512 0.0790849 1 -1 4 
7174 6 0.834635 0.930658 0.0807539 3 -1 3 
5322 6 0.00729521 0.965423 0.0640441 -8 0 2 
8813 6 0.257292 0.996496 0.0261903 5 -3 4 
8778 6 0.56412 0.992381 0.0757813 1 1 -1 
5431 6 0.614347 0.982556 0.997618 -1 -4 -3 
8103 5 0.079727 0.00982686 0.0699259 0 0 5 
5152 5 0.969373 0.0391832 0.050462 1 0 0 
7829 5 0.0907136 0.0657905 0.0583223 -3 2 3 
8928 6 0.860027 0.0307056 0.0808209 -1 -1 -2 
5030 5 0.417398 0.0907048 0.098606 1 1 0 
5464 6 0.622139 0.00777053 0.0796513 -2 -3 7 
6940 5 0.597297 0.0562358 0.0862345 -5 0 0 
8862 5 0.495145 0.12514 0.119548 -3 1 -2 
8646 5 0.0663247 0.0848301 0.0835516 2 7 0 
8157 6 0.397565 0.116733 0.0666335 1 6 -1 
8698 6 0.105548 0.147293 0.091789 0 2 -3 
8054 5 0.600401 0.125725 0.0739386 1 -3 -4 
5868 5 0.680697 0.105256 0.0968004 -1 4 0 
7660 5 0.602064 0.159299 0.0728583 2 5 1 
5426 6 0.644087 0.149641 0.060044 2 -3 -2 
6704 6 0.646885 0.236328 0.0828391 0 4 -5 
6469 6 0.695449 0.232039 0.0861275 1 -5 3 
7102 6 0.725237 0.216095 0.0827357 -1 1 -2 
8123 5 0.695827 0.210208 0.0967287 -7 1 0 
7826 5 0.83882 0.203498 0.0990014 -4 1 2 
8726 6 0.91141 0.280408 0.0469433 2 -2 2 
8276 5 0.932444 0.229561 0.0771383 1 5 2 
6094 5 0.192142 0.265388 0.0864031 0 3 4 
7807 6 0.613284 0.219833 0.112212 3 -2 -3 
8200 6 0.314997 0.270993 0.0749025 1 -5 3 
8069 5 0.582529 0.299454 0.0795987 0 -5 2 
8373 6 0.854862 0.308767 0.0367323 -2 -4 4 
6568 5 0.14442 0.337369 0.051416 -2 3 -4 
8839 5 0.411652 0.31661 0.0615809 6 1 -1 
8844 5 0.277197 0.320542 0.0879962 2 1 0 
5194 5 0.740644 0.305176 0.0866601 -1 0 1 
7023 5 0.0867002 0.37094 0.0777093 -2 -2 4 
5696 6 0.992673 0.389857 0.0654996 -2 3 1 
8277 5 0.380881 0.382068 0.116244 -3 2 -5 
6278 5 0.733654 0.371086 0.0317466 4 0 1 
7646 6 0.854129 0.427293 0.116263 -1 -2 -6 
7758 6 0.441106 0.437537 0.0555227 4 4 1 
5382 6 0.186823 0.425218 0.0609699 0 -2 -4 
7222 6 0.439053 0.431361 0.0896784 0 3 -2 
7455 6 0.904441 0.454585 0.0608239 -1 -4 2 
7881 5 0.256811 0.446209 0.0247929 3 5 0 
5551 6 0.646455 0.480179 0.0959948 2 1 2 
5394 6 0.438728 0.50994 0.0916515 -7 0 3 
8979 6 0.517377 0.499787 0.0869762 3 0 -4 
7703 5 0.0292311 0.544592 0.079215 -2 0 -1 
5392 6 0.410362 0.643215 0.0962549 -2 -1 -1 
5089 6 0.0724219 0.63255 0.0964077 5 -2 2 
7029 6 0.970771 0.657827 0.113744 -1 0 -2 
8542 5 0.291908 0.650217 0.0791052 2 3 -3 
8109 6 0.787668 0.668525 0.0666485 -5 4 -1 
7324 5 0.433338 0.700521 0.0868724 2 0 0 
6035 5 0.156941 0.695223 0.0899102 -5 -4 1 
5121 5 0.731071 0.697079 0.069215 -2 4 1 
7172 6 0.0707943 0.74214 0.109678 1 1 1 
5783 6 0.0529922 0.730456 0.1061 -4 2 -1 
5132 6 0.0404907 0.818844 0.0586646 2 2 -1 
8701 6 0.1747 0.790396 0.103673 -3 -1 -3 
8429 5 0.247622 0.745996 0.076843 2 4 1 
5287 6 0.508201 0.730404 0.0642962 -1 -1 3 
6980 5 0.74102 0.752426 0.0711015 -5 5 7 
5467 6 0.0345646 0.79161 0.127107 4 -2 2 
8283 6 0.374497 0.807454 0.0764431 -2 2 -1 
8309 5 0.840798 0.805725 0.0616913 -7 -5 0 
6827 6 0.90743 0.819912 0.0661749 -3 3 3 
7686 6 0.259727 0.831162 0.0875717 1 -1 -4 
8336 6 0.972653 0.86229 0.0617311 2 2 -1 
5442 6 0.0974979 0.840259 0.0875105 -4 -5 -3 
7794 5 0.718224 0.870619 0.0888855 0 0 1 
7253 5 0.939625 0.835483 0.089704 0 -2 2 
7700 6 0.309175 0.872312 0.0791026 -1 -3 6 
8201 5 0.397061 0.838645 0.108569 3 0 -3 
5356 5 0.558039 0.856762 0.0803172 1 -1 3 
7543 6 0.848699 0.849225 0.0695828 -3 -1 2 
5393 6 0.498191 0.87445 0.095853 -3 -8 5 
8514 5 0.689794 0.888879 0.0686475 1 -3 -3 
7974 6 0.671536 0.937578 0.107654 -9 -1 -7 
5406 5 0.872881 0.937324 0.0566495 1 -2 3 
6957 5 0.126869 0.950531 0.0831722 3 -2 2 
5714 6 0.477995 0.990682 0.0781175 2 2 0 
5309 6 0.946552 0.957632 0.0790939 -2 0 -4 
7788 6 0.177431 0.0474318 0.11676 -4 -1 4 
5355 5 0.613523 0.000422473 0.0919585 1 2 8 
8643 5 0.240006 1.00001 0.100697 -4 0 0 
7633 6 0.464782 0.0339325 0.0918748 2 0 0 
7459 5 0.307441 0.0712977 0.0619854 3 3 -3 
6987 6 0.371356 0.120272 0.107166 5 3 -2 
5684 5 0.403092 0.0731472 0.130863 2 -3 2 
7816 5 0.647035 0.121678 0.0925786 -2 -4 1 
5101 6 0.774278 0.121441 0.0926188 3 -6 4 
5651 5 0.0129505 0.134948 0.137494 4 -4 -4 
5576 6 0.220468 0.180073 0.102482 1 1 -1 
5825 6 0.610929 0.185335 0.106168 2 -3 -4 
6475 6 0.11128 0.172309 0.104842 3 2 0 
6400 6 0.956106 0.142456 0.0675734 1 -6 -1 
7287 5 0.926076 0.201486 0.103582 2 -1 2 
5511 5 0.993691 0.22035 0.111356 1 0 0 
6548 5 0.35608 0.222392 0.0954911 1 3 -5 
5294 6 0.244332 0.224689 0.0670015 2 0 7 
8519 6 0.387944 0.247351 0.118951 -3 -5 4 
6904 5 0.576441 0.247499 0.0921064 -2 0 -5 
8017 6 0.628836 0.298257 0.0839306 4 -1 -2 
7894 6 0.555776 0.323358 0.0999672 -4 4 0 
6004 5 0.804381 0.298155 0.0815969 1 -1 0 
7026 5 0.265446 0.379575 0.0984301 4 6 3 
8104 5 0.322952 0.347832 0.0797025 3 0 0 
6813 5 0.373701 0.370803 0.0876575 -1 4 0 
6796 6 0.765088 0.400897 0.124726 3 0 -3 
6340 6 0.849705 0.369354 0.126536 1 3 1 
8087 6 0.951569 0.423593 0.112537 -2 2 -1 
7544 6 0.841952 0.350796 0.069331 1 -3 4 
8658 6 0.991085 0.428075 0.0689472 -3 2 -1 
6253 5 0.257299 0.436467 0.09303 3 -1 3 
8179 6 0.570135 0.408823 0.108251 0 7 -2 
5378 5 0.779668 0.466738 0.10192 -5 -1 1 
5845 6 0.164871 0.481153 0.0931718 1 -1 -1 
6397 5 0.57842 0.481315 0.0971259 1 4 -1 
7847 5 0.431925 0.461036 0.093652 1 3 1 
6003 5 0.521479 0.518046 0.0484824 2 -3 0 
8004 5 0.0634714 0.491805 0.0801827 4 -3 -1 
8520 6 0.311916 0.546151 0.133482 1 -4 -3 
8425 6 0.157077 0.561191 0.0949189 0 2 2 
5370 5 0.732361 0.539505 0.125044 0 -2 3 
5278 5 0.744205 0.566243 0.0691591 3 -2 1 
8186 6 0.992487 0.552196 0.0733731 6 0 0 
5949 6 0.314322 0.591224 0.164617 0 0 0 
7274 5 0.488468 0.588985 0.134095 2 -4 7 
7802 6 0.688891 0.571557 0.0694499 0 7 0 
7540 6 0.212414 0.631175 0.146969 4 -2 -2 
8098 6 0.462354 0.632179 0.101195 1 1 3 
5711 6 0.0267627 0.674289 0.0563468 -1 -4 -1 
6231 5 0.726402 0.708972 0.108083 -1 1 0 
6530 5 0.373385 0.69752 0.119192 3 -7 2 
7879 6 0.854244 0.752366 0.0970297 -1 0 7 
5473 5 0.298238 0.730232 0.101347 5 0 -1 
5170 6 0.377129 0.771907 0.0897876 1 2 1 
5483 5 0.388649 0.726611 0.0951543 -5 -2 0 
8083 5 0.602103 0.776611 0.100459 2 2 0 
6561 6 0.733618 0.73562 0.108505 -5 0 -1 
7978 6 0.868834 0.775926 0.122524 5 1 -1 
8348 6 0.367589 0.774322 0.100603 -3 0 1 
8734 5 0.753033 0.786759 0.106491 2 -1 3 
5796 5 0.694985 0.837401 0.0699814 2 2 -5 
8914 5 0.811641 0.825589 0.108406 0 -7 2 
5299 5 0.151522 0.815083 0.0604652 2 3 1 
5153 6 0.221144 0.870098 0.108254 -1 -2 3 
7090 6 0.0589985 0.882223 0.100111 -5 5 -4 
8793 6 0.132443 0.887377 0.0722571 0 -5 -1 
5871 6 0.209259 0.938581 0.105072 1 5 0 
5587 6 0.566891 0.931882 0.154858 0 -4 3 
7130 6 0.866452 0.921924 0.107572 0 -1 2 
8680 5 0.18718 0.936451 0.129039 3 0 -6 
8623 5 0.819973 0.984181 0.112052 0 0 1 
6042 5 0.456016 0.990247 0.100633 -2 -6 3 
8411 5 0.713165 0.0667774 0.136002 2 5 -1 
8929 5 0.436797 0.0750746 0.123394 0 6 0 
7243 6 0.63236 0.115779 0.144271 2 0 -5 
6606 6 0.18105 0.110235 0.148071 0 2 -1 
7070 6 0.378921 0.0734916 0.100697 4 1 5 
8760 6 0.617474 0.0694445 0.0920897 6 -2 -2 
5909 6 0.823445 0.103947 0.100625 -2 1 1 
7512 5 0.953076 0.0746267 0.165106 -4 2 4 
6097 6 0.700302 0.130284 0.151229 -4 3 2 
8907 6 0.447609 0.168602 0.120238 4 0 -2 
6556 5 0.467366 0.156234 0.110299 0 -2 -1 
8433 5 0.419436 0.211633 0.119748 -3 1 -2 
7445 6 0.9681 0.185696 0.129003 6 -2 0 
6546 5 0.922054 0.252151 0.0935582 1 2 1 
7056 5 0.939834 0.272045 0.145532 4 -2 -1 
7119 6 0.388903 0.255412 0.156978 4 -2 3 
6661 5 0.558072 0.239149 0.115046 1 -2 1 
7986 6 0.145554 0.257475 0.141763 0 -5 3 
5274 6 0.499091 0.264532 0.122001 -1 4 -1 
6739 6 0.53738 0.310909 0.111361 -2 -1 3 
6630 5 0.580688 0.341753 0.113399 -3 1 0 
5196 5 0.345169 0.345797 0.0858098 -7 -1 -2 
8122 6 0.419702 0.346383 0.111257 -2 0 0 
8320 6 0.566458 0.359435 0.16152 -4 3 1 
7015 6 0.591431 0.351289 0.152212 0 6 1 
6201 6 0.915263 0.403558 0.123232 -2 -1 3 
8298 5 0.608467 0.387698 0.110609 -2 0 -3 
6638 5 0.740343 0.388157 0.153611 -1 -2 2 
5589 6 0.651014 0.370632 0.128177 -2 -3 1 
8311 6 0.749825 0.440288 0.13284 -5 -3 -1 
5099 5 0.0337937 0.405582 0.112371 0 -2 5 
6750 6 0.529685 0.482981 0.17824 1 -1 0 
5629 5 0.839249 0.455013 0.120126 -1 -3 4 
8500 5 0.192735 0.462225 0.110768 -6 3 -1 
6225 5 0.395163 0.538124 0.135617 2 6 0 
5368 5 0.859727 0.491105 0.163462 1 1 -2 
7683 6 0.0951796 0.540174 0.141446 0 -4 0 
7359 5 0.297052 0.522805 0.13449 -1 -1 0 
5227 6 0.996576 0.510429 0.122299 0 1 -3 
8847 6 0.0929353 0.568821 0.111995 3 1 -2 
5088 6 0.0372436 0.625905 0.117236 3 0 4 
8931 6 0.590269 0.622186 0.103104 -1 2 3 
7981 6 0.00915198 0.666593 0.132087 0 -2 2 
8079 5 0.0977294 0.693623 0.155683 0 -1 6 
8867 6 0.69408 0.684889 0.151321 -4 -5 1 
5480 6 0.756619 0.690645 0.134032 3 6 1 
6978 5 0.967384 0.661741 0.102601 7 -1 -6 
6962 5 0.225085 0.732585 0.13889 0 3 5 
8062 6 0.462416 0.689428 0.142395 4 -4 3 
8792 6 0.599837 0.664148 0.120337 -1 0 -1 
8024 5 0.135839 0.696548 0.106783 2 1 -2 
7595 6 0.289463 0.731277 0.112517 1 4 2 
7560 6 0.378988 0.768009 0.110727 5 7 -4 
8272 5 0.920604 0.748502 0.133454 2 0 7 
8055 5 0.221756 0.735728 0.15212 -4 1 -2 
7005 6 0.220153 0.806541 0.131693 4 1 2 
8152 5 0.230326 0.789881 0.100184 -1 1 2 
7581 6 0.670084 0.787552 0.10149 2 -1 3 
6551 5 0.657702 0.767863 0.134937 -3 -1 2 
7363 6 0.809033 0.829594 0.068757 -5 -2 -1 
8762 6 0.988274 0.823172 0.155192 2 1 5 
7545 6 0.694454 0.872608 0.162153 -1 -2 0 
6614 5 0.697689 0.885947 0.113554 -2 0 0 
7105 6 0.651907 0.881286 0.121807 2 6 4 
8002 5 0.755917 0.877896 0.10863 -2 -1 3 
8465 5 0.0217184 0.866561 0.12713 -5 -1 2 
6466 6 0.470947 0.904086 0.112334 -3 -1 5 
5161 6 0.465294 0.91696 0.103526 1 -3 2 
5059 5 0.676601 0.955519 0.122964 -1 -1 -6 
5098 6 0.574234 0.952589 0.150597 -1 -5 2 
8543 5 0.679128 0.989187 0.186899 2 -1 -1 
5156 5 0.973271 0.0134473 0.16074 -2 -2 -1 
7838 5 0.110154 0.0534333 0.155229 5 8 1 
5569 6 0.292573 0.077738 0.161712 1 1 5 
6471 6 0.428955 0.0776964 0.151089 -4 4 4 
8656 5 0.720366 0.0789806 0.1344 -2 2 -2 
8922 6 0.876538 0.0942472 0.117636 -4 -3 2 
6454 5 0.0511493 0.104651 0.136956 1 0 -1 
5034 6 0.204316 0.128789 0.156544 -2 -1 0 
5321 6 0.335153 0.126408 0.167603 2 1 2 
5260 5 0.602226 0.137021 0.160541 -2 1 4 
6191 5 0.600005 0.168789 0.183525 0 -1 0 
8371 6 0.643157 0.140209 0.172664 5 -5 2 
7470 5 0.994078 0.178503 0.175892 -2 2 -2 
8361 6 0.0679991 0.172776 0.135295 2 -3 0 
8752 5 0.208149 0.204122 0.127068 3 2 -2 
6771 6 0.394375 0.181884 0.114801 -2 0 2 
6570 5 0.446093 0.241215 0.133966 -4 -4 0 
6108 5 0.930085 0.316561 0.150354 -1 -3 -2 
5598 6 0.429301 0.243669 0.161046 -2 3 -4 
7464 5 0.879787 0.266778 0.112056 -4 3 -5 
7181 6 0.206683 0.34605 0.121291 3 3 3 
8576 6 0.692402 0.351473 0.131218 -4 1 3 
5514 5 0.937385 0.28467 0.136068 -4 -1 5 
8549 6 0.00338834 0.334354 0.127745 0 2 1 
6419 5 0.0653466 0.36733 0.155909 3 -1 1 
5003 6 0.312351 0.388429 0.118619 2 -2 -3 
5921 5 0.559641 0.385909 0.166878 2 4 1 
8996 5 0.808711 0.414896 0.10065 3 -5 2 
5698 6 0.195588 0.373479 0.0880996 1 0 2 
7956 5 0.211968 0.407625 0.143658 4 1 -4 
5224 5 0.42551 0.419217 0.137724 -3 4 2 
7780 6 0.814395 0.420414 0.148268 -3 -4 6 
7958 6 0.90248 0.375756 0.150754 -4 2 3 
7245 5 0.147037 0.392226 0.15868 5 -2 0 
6379 5 0.470799 0.412999 0.148367 1 0 -3 
8034 5 0.960717 0.430229 0.148237 -4 -3 -5 
5986 6 0.0310622 0.461842 0.188327 0 -2 -4 
5810 5 0.628006 0.485476 0.138047 -2 -2 -1 
6126 5 0.0772401 0.521083 0.146306 0 0 6 
8280 6 0.205468 0.593909 0.146156 2 7 -3 
5190 6 0.235677 0.612041 0.134546 -3 -1 4 
8711 5 0.386889 0.615901 0.141631 -4 -1 0 
5509 6 0.703097 0.589413 0.13151 -7 1 -4 
8910 6 0.151982 0.656007 0.184482 7 -3 -5 
7866 5 0.883952 0.686918 0.142742 0 0 -6 
5377 6 0.588381 0.692377 0.165376 -3 0 1 
5649 5 0.595768 0.692565 0.105985 1 -3 4 
6720 6 0.854408 0.734167 0.165605 3 2 4 
5275 6 0.938477 0.704682 0.0988865 3 2 -4 
7835 5 0.309907 0.767285 0.121026 5 -2 0 
5759 6 0.34668 0.721649 0.147219 -3 3 -1 
7188 5 0.415648 0.719206 0.150118 -1 -2 -2 
5911 5 0.742044 0.758063 0.198784 -2 1 1 
6086 5 0.760864 0.767489 0.142351 0 -1 2 
8171 5 0.92799 0.8045 0.128821 -2 -5 0 
8479 6 0.524475 0.782178 0.174959 1 2 4 
8548 5 0.810885 0.790399 0.173425 -1 2 -1 
7607 6 0.0661172 0.843415 0.16584 2 -2 2 
8167 6 0.106038 0.825438 0.1741 -2 -5 -3 
5919 6 0.155567 0.806609 0.142657 -3 -2 3 
7265 6 0.240723 0.830101 0.185626 5 -1 -1 
7631 5 0.787528 0.813641 0.102663 -2 2 1 
8105 5 0.0305065 0.816068 0.145869 -2 -3 1 
8033 5 0.321819 0.851736 0.156428 -1 0 -3 
7850 6 0.808108 0.864804 0.13575 -1 -4 -3 
6181 6 0.113545 0.854334 0.134896 0 0 6 
7421 5 0.142005 0.889151 0.168935 3 6 -3 
5269 6 0.695352 0.897672 0.132864 -3 2 5 
6844 5 0.927017 0.852475 0.134531 4 -3 2 
6183 6 0.397025 0.906232 0.157016 0 -4 3 
6676 6 0.627129 0.88061 0.165206 5 -3 -2 
7256 5 0.422793 0.919879 0.116314 5 -2 0 
7949 6 0.285069 0.939406 0.162869 -1 -1 3 
8611 5 0.660507 0.919686 0.146655 -2 -1 0 
5897 6 0.754336 0.929412 0.114431 -4 2 4 
5536 6 0.900297 0.914124 0.138562 -1 1 2 
8651 5 0.526179 0.965088 0.139822 1 1 4 
7414 5 0.965752 0.952143 0.169091 2 1 1 
7641 6 0.386862 0.00384781 0.145634 -3 1 0 
6373 5 0.188625 0.0304098 0.158547 -2 3 4 
7327 5 0.715976 0.0748228 0.155459 4 -3 -1 
7918 6 0.133302 0.0632863 0.177107 -2 -1 1 
6829 6 0.183599 0.115318 0.183648 5 -2 2 
8593 6 0.461859 0.0582171 0.174196 -3 5 -7 
8261 6 0.59338 0.114606 0.190182 -4 3 3 
8631 6 0.509147 0.142492 0.181527 0 1 2 
8009 6 0.920201 0.139784 0.202461 -5 5 -1 
7107 6 0.962754 0.177658 0.171037 0 3 -1 
7228 5 0.960586 0.140976 0.184197 3 2 -2 
6872 5 0.650097 0.179744 0.175653 -1 -1 0 
5078 6 0.0844813 0.19528 0.157672 1 0 2 
6858 5 0.824802 0.207955 0.13123 -1 0 -2 
8941 6 0.523629 0.238487 0.154951 -1 0 -3 
6647 6 0.596971 0.207558 0.173745 2 4 -3 
8391 5 0.597942 0.260446 0.146834 -5 -3 -3 
6500 5 0.632479 0.250124 0.175955 2 2 3 
8940 6 0.938186 0.215302 0.176587 3 3 1 
6064 6 0.678797 0.2506 0.150312 0 -2 -1 
8214 6 0.904086 0.264821 0.139323 -1 1 -2 
5159 6 0.910152 0.229363 0.180805 -3 6 2 
8833 6 0.0738187 0.293801 0.172648 -1 -1 -1 
7859 6 0.272514 0.294183 0.145654 1 1 2 
8086 6 0.650121 0.281289 0.174163 -4 1 0 
5055 5 0.053262 0.361104 0.152849 -2 -4 0 
8755 6 0.215715 0.349228 0.185089 -1 3 -2 
5710 6 0.434077 0.354854 0.176308 -3 -2 -3 
7187 6 0.46802 0.293109 0.151819 -1 1 3 
5746 5 0.147875 0.428325 0.186089 1 1 3 
7469 5 0.548041 0.37749 0.152798 0 2 2 
5095 6 0.829612 0.447012 0.203005 -2 -3 -4 
5248 6 0.38125 0.443417 0.173132 -2 0 4 
6809 6 0.427469 0.423655 0.187293 3 -2 0 
8990 6 0.344672 0.485839 0.157522 0 -5 3 
6316 5 0.841484 0.481831 0.178241 1 4 -2 
7960 6 0.831838 0.511156 0.191012 -6 3 5 
5438 5 0.0559063 0.501515 0.145865 1 -4 -1 
8569 6 0.499275 0.474693 0.178405 1 -1 7 
7388 6 0.561764 0.508159 0.140125 1 0 -1 
7446 6 0.725749 0.516342 0.157988 -1 -1 0 
6488 6 0.878206 0.55448 0.190588 -2 -4 3 
8421 5 0.153116 0.582149 0.167901 -2 0 -2 
8608 5 0.195437 0.53392 0.197915 5 1 -8 
8484 5 0.755139 0.578104 0.152658 0 2 5 
5119 5 0.602011 0.623003 0.151388 0 2 8 
5592 6 0.184871 0.632957 0.135345 0 -4 -3 
5972 6 0.0660577 0.650661 0.139382 -2 -4 4 
5048 6 0.599262 0.61926 0.161382 3 -2 -5 
5279 5 0.946847 0.652068 0.158622 3 1 2 
6821 5 0.148042 0.713282 0.152249 7 0 3 
5342 6 0.395443 0.675867 0.212833 1 -3 3 
5707 5 0.528205 0.674605 0.13077 4 5 0 
8072 6 0.54123 0.679107 0.170456 -2 -2 2 
6664 6 0.776869 0.660368 0.179978 3 0 1 
7715 6 0.255663 0.685299 0.146329 -3 6 -3 
8168 6 0.391072 0.678358 0.204589 -3 1 -5 
6377 6 0.703601 0.722019 0.142232 -4 -2 -1 
7523 5 0.842507 0.711237 0.149901 -4 4 6 
7559 6 0.880665 0.715588 0.14449 -4 -1 1 
7185 6 0.231443 0.755004 0.168189 0 0 -3 
6992 6 0.0958154 0.799226 0.182283 1 1 2 
5019 5 0.802896 0.761869 0.171914 0 1 -5 
8065 5 0.846936 0.788074 0.185369 -1 3 6 
5129 6 0.271168 0.833148 0.169052 3 0 -1 
6836 5 0.501923 0.815257 0.1967 1 2 -1 
6277 6 0.648471 0.822712 0.137824 -1 1 -3 
6298 6 0.104893 0.848909 0.16772 -1 0 4 
6365 5 0.352467 0.872099 0.173055 -1 4 0 
8691 5 0.0075455 0.891575 0.117022 5 -1 3 
8504 5 0.430628 0.899925 0.168846 0 0 0 
7401 5 0.501754 0.873667 0.203433 -4 -6 -2 
7745 5 0.782425 0.902376 0.160904 0 -1 0 
6412 6 0.0861996 0.913842 0.165655 0 -2 1 
8574 5 0.498884 0.886869 0.172211 0 -7 6 
6586 6 0.581096 0.908988 0.182057 3 0 -1 
5959 6 0.0621712 0.9425 0.119463 1 -1 1 
7132 5 0.157702 0.973742 0.207746 3 -1 1 
6279 6 0.216831 0.996148 0.15904 0 -6 -2 
7118 6 0.237313 0.983746 0.181442 -4 3 2 
7443 6 0.249347 0.966837 0.178504 3 -2 1 
8428 6 0.352986 0.947922 0.185507 0 -1 -1 
6129 6 0.467861 0.993517 0.157128 0 3 -5 
7001 6 0.721736 0.948382 0.210989 3 2 -3 
8406 5 0.633783 0.950231 0.144765 2 2 -2 
7035 6 0.763431 0.989141 0.169586 -8 -3 2 
6060 6 0.275913 0.0288304 0.221396 -1 3 3 
7841 6 0.602227 0.0648967 0.143031 -2 6 -5 
6600 6 0.921606 0.0585227 0.173671 2 -1 -1 
6608 6 0.135587 0.0579699 0.209701 -4 1 -2 
6553 5 0.465195 0.0503904 0.169519 -4 4 -1 
6880 5 0.843275 0.104991 0.134202 -3 3 2 
8916 6 0.445389 0.0695328 0.165217 0 -1 1 
5561 6 0.562834 0.130797 0.19785 -1 -4 0 
8547 6 0.997381 0.111473 0.20402 -3 -4 1 
8304 5 0.434184 0.109799 0.171178 1 9 -3 
5834 5 0.659517 0.118734 0.224398 -1 4 -3 
5429 6 0.116927 0.11849 0.201584 -1 -5 3 
6219 6 0.336464 0.168739 0.211908 3 1 -1 
5633 5 0.57762 0.142355 0.197656 -9 4 -2 
7980 6 0.105757 0.155658 0.181318 3 3 1 
5570 5 0.271842 0.189712 0.204668 2 5 1 
6814 5 0.0855235 0.186009 0.181421 -1 -1 1 
8268 6 0.254758 0.200442 0.153405 -1 -1 1 
8838 6 0.424238 0.203339 0.184911 -1 0 2 
8434 5 0.805461 0.212548 0.190139 0 0 -2 
6434 6 0.861628 0.217055 0.180658 1 -4 -1 
8213 6 0.990015 0.201409 0.185914 0 1 -2 
5689 6 0.0706696 0.240004 0.166302 4 1 1 
6927 5 0.23252 0.26421 0.189927 1 6 -1 
8303 6 0.426386 0.242693 0.214692 -3 -3 2 
7398 6 0.409617 0.305086 0.197223 2 -5 1 
5634 6 0.305434 0.34458 0.2129 -3 3 2 
7934 6 0.458562 0.308055 0.180438 5 -2 3 
6538 5 0.569692 0.295972 0.195478 1 -1 1 
8250 5 0.830156 0.349799 0.203292 3 -3 5 
5555 5 0.0243538 0.389457 0.178478 1 -2 1 
6873 6 0.345273 0.382435 0.215472 -4 -4 0 
7412 6 0.978559 0.414741 0.174114 2 9 0 
5075 6 0.689899 0.41697 0.253897 -2 1 0 
7676 6 0.864209 0.422966 0.175104 -4 -1 1 
7016 6 0.516194 0.56193 0.186564 3 -1 0 
6800 6 0.630283 0.538561 0.173293 3 5 -2 
5540 5 0.523188 0.579837 0.208675 -1 -3 2 
7632 6 0.993085 0.615545 0.198283 0 -3 5 
7354 5 0.491406 0.624879 0.185884 -1 -5 -2 
7019 6 0.441081 0.671755 0.191314 -3 -4 -1 
8674 6 0.651718 0.617477 0.157272 -6 2 0 
5369 5 0.171613 0.653619 0.245053 -3 -2 -4 
6632 6 0.49055 0.677428 0.210456 -4 -3 0 
8943 6 0.776274 0.674671 0.138398 2 -3 0 
5475 6 0.545353 0.645277 0.216143 -4 -8 3 
6133 5 0.821336 0.707735 0.212996 1 1 0 
5525 6 0.984907 0.672106 0.230186 1 2 -2 
8463 6 0.0259729 0.696789 0.164963 1 2 -3 
8883 6 0.506192 0.71946 0.218638 1 -8 -2 
6138 5 0.609836 0.72754 0.219325 1 -1 2 
5622 6 0.81179 0.78378 0.184392 -4 3 2 
5042 6 0.157958 0.73737 0.20519 2 -3 -1 
5310 6 0.328115 0.75134 0.191881 4 4 -2 
6371 6 0.437922 0.738701 0.210516 0 1 -3 
7670 5 0.429872 0.733542 0.208576 1 3 1 
5948 5 0.478607 0.801612 0.198285 0 -2 -1 
5831 5 0.636292 0.755146 0.187989 -2 -1 -2 
8216 5 0.895285 0.761769 0.151792 3 -2 -1 
6718 5 0.978008 0.72768 0.180988 0 6 1 
8207 5 0.379297 0.793849 0.171879 1 -1 0 
8031 6 0.725016 0.832404 0.208431 -3 0 4 
8590 5 0.0132699 0.801385 0.225448 2 3 -5 
5494 6 0.465491 0.786304 0.188682 -3 2 -1 
6300 6 0.988741 0.888516 0.190124 0 0 4 
8154 5 0.0810505 0.825979 0.182841 1 2 1 
6640 6 0.132702 0.841674 0.228442 3 5 -2 
8518 6 0.415387 0.857502 0.225325 1 -3 1 
7599 6 0.642648 0.836855 0.190602 4 1 2 
7003 6 0.914693 0.823279 0.1925 1 -4 0 
6106 6 0.0424167 0.871215 0.206144 -3 -2 0 
7643 6 0.309299 0.853426 0.230496 1 1 1 
5899 5 0.709719 0.97428 0.158053 -2 2 1 
8482 6 0.812358 0.89989 0.16372 0 -1 -6 
8483 5 0.768905 0.961255 0.196423 3 -1 -1 
5049 6 0.0978385 0.945668 0.169159 -5 1 2 
7046 5 0.858602 0.940991 0.203934 1 0 3 
6295 6 0.881681 0.925587 0.205282 0 -7 -3 
6603 5 0.0799969 0.0212358 0.243321 1 3 -3 
6378 6 0.831131 0.0228507 0.192456 2 5 1 