ITEM: TIMESTEP
20000000
ITEM: NUMBER OF ATOMS
9000
ITEM: BOX BOUNDS pp pp pp
-75 75
-75 75
-75 75
ITEM: ATOMS id type xs ys zs ix iy iz 
8365 6 0.31468 0.972764 0.994074 5 0 -2 
6838 5 0.282202 0.992948 0.0189879 0 -1 -1 
6578 6 0.499924 0.040934 0.0309168 -1 0 -1 
8011 6 0.908655 0.043509 0.0117907 0 2 1 
6312 5 0.197068 0.0594949 0.0267369 3 2 2 
5071 6 0.529188 0.0837068 0.0397708 -3 0 1 
6338 6 0.506219 0.0824278 0.983805 -1 5 0 
5073 6 0.905205 0.105744 0.00690146 1 0 0 
5959 6 0.0499923 0.119477 0.0226634 4 -2 1 
6504 6 0.54902 0.128851 0.0208418 -7 0 3 
8720 6 0.813259 0.141672 0.00399496 4 3 -3 
7338 6 0.867908 0.130629 0.0520531 0 0 -4 
8260 5 0.861922 0.123967 0.017848 -1 -3 3 
5243 6 0.974975 0.10464 0.989781 1 0 -2 
8983 6 0.108041 0.188823 0.0107016 -2 0 2 
6806 6 0.297246 0.153908 -0.000417029 0 6 0 
5845 5 0.417158 0.127007 0.00327458 0 3 2 
5465 6 0.416774 0.184451 0.992001 -5 1 -4 
7747 6 0.747969 0.110724 0.0296703 -1 2 0 
5746 5 0.849187 0.145768 0.0372609 -4 3 -1 
8019 5 0.319498 0.22177 0.0105262 5 -3 5 
8399 6 0.399572 0.199814 0.0434186 1 -3 0 
7855 6 0.357691 0.189643 0.977954 3 -3 4 
6460 6 0.514741 0.229292 0.982004 4 5 -4 
5672 5 0.773555 0.233881 0.0100011 0 3 5 
6433 6 0.00848605 0.212517 0.0501343 5 2 -2 
5559 6 0.658198 0.245536 0.000515649 -3 0 -3 
5283 5 0.810424 0.279375 0.983262 -2 2 -3 
5691 6 0.222436 0.316399 0.0373553 -2 -3 3 
6942 6 0.848703 0.311458 0.00390642 -3 1 1 
6267 5 0.308534 0.321818 0.00868604 -4 -1 -1 
8830 6 0.69917 0.315174 0.0101445 -4 -1 1 
8802 6 0.922502 0.333559 0.0180991 0 -2 5 
5592 6 0.0414815 0.361169 0.016466 1 -5 -5 
7835 6 0.199095 0.389993 0.0361461 2 -1 -1 
8287 5 0.315562 0.39816 0.989803 -2 2 -2 
8852 5 0.686745 0.348878 0.0502792 -2 -4 -3 
8818 5 0.590079 0.445352 0.0121535 5 -4 -3 
8248 5 0.617436 0.422473 0.0206823 -2 -2 1 
7079 6 0.630875 0.40806 0.0176726 0 -1 1 
6175 5 0.881198 0.389639 0.977222 -1 3 4 
8506 5 0.293778 0.429499 0.995465 2 4 -3 
7011 5 0.806461 0.451206 0.00525829 3 1 -3 
6362 5 0.26961 0.480425 0.0393256 2 -3 5 
7435 6 0.00525431 0.486385 0.0209805 5 -2 7 
7767 6 0.357412 0.485822 0.98444 0 6 0 
8140 5 0.215032 0.495899 0.0371099 -7 -3 -2 
6507 5 0.542099 0.567815 0.0445591 0 4 6 
7039 5 0.635267 0.558369 0.0514212 -1 1 4 
5339 5 0.823228 0.528236 0.00313514 -5 0 -1 
7151 5 0.123294 0.515234 0.989296 1 3 4 
6659 6 0.312169 0.546461 0.0280968 4 3 0 
6768 6 0.57017 0.590255 0.985767 2 -3 -3 
7894 5 0.725986 0.533595 0.00853134 3 0 2 
5921 5 0.178078 0.555762 0.0212862 0 2 -5 
6603 5 0.213645 0.55256 0.00133899 2 -2 4 
8636 5 0.762593 0.586405 -0.000547444 -3 -1 2 
5442 6 0.227775 0.595525 0.0156363 2 1 1 
8670 6 0.682798 0.582826 0.0421813 -3 -4 -1 
6696 6 0.268384 0.603347 0.0199222 4 -2 -3 
7678 5 0.559845 0.619734 0.0027582 0 -5 4 
8193 5 0.536254 0.627908 0.0365096 1 2 0 
8123 6 0.675444 0.674718 0.983017 0 -1 1 
8174 5 0.323724 0.660188 0.0172768 2 -2 -6 
8055 6 0.0217478 0.680351 0.0596845 0 -1 4 
8557 6 0.973076 0.654318 0.014302 -6 1 -1 
7478 6 0.186202 0.740346 0.0203761 0 3 1 
7674 5 0.592406 0.697735 0.96815 -1 -1 -1 
5614 5 0.517993 0.813611 0.0476908 -4 -2 4 
7069 6 0.688532 0.773496 0.031269 -5 0 2 
7852 5 0.0875837 0.787318 1.00167 -3 -2 -1 
7393 6 0.900002 0.802946 0.0161097 4 -2 0 
7361 6 0.567471 0.843527 0.977569 2 -2 -5 
8038 6 0.330747 0.82885 0.0583539 4 1 -3 
7693 5 0.594996 0.846652 0.0265547 1 -4 4 
6126 6 0.805904 0.819784 0.0242727 -4 0 -2 
5818 6 0.0531533 0.892545 0.0314207 0 1 1 
8110 6 0.20293 0.883028 0.0160399 1 1 0 
5117 5 0.352495 0.870421 0.976924 3 0 3 
7932 6 0.570957 0.856972 0.00842011 -1 2 -2 
6357 5 0.271955 0.910696 0.0242611 -3 -5 -2 
6157 6 0.316739 0.891714 0.00952993 3 0 -1 
7384 6 0.555361 0.895678 0.0208402 -3 0 -2 
5815 6 0.518791 0.947617 0.0291682 -1 2 0 
5772 6 0.494271 0.917779 0.0266025 2 3 4 
8580 6 0.833431 0.92331 0.000877566 3 3 2 
5472 5 0.431166 0.980014 0.027144 5 -5 2 
5854 5 0.458195 0.987153 0.958013 5 2 3 
7854 6 0.647365 0.931361 0.0436103 -2 1 1 
7010 6 0.165457 0.973142 0.0523923 1 3 -3 
8806 6 0.389523 0.937603 0.015318 5 1 2 
5214 6 0.942025 0.956819 0.00313705 0 -1 2 
6491 5 0.539839 0.00717815 0.0492496 3 -2 -1 
6382 5 0.775383 0.0287196 0.0548813 0 -1 2 
8315 6 0.704938 0.0214176 0.0524424 -2 2 2 
7445 6 0.878416 0.0212552 0.0485781 6 -1 -1 
6425 6 0.980332 0.0357 0.0508882 -4 -1 -5 
6490 6 0.774177 0.0539299 0.0463714 -6 -4 -2 
7796 6 0.351454 0.123045 0.00512009 1 1 0 
7164 5 0.66866 0.102172 0.0520647 2 -1 6 
7988 6 0.867352 0.098704 0.0187359 2 7 1 
7899 6 0.922851 0.130585 0.0346414 -1 -8 -1 
7239 6 0.391531 0.210266 0.0428264 -2 1 3 
7214 5 0.796786 0.229088 0.0388289 2 0 4 
7313 6 0.0944724 0.274491 0.0327835 1 -2 -3 
6471 5 0.562239 0.245594 0.0444502 -1 6 0 
7726 5 0.265275 0.291351 0.0553448 2 0 3 
5662 5 0.952299 0.301897 0.0628348 2 2 0 
7559 6 0.526792 0.276544 0.0409564 3 1 3 
8543 6 0.917468 0.364153 0.04455 1 -2 2 
5876 6 0.0459223 0.317819 0.0286286 0 -2 -3 
7086 6 0.462849 0.344922 0.0237633 -2 -1 3 
8136 6 0.491141 0.374786 0.0113615 -7 2 3 
6254 5 0.539683 0.407421 0.0157501 0 0 -2 
8325 6 0.567385 0.395146 0.0254179 -1 2 -3 
5107 5 0.696017 0.422212 0.0328392 -4 10 2 
7287 5 0.761592 0.423754 0.0619261 1 -4 1 
7291 6 0.19144 0.418078 0.0466248 -1 0 4 
8981 5 0.774862 0.398899 0.025861 2 -1 -3 
6173 5 0.979214 0.449255 0.0205929 -1 -2 1 
7166 6 0.0851419 0.483891 0.00640982 3 6 -1 
5565 5 0.586474 0.50441 0.062719 0 2 2 
7286 6 0.033729 0.517676 0.0417276 3 -1 6 
8687 5 0.0200051 0.505231 0.0117328 1 -2 4 
8298 6 0.411645 0.531285 0.0323789 0 1 0 
8447 5 0.465821 0.655101 0.0328399 -7 -2 4 
5872 5 0.923546 0.620243 0.0316599 -4 -6 1 
6672 5 0.00517042 0.59365 0.0279 5 -1 6 
6493 6 0.22628 0.622481 0.998644 -1 -7 1 
7722 5 0.501516 0.666087 0.0427554 5 3 1 
6687 6 0.61838 0.738245 0.0358938 2 -2 0 
8617 6 0.847577 0.729533 0.0330953 -1 -3 -1 
7886 6 0.0234354 0.796508 0.0167164 1 4 -1 
5590 6 0.623139 0.834307 0.0315168 0 4 1 
7306 5 0.678265 0.7987 0.02017 2 1 -2 
7555 5 0.80775 0.772177 0.00148533 0 1 1 
8290 5 0.937093 0.788449 0.04914 3 -1 0 
7943 5 0.439316 0.7927 0.0454983 1 2 4 
5860 5 0.243506 0.829934 0.00987417 1 2 4 
8249 5 0.782668 0.794708 0.043955 0 0 2 
6712 5 0.749436 0.797252 0.0470551 3 -4 -1 
8064 6 0.352882 0.790647 0.00824945 -4 2 4 
5777 5 0.157431 0.940259 0.0580752 -2 2 -4 
5950 5 0.354058 0.896698 0.0340165 0 -5 0 
5137 6 0.372228 0.907388 0.0414752 0 -2 6 
8832 6 0.146714 0.9071 0.0133629 0 1 3 
6327 6 0.376057 0.929237 0.0360919 2 -1 5 
7666 6 0.66807 0.900584 0.0197761 -1 -4 0 
8472 6 0.736226 0.937631 0.04101 0 -3 2 
5700 6 0.902884 0.910267 0.0374657 3 1 5 
7171 6 0.0519714 0.937897 0.0364193 6 -2 -1 
8653 5 0.0864866 0.949975 0.0325357 1 -3 6 
5832 6 0.12331 0.936822 0.993497 2 3 -1 
8728 5 0.245479 0.937095 0.0445023 2 -1 2 
7912 5 0.454364 0.952689 0.0163392 -1 2 0 
5870 6 0.429344 0.951698 0.00936218 2 -3 5 
8336 5 0.743899 0.991767 0.0469049 -3 -3 6 
6283 5 0.799884 0.962514 0.0169013 -1 0 -6 
5996 5 0.644331 0.940711 0.0654961 -3 -3 1 
7325 6 0.714293 0.961576 0.0166529 -2 7 5 
6401 6 0.886196 0.987321 0.0434014 -1 2 10 
7438 6 0.130636 0.996859 0.0464943 4 1 3 
5557 6 0.297514 0.0428188 0.0644259 0 7 -2 
5840 6 0.477642 0.997923 0.0573256 -2 1 3 
7533 6 0.947217 0.0228846 0.0407483 3 0 -1 
7543 6 0.469073 0.00984007 0.0594737 -2 1 1 
5728 6 0.412156 0.0383575 0.0573235 1 1 2 
7753 5 0.506667 0.0761964 0.0633561 2 -2 -1 
7390 5 0.551846 0.0806422 0.0371403 -5 -1 -1 
5778 6 0.94446 0.0782816 0.0415554 0 -4 1 
7944 5 0.0180187 0.104376 0.048655 1 0 1 
8866 6 0.294334 0.0956677 0.053598 -3 -5 1 
8463 6 0.265317 0.175735 0.103141 4 1 0 
6881 6 0.393653 0.141365 0.0168014 -3 0 4 
7336 5 0.449782 0.16085 0.038428 4 -1 -6 
6863 5 0.958757 0.131971 0.0629043 5 -1 1 
8381 6 0.48901 0.149882 0.0560317 1 0 -1 
7526 5 0.480666 0.153752 0.0111928 0 -1 1 
6049 6 0.0604682 0.148068 0.0757404 5 2 -4 
6500 5 0.886592 0.191535 0.0572826 0 -2 -4 
7610 6 0.160508 0.211267 0.0678427 -1 -6 -1 
8449 5 0.944232 0.213043 0.0416582 5 3 0 
7710 6 0.947532 0.247241 0.0636206 -5 -1 1 
6950 6 0.204868 0.334294 0.0293156 -4 2 -4 
5603 6 0.494022 0.329158 0.083579 -2 0 -1 
6982 5 0.574427 0.332565 0.0485591 -3 2 3 
8573 6 0.905369 0.284115 0.038078 -2 -2 3 
6896 5 0.0238398 0.345639 0.0423418 -1 -3 4 
8009 5 0.565008 0.344245 0.035904 1 3 -1 
5329 5 0.594995 0.37056 0.039979 -6 -1 2 
8652 5 0.754887 0.377931 0.0414124 -1 1 0 
8296 6 0.440977 0.360405 0.0363695 -5 2 0 
7289 6 0.0495049 0.424739 0.0582917 -2 -1 -1 
5221 6 0.0241417 0.447385 0.0822169 7 1 1 
7608 5 0.47782 0.41549 0.034477 4 -1 -6 
5979 6 0.598136 0.477742 0.0512057 -9 -2 -6 
6495 5 0.969215 0.459476 0.0267647 -2 -2 5 
7296 6 0.709068 0.509512 0.020846 0 2 3 
5545 6 0.497556 0.576997 0.0736064 -1 0 4 
8680 6 0.72235 0.554005 0.0457357 1 -3 5 
5834 6 0.843226 0.599807 0.0537099 -1 3 2 
6470 6 0.978113 0.580692 0.0626415 -5 3 3 
5573 5 0.170269 0.588546 0.0865321 -2 3 0 
5478 6 0.289134 0.613605 0.0492771 0 4 -8 
7780 5 0.629821 0.572452 0.0560288 0 3 3 
8258 5 0.679248 0.595501 0.0960305 0 0 1 
8609 6 0.93293 0.592224 0.072647 0 -1 2 
7939 5 0.676717 0.643015 0.037705 -6 0 3 
7466 6 0.349089 0.709832 0.0932385 -1 0 1 
6961 6 0.766903 0.687431 0.0797818 1 0 -2 
8858 6 0.997694 0.786311 0.0492353 1 -1 -4 
7778 5 0.808786 0.800595 0.0580585 -1 2 1 
5789 6 0.834749 0.787801 0.0387424 -2 -4 1 
5661 5 0.464529 0.757875 0.0785815 0 1 1 
8219 5 0.614916 0.75862 0.0427133 3 5 -1 
7621 6 0.123862 0.742487 0.0701482 5 -3 -3 
5275 5 0.705658 0.804898 0.0332746 -7 0 4 
8530 6 0.0827848 0.847129 0.0280533 2 0 1 
7432 6 0.158013 0.83406 0.0649339 -3 1 0 
6534 6 0.537655 0.852282 0.0458694 2 0 -4 
5530 5 1.0006 0.815547 0.0605894 -3 -5 -3 
8427 6 0.285415 0.872824 0.0633159 -2 -2 0 
8148 6 0.650501 0.881741 0.0656955 -1 -5 -2 
6576 6 0.372079 0.875904 0.0967886 -2 -2 2 
8702 5 0.0887155 0.935149 0.0589898 -2 3 3 
5882 5 0.432603 0.916292 0.0230798 0 -1 2 
6547 6 0.721394 0.916347 0.0526452 -3 -2 1 
8332 6 0.568946 0.945651 0.0458291 -1 -3 -1 
8393 5 0.118724 0.988991 0.101862 -1 1 -1 
6263 6 0.354653 0.0127653 0.0551308 0 2 1 
5869 6 0.619709 0.989705 0.0665456 -1 0 -1 
5271 5 0.794163 0.984449 0.0576408 1 -1 -3 
8764 5 0.933225 0.983333 0.0372456 -1 -1 -3 
6485 6 0.160125 0.0238249 0.0860697 -4 5 -1 
8361 6 0.481934 0.0319814 0.0496246 1 2 1 
8736 5 0.747856 0.017071 0.0915307 0 0 -1 
8341 5 0.386786 0.0236916 0.0959579 -2 -1 -4 
7472 5 0.496134 0.0243154 0.0798306 1 1 -1 
5833 6 0.850976 0.0592718 0.0577539 -2 4 -2 
6303 6 0.522406 0.0605244 0.0639548 5 3 0 
5014 6 0.665952 0.11263 0.0528125 -1 2 -3 
6878 6 0.990336 0.118482 0.0508688 -2 2 0 
6332 5 0.753597 0.171682 0.0697941 -3 2 2 
6205 6 0.140725 0.0913109 0.125236 -3 2 -4 
8704 6 0.390046 0.174703 0.0571628 2 -1 1 
6467 5 0.596137 0.154135 0.0643584 2 -1 2 
8539 6 0.832833 0.1304 0.0556046 -6 4 -3 
5396 6 0.108962 0.184827 0.0800269 -1 3 -4 
7041 6 0.225369 0.220354 0.0665192 -3 1 4 
6604 5 0.230423 0.2172 0.0908073 -1 -2 0 
8431 5 0.280646 0.234854 0.0476539 1 -1 -2 
7111 5 0.560295 0.25848 0.108517 0 5 1 
7869 6 0.14906 0.235246 0.0915006 0 4 1 
5887 5 0.204788 0.258524 0.0813813 0 0 0 
7975 6 0.275568 0.277214 0.076358 -2 1 0 
6885 5 0.630456 0.247237 0.0742602 -2 1 5 
5498 6 0.0745247 0.285409 0.0500099 2 1 -1 
8529 5 0.719359 0.301045 0.085381 0 -2 -2 
5088 5 0.397077 0.323446 0.100773 6 -3 0 
8311 5 0.103106 0.34168 0.0610339 -4 0 4 
8005 6 0.0224006 0.329687 0.0734096 -1 1 -3 
6302 5 0.227925 0.388222 0.108593 1 3 -9 
7183 6 0.98591 0.356467 0.0951604 1 0 3 
8793 5 0.0359335 0.362154 0.0612764 1 -2 3 
7881 6 0.126514 0.347805 0.0876255 2 2 0 
8469 6 0.18902 0.375862 0.0714232 1 0 0 
8108 6 0.653269 0.376933 0.0867913 4 -2 1 
5522 5 0.892199 0.415687 0.0849139 3 3 3 
6568 5 0.598511 0.439137 0.074827 -4 2 0 
5038 5 0.865376 0.421549 0.0822216 -4 0 -4 
8762 6 0.248959 0.426413 0.0491154 -2 -1 -3 
5612 6 0.885235 0.468638 0.0752177 -2 -2 -1 
7249 6 0.731627 0.45526 0.0706299 3 1 4 
6710 5 0.06257 0.507996 0.0596845 4 3 8 
7381 5 0.0707611 0.469489 0.0806448 1 0 3 
5536 5 0.191486 0.475521 0.0664348 -1 0 -3 
6259 6 0.637666 0.489295 0.0308822 0 1 0 
8676 6 0.0261762 0.504784 0.116315 -3 1 4 
5186 5 0.43683 0.548677 0.0498435 4 -1 4 
8600 6 0.953197 0.52108 0.101469 3 -2 -2 
5160 5 0.964932 0.543151 0.0480281 -1 1 3 
8318 5 0.38912 0.562702 0.0856346 1 -4 -2 
7180 6 0.390364 0.583749 0.0453754 0 -2 -1 
5060 6 0.922833 0.628875 0.0671694 1 0 2 
5754 5 0.800252 0.661715 0.0527868 -2 -1 1 
7482 5 0.884455 0.631816 0.0700355 -1 -5 2 
7597 6 0.231418 0.691505 0.0714149 -7 -2 -2 
7623 6 0.305962 0.654401 0.0525443 -3 0 3 
5899 6 0.906186 0.664805 0.0858642 1 -1 0 
7545 6 0.14637 0.713388 0.0959046 2 -3 -3 
6698 6 0.364937 0.732276 0.0845465 -3 -2 0 
7139 5 0.792676 0.759436 0.0807918 -3 -4 0 
6053 5 0.6732 0.78086 0.0873188 2 -2 0 
6558 5 0.155439 0.779387 0.0878689 6 -5 -1 
7751 6 0.339765 0.791617 0.064128 -1 -4 -1 
7723 5 0.609117 0.766154 0.0517704 -6 0 -3 
5997 5 0.0547366 0.799202 0.0912861 1 -5 -2 
7781 6 0.131223 0.81297 0.0864227 2 2 0 
7738 5 0.320714 0.800277 0.108602 0 -1 2 
8977 5 0.661259 0.790191 0.10303 -4 2 0 
8675 6 0.919556 0.861598 0.079711 4 1 3 
7709 5 0.960972 0.806104 0.0978074 -2 0 -1 
6192 5 0.364461 0.898845 0.105938 -2 -2 3 
8965 6 0.92268 0.884777 0.0844855 -3 0 3 
5005 5 0.939399 0.918617 0.0665476 -2 -8 5 
6293 6 0.0478436 0.888863 0.122502 2 0 7 
8488 6 0.172734 0.920581 0.104791 7 1 1 
7255 5 0.575103 0.888389 0.0916229 2 -2 0 
6234 6 0.725504 0.943396 0.0727552 -3 1 -2 
6857 5 0.80058 0.951284 0.129216 1 -3 0 
8267 5 0.944553 0.916771 0.0886873 3 -2 2 
6437 6 0.446866 0.932259 0.0919024 -1 0 -2 
5019 5 0.889573 0.936855 0.0619601 -3 1 2 
7866 6 0.155429 0.984291 0.057178 -5 -4 5 
5322 6 0.811263 0.978186 0.0942117 2 -2 -2 
5319 5 0.014624 0.00911647 0.096733 5 2 2 
6724 6 0.032381 0.999763 0.12339 4 -2 -7 
7400 6 0.207264 0.0157496 0.115383 0 0 -4 
5697 6 0.307873 0.991706 0.0924725 -2 4 5 
7585 5 0.610839 0.0219997 0.0897565 -1 1 -1 
7713 6 0.167911 0.0451625 0.11147 -1 2 2 
5302 6 0.215293 0.0467185 0.0807119 -2 -3 2 
8033 5 0.263452 0.0333112 0.118851 -1 5 -2 
6600 6 0.101946 0.086394 0.0677258 2 -3 6 
6584 6 0.601449 0.104484 0.119514 1 -1 0 
6550 6 0.47999 0.149379 0.107399 -6 0 1 
6395 5 0.549282 0.155065 0.0903474 2 1 3 
5577 5 0.807279 0.134939 0.0830617 3 3 4 
7682 6 0.0558021 0.1275 0.104109 -9 -4 1 
8513 5 0.280169 0.147572 0.098351 0 0 0 
8960 6 0.289224 0.162607 0.072254 -3 -3 -2 
6901 6 0.629221 0.156335 0.0912715 2 2 3 
6984 6 0.970209 0.125632 0.115477 -4 -3 -3 
5179 5 0.218803 0.143299 0.131489 -5 -1 1 
8356 6 0.172766 0.17342 0.107106 3 -1 0 
6159 6 0.0773046 0.236637 0.0781313 -3 3 0 
7209 5 0.679776 0.276235 0.0868087 -4 4 2 
5430 6 0.781874 0.188911 0.136729 -1 2 -7 
8560 5 0.85148 0.2451 0.116612 1 0 0 
7389 6 0.845512 0.226752 0.109086 2 7 0 
7383 6 0.395949 0.320155 0.0933757 -4 2 3 
6122 5 0.701132 0.322819 0.123175 4 2 2 
5806 5 0.772408 0.313026 0.0962445 1 3 0 
8013 5 0.915168 0.314474 0.0985488 2 3 4 
5151 6 0.545531 0.34182 0.114447 6 -2 1 
6355 6 0.625706 0.32649 0.0911528 -5 0 -1 
8468 5 0.138627 0.359619 0.112566 5 0 -3 
7117 6 0.0992549 0.369232 0.104233 -5 1 -2 
8570 6 0.426414 0.33186 0.107113 1 -7 3 
5962 6 0.153152 0.377077 0.115927 3 -1 2 
6513 6 0.691354 0.387797 0.12728 -1 3 -1 
5328 6 0.218831 0.434177 0.122111 3 1 2 
6985 5 0.789935 0.367297 0.0774684 -2 -3 1 
5237 6 0.102319 0.395989 0.0614141 0 -3 0 
6566 5 0.416768 0.423875 0.116567 1 3 -1 
5245 6 0.975129 0.421901 0.099964 1 1 3 
7147 6 0.957076 0.428296 0.0958185 -4 -1 1 
6363 6 0.970526 0.406789 0.0758722 2 1 1 
7359 5 0.149184 0.473133 0.0775256 -2 1 -4 
7290 5 0.768586 0.557622 0.0947944 -3 5 3 
7787 5 0.942912 0.552548 0.0779479 2 -3 -1 
5008 5 0.934799 0.55734 0.104502 2 -3 4 
5134 5 0.324227 0.603265 0.0744203 0 0 -3 
6443 6 0.730359 0.581253 0.0946774 -5 1 -1 
7089 6 0.983097 0.58972 0.0925677 2 0 6 
7115 6 0.111135 0.639434 0.118677 6 2 -1 
6381 6 0.422258 0.628904 0.078583 -3 0 -4 
5097 6 0.675227 0.58076 0.125544 1 -1 1 
8964 6 0.69993 0.671227 0.0868064 -2 -2 -3 
7200 5 0.933834 0.615214 0.123818 -6 -1 -1 
7941 5 0.0065151 0.669754 0.105289 3 0 1 
7733 5 0.125225 0.617682 0.124008 3 2 -1 
6413 6 0.425768 0.732907 0.118532 -5 0 -5 
5164 6 0.542223 0.689844 0.106395 1 -3 6 
5037 5 0.772174 0.705993 0.0715943 -1 0 2 
7300 5 0.578057 0.741438 0.131023 -2 -1 4 
8380 5 0.622609 0.74093 0.134873 0 -2 3 
5830 6 0.877844 0.776751 0.123889 7 -1 1 
8377 5 0.169097 0.830856 0.122291 1 7 0 
6512 5 0.298489 0.861832 0.122922 3 -1 -4 
5630 5 0.552893 0.855052 0.116012 -1 1 -4 
8814 5 0.246333 0.857394 0.115425 5 2 9 
8990 6 0.839075 0.878084 0.0893613 -1 -5 -1 
8647 5 0.130855 0.836745 0.0791179 -1 1 2 
8950 6 0.570372 0.844625 0.094691 -2 -3 -1 
8741 6 0.0062786 0.876479 0.109006 4 -3 1 
5216 5 0.0417714 0.92693 0.119164 4 3 0 
5744 6 0.553229 0.865018 0.109375 0 5 0 
8640 6 0.954777 0.893765 0.110535 -1 2 3 
6039 6 0.724349 0.938034 0.0977941 -5 0 3 
8143 5 0.725838 0.922831 0.0926008 -3 -1 -4 
5149 6 0.801814 0.943781 0.0968365 2 1 -1 
8138 5 0.82079 0.923628 0.105098 -5 0 3 
7305 5 0.730477 0.930735 0.14315 -7 -1 1 
8788 5 0.187431 0.971452 0.0793093 -4 3 -3 
6941 5 0.193109 0.955002 0.0558254 3 1 0 
5067 5 0.301177 0.996392 0.0843826 2 1 3 
5317 5 0.637705 0.028326 0.109419 -4 8 -1 
7178 6 0.768798 0.96625 0.104475 -2 -4 -2 
8008 6 0.214994 0.0327563 0.122279 0 0 2 
6248 5 0.237593 0.0335697 0.137149 -1 0 1 
7080 6 0.718347 0.0977731 0.137051 4 1 -3 
5108 6 0.786867 0.0725081 0.117431 2 -3 2 
7578 6 0.390483 0.0730651 0.149906 1 2 0 
7327 6 0.670427 0.103313 0.118163 -2 2 0 
5278 6 0.00294493 0.0944635 0.180006 -1 -3 6 
8533 5 0.192617 0.140758 0.118847 0 3 3 
8734 6 0.240448 0.125478 0.170282 3 -1 -4 
8384 6 0.674779 0.0990739 0.145196 3 0 2 
6048 6 0.801195 0.098063 0.120719 -2 -1 3 
6971 5 0.722435 0.194935 0.110574 2 -2 3 
5252 6 0.0388104 0.195751 0.128332 0 -1 0 
7206 6 0.31096 0.219873 0.0875019 4 2 5 
7519 6 0.60448 0.192367 0.124746 3 -2 -1 
5786 6 0.694418 0.178005 0.156329 -2 -3 1 
7250 5 0.991218 0.204274 0.110088 2 2 0 
5289 6 0.409847 0.238888 0.127231 -1 1 -1 
5494 6 0.531762 0.268269 0.113785 1 7 -3 
5802 5 0.769089 0.296546 0.114922 1 0 -1 
5902 5 0.0777421 0.336921 0.150875 0 -3 0 
6780 6 0.180964 0.337886 0.113972 -1 1 1 
8024 5 0.582353 0.383733 0.131911 -5 -4 3 
6580 5 0.283369 0.372523 0.158733 -4 2 1 
8643 6 0.620044 0.386163 0.133296 -3 0 4 
5785 6 0.763725 0.336322 0.110775 1 -2 0 
6809 6 0.0334414 0.402491 0.128383 6 1 -8 
6269 6 0.0389078 0.412662 0.099255 -3 2 0 
8659 5 0.0172406 0.429283 0.0958342 -2 0 2 
8611 6 0.308026 0.407553 0.0954962 -3 0 2 
8916 5 0.475779 0.479487 0.117946 -3 -2 3 
7149 6 0.0125233 0.529592 0.147937 0 -5 -4 
5655 6 0.312275 0.535302 0.134083 2 0 -7 
5125 5 0.799185 0.548204 0.112581 1 -1 -2 
6964 6 0.661618 0.592937 0.126482 4 3 0 
8899 6 0.978144 0.523502 0.160409 4 3 3 
7216 6 0.125123 0.597487 0.130972 -1 1 1 
8247 5 0.164911 0.578639 0.132782 0 4 -2 
5768 5 0.415875 0.606378 0.122707 -1 -3 4 
7937 5 0.409867 0.588973 0.0988 4 1 -7 
8519 6 0.843237 0.613751 0.154685 -4 -1 1 
8416 6 0.982953 0.660672 0.147171 -1 -4 7 
6721 5 0.138037 0.660125 0.125193 0 2 -2 
5571 6 0.259749 0.647629 0.0974593 -4 2 6 
8891 6 0.741465 0.63351 0.140434 -2 0 -1 
8035 5 0.892489 0.644425 0.120471 -3 1 -3 
5363 5 0.19658 0.645155 0.0994196 4 1 -1 
6922 5 0.736548 0.676911 0.0966949 7 0 0 
5415 6 0.358 0.700557 0.0860741 -2 -1 1 
8492 6 0.523283 0.650771 0.130241 -1 -3 4 
8451 5 0.189733 0.722785 0.113611 -1 -3 1 
5308 6 0.144665 0.777141 0.134526 3 -1 6 
8877 5 0.165583 0.751118 0.100207 3 0 6 
8210 6 0.269248 0.741673 0.137923 5 0 -4 
6176 5 0.515798 0.756496 0.117878 -1 -3 -2 
5631 6 0.573949 0.747909 0.113413 7 3 -2 
7808 5 0.461393 0.781665 0.147541 3 -2 2 
7632 6 0.490543 0.800924 0.14301 -2 3 2 
6214 5 0.659969 0.805845 0.087595 -2 -2 1 
6421 6 0.663536 0.836161 0.0781587 4 0 -2 
6843 5 0.745173 0.817651 0.13284 -3 4 -1 
5282 6 0.914962 0.82673 0.134379 1 4 -5 
5444 6 0.561126 0.791192 0.113495 0 -5 0 
6216 5 0.22193 0.868213 0.136333 -2 -2 1 
6074 6 0.733716 0.867391 0.135352 -6 -4 -3 
8313 5 0.635572 0.880489 0.147914 -2 3 2 
8262 6 0.317738 0.901822 0.126958 3 -3 4 
6099 6 0.315714 0.925434 0.148807 1 -4 -6 
8683 6 0.346558 0.899643 0.134142 -2 -1 -2 
5305 5 0.400641 0.887922 0.129857 2 -1 -1 
5779 5 0.573875 0.928754 0.117486 0 -4 2 
8686 5 0.141832 0.938305 0.0802511 2 -5 -1 
7423 6 0.214956 0.980028 0.132326 0 1 0 
7598 5 0.871775 0.957082 0.118518 0 2 -5 
5234 5 0.967918 0.970241 0.176567 -4 0 -5 
7518 6 0.529479 0.952152 0.136911 -2 3 0 
6226 6 0.63044 0.00594913 0.133792 3 3 -1 
7407 6 0.691859 0.984027 0.172464 -5 1 -4 
7783 6 0.652992 0.00693238 0.138686 3 1 -1 
8549 5 0.810652 0.979481 0.125666 1 -3 4 
6533 5 0.346011 0.0145826 0.147651 -2 -2 -1 
5491 5 0.106408 0.0376171 0.148955 1 3 1 
6804 6 0.234794 0.0612092 0.153106 -1 -2 3 
7619 6 0.269172 0.0883455 0.148917 0 2 2 
5807 5 0.321316 0.0530999 0.162093 4 -1 4 
8285 6 0.463765 0.0563719 0.095109 1 -2 1 
8263 5 0.222042 0.135224 0.157871 0 -4 -4 
7121 6 0.916714 0.116136 0.113005 -2 0 0 
6791 6 0.025555 0.112389 0.139124 7 6 0 
5338 6 0.395766 0.141425 0.135324 1 2 2 
8383 6 0.278863 0.142503 0.157638 1 -2 -1 
6139 5 0.3823 0.160998 0.136497 1 3 3 
7093 6 0.749792 0.187974 0.12976 -1 1 -3 
8081 6 0.25275 0.178415 0.111093 -1 0 2 
7760 6 0.499776 0.203248 0.148956 3 2 -2 
8229 6 0.765251 0.192182 0.160874 3 0 1 
8862 5 0.905398 0.220006 0.152768 -3 -1 0 
7793 6 0.741053 0.262395 0.188469 2 2 2 
6976 5 0.15036 0.243762 0.132201 1 2 3 
5242 6 0.164339 0.248197 0.151799 1 -1 -3 
8804 6 0.233877 0.273776 0.16329 -2 -2 1 
6304 6 0.265972 0.24487 0.128733 0 0 0 
6924 5 0.860444 0.273942 0.122565 0 0 -3 
6353 5 0.740364 0.287606 0.116649 -2 4 -3 
6070 6 0.156399 0.316212 0.139378 -2 1 0 
5680 5 0.350284 0.335419 0.139391 1 4 3 
8994 6 0.0998755 0.335557 0.179737 -1 2 0 
5524 5 0.346707 0.338596 0.115234 -5 0 4 
6322 6 0.451491 0.291251 0.158392 -1 1 0 
6700 5 0.086314 0.345946 0.166413 0 -1 -2 
7686 6 0.680574 0.343682 0.16852 0 -1 0 
8438 6 0.223756 0.410669 0.158137 0 -1 0 
5947 5 0.867057 0.381589 0.136647 2 -4 2 
8770 5 0.879536 0.371499 0.143992 -6 0 -2 
7238 6 0.927335 0.339921 0.156218 1 0 -3 
7645 5 0.00993079 0.419421 0.142048 -2 1 3 
8707 5 0.300454 0.418422 0.178854 2 -2 0 
5924 6 0.34502 0.432971 0.162105 -2 -5 5 
5912 5 0.00505132 0.399259 0.181053 4 0 -2 
5903 5 0.678117 0.399002 0.144304 0 -5 1 
6287 6 0.826834 0.419994 0.125426 2 5 1 
6316 5 0.832113 0.522291 0.120588 -4 -3 6 
6949 6 0.0799112 0.504966 0.123639 3 1 0 
7276 6 0.493176 0.540695 0.145977 -5 -4 -2 
7685 6 0.370187 0.530737 0.153608 2 3 4 
5553 6 0.900139 0.565031 0.146728 -2 2 0 
8160 5 0.848806 0.581089 0.106066 -4 -2 -4 
8779 6 0.500683 0.582053 0.122118 -1 -2 -2 
6445 5 0.711414 0.588232 0.169563 2 2 -5 
7153 6 0.0364443 0.620941 0.138481 3 2 2 
8236 6 0.271838 0.576336 0.130499 -1 7 3 
6978 6 0.935991 0.594981 0.163104 0 -5 3 
6844 6 0.0780996 0.618662 0.156851 2 2 -1 
7365 5 0.277666 0.640189 0.166231 -2 4 2 
6777 6 0.432967 0.626634 0.158356 0 -2 -4 
8378 6 0.529897 0.636376 0.149132 2 2 4 
5671 5 0.739207 0.649228 0.129118 -3 0 -2 
5111 6 0.847939 0.658686 0.143497 -4 -2 3 
5517 5 0.516462 0.627433 0.182165 4 -1 -2 
6574 6 0.602013 0.660752 0.140395 -2 -2 5 
8696 6 0.870576 0.630254 0.144162 -1 5 -1 
8919 5 0.506681 0.653344 0.157346 1 0 -1 
8836 5 0.0420231 0.727331 0.157665 -3 -1 3 
7976 6 0.125095 0.703851 0.162069 2 3 2 
5161 6 0.637838 0.718738 0.17728 3 1 2 
7699 6 0.751783 0.695435 0.152454 2 2 -5 
5668 6 0.784452 0.708095 0.100939 -3 3 2 
5713 6 0.204842 0.791037 0.124727 -6 -1 2 
6110 6 0.83723 0.739536 0.164958 -3 -3 2 
6619 5 0.0848921 0.775152 0.134737 0 -2 0 
7449 5 0.652292 0.777788 0.157225 -3 -1 -2 
7385 6 0.157349 0.764087 0.199705 1 -1 0 
5157 5 0.882411 0.859642 0.12532 -3 -4 1 
8667 6 0.357237 0.88745 0.11865 -5 7 -3 
5910 5 0.694209 0.881074 0.108995 -5 1 0 
6236 5 0.200143 0.903705 0.162415 1 -2 -2 
8205 6 0.282642 0.903723 0.132838 1 3 8 
8478 5 0.691551 0.906021 0.145351 -2 2 2 
6429 6 0.96465 0.869445 0.163705 5 -5 2 
7746 6 0.102528 0.943743 0.113809 -1 0 -2 
5036 5 0.252963 0.936014 0.171038 2 6 -3 
5965 5 0.712268 0.948102 0.168732 -4 -3 1 
5505 6 0.0484329 0.939841 0.13175 1 0 2 
8028 5 0.252363 0.951081 0.128997 1 0 -4 
7256 5 0.938142 0.956737 0.165241 0 5 6 
8410 6 0.236206 0.979513 0.146453 0 2 -4 
7569 5 0.441257 0.99798 0.159879 2 -4 0 
7112 5 0.565901 0.991024 0.130776 3 -1 0 
7612 5 0.31068 0.999861 0.14588 2 -1 3 
5204 6 0.831666 0.0169512 0.160447 1 0 -1 
7017 5 0.963144 0.979924 0.198271 -2 -2 -2 
8430 6 0.0888804 0.0196847 0.18133 3 -2 3 
8921 6 0.246878 0.0998647 0.204835 -1 -3 -3 
5651 6 0.271584 0.0404436 0.18401 -1 -1 -3 
8863 5 0.825831 0.0968584 0.197637 -2 -1 4 
7907 5 0.307032 0.113125 0.19327 3 1 -2 
6818 6 0.452954 0.147538 0.167978 5 -1 1 
6987 6 0.375811 0.169592 0.15205 1 -3 0 
5382 5 0.0448934 0.186271 0.136258 1 -2 -2 
6306 6 0.170298 0.21699 0.172329 0 2 -3 
8976 5 0.890906 0.219927 0.171976 4 -1 2 
7795 6 0.286067 0.227313 0.206754 1 -3 2 
5985 6 0.453473 0.203918 0.169729 2 0 -2 
5639 5 0.476401 0.288641 0.162458 -1 -2 4 
6343 6 0.0546247 0.283999 0.113689 -1 4 -2 
6081 6 0.351711 0.28141 0.18985 3 3 -2 
5366 5 0.795525 0.308804 0.165845 4 -4 -4 
5390 6 0.296971 0.317045 0.174962 -1 0 0 
5454 5 0.0129175 0.306213 0.160176 3 1 5 
8761 6 0.711045 0.330059 0.19331 3 1 7 
6041 6 0.498644 0.422871 0.19764 0 0 5 
5587 6 0.689847 0.398533 0.164379 2 -1 -2 
8526 5 0.0330855 0.371105 0.172634 2 -3 -1 
7334 6 0.425928 0.436041 0.18545 -2 2 -2 
7520 5 0.56678 0.433963 0.18104 -4 0 1 
6258 5 0.931379 0.421656 0.15504 -5 1 -1 
5288 6 0.0188429 0.488254 0.163712 -1 -3 1 
6487 5 0.415786 0.482529 0.165891 1 2 7 
6013 5 0.442473 0.480405 0.196251 0 0 0 
6166 5 0.448326 0.457187 0.193754 0 2 1 
5150 5 0.585701 0.471269 0.136302 -2 1 0 
6407 5 0.999759 0.52481 0.175974 -1 -1 1 
6388 6 0.0454182 0.516228 0.166215 5 -1 -1 
5129 5 0.854146 0.544264 0.172688 -4 -2 0 
8502 5 0.547089 0.586831 0.126438 2 -4 0 
7278 6 0.639634 0.573035 0.143245 6 4 4 
7948 6 0.596055 0.572385 0.150025 -2 2 9 
6969 6 0.785968 0.57646 0.171319 1 -1 -2 
5306 6 0.360757 0.604911 0.172967 0 1 0 
6473 6 0.868615 0.613886 0.190135 4 -2 2 
7081 6 0.93179 0.603975 0.220733 3 -1 4 
8385 6 0.949756 0.641418 0.161805 -2 1 -2 
6477 5 0.017151 0.601615 0.162946 5 -7 1 
8493 6 0.348382 0.66561 0.16892 0 2 1 
7004 6 0.466777 0.650051 0.169715 -4 1 -2 
5463 6 0.552651 0.649763 0.1375 0 2 2 
7659 6 0.718182 0.659133 0.153411 -3 -2 0 
8865 5 0.178447 0.672732 0.182492 5 -5 2 
5012 5 0.32051 0.69794 0.135315 2 -2 3 
7297 6 0.606155 0.645785 0.116243 -3 -2 2 
8883 5 0.514878 0.707842 0.214058 0 1 2 
8509 6 0.482131 0.757119 0.158144 -1 0 1 
7189 5 0.375685 0.788269 0.16151 -2 -4 -4 
6193 5 0.580764 0.771469 0.167381 -1 -3 2 
5075 6 0.687987 0.823621 0.14476 -5 -3 2 
8188 6 0.00557728 0.812609 0.196025 2 6 0 
8735 5 0.149001 0.797146 0.221587 -3 0 -3 
7573 5 0.253525 0.765916 0.177728 0 -1 1 
7748 6 0.442249 0.800871 0.148946 1 1 -2 
5177 5 0.477353 0.811405 0.178549 -2 -6 -3 
6249 6 0.0239369 0.843187 0.189497 1 2 -6 
7811 6 0.115275 0.804433 0.148722 0 2 -2 
6288 6 0.590447 0.843461 0.159701 4 -3 1 
6668 6 0.880187 0.85448 0.16111 5 2 1 
5803 5 0.428435 0.860615 0.168835 1 -3 2 
5168 5 0.403041 0.882807 0.195092 3 -2 -1 
7247 6 0.565922 0.856485 0.15796 0 -2 1 
5105 6 0.560518 0.922604 0.181978 2 -6 -2 
5629 6 0.392102 0.943109 0.186487 -3 -1 0 
8006 6 0.623715 0.954216 0.16565 0 4 -1 
7665 6 0.800748 0.956073 0.185546 0 -3 0 
5076 6 0.513718 0.981895 0.186211 -1 4 0 
8194 6 0.744572 0.0110278 0.182873 3 3 2 
6270 6 0.302029 0.984169 0.206863 -3 -3 0 
7454 6 0.637354 0.0693151 0.193979 1 -2 1 
8893 6 0.120392 0.0889081 0.221592 -1 2 -1 
6525 5 0.210335 0.0881063 0.169762 1 -1 -5 
8374 6 0.386181 0.0369547 0.175652 3 0 -2 
8364 5 0.458051 0.0607181 0.197699 1 -1 0 
7404 6 0.676306 0.0949367 0.198027 -1 4 -2 
8223 5 0.790184 0.106859 0.161168 -2 3 -3 
7257 5 0.666711 0.122361 0.160169 0 -1 0 
5761 5 0.929674 0.137946 0.189116 -3 3 7 
8178 5 0.166738 0.147868 0.239203 2 3 3 
8914 6 0.43853 0.182879 0.209454 -3 -4 0 
8957 6 0.778688 0.151112 0.201742 -3 1 -4 
7394 6 0.869664 0.125704 0.193611 0 3 -4 
8714 6 0.0182176 0.183808 0.188038 0 0 2 
7354 6 0.462622 0.143389 0.184288 -1 -2 4 
7422 5 0.745523 0.160818 0.224934 4 1 2 
6432 5 0.87208 0.187985 0.234798 -1 -3 1 
6594 5 0.912034 0.171758 0.199837 1 -2 2 
8756 5 0.550375 0.203359 0.205482 2 3 7 
6895 6 0.791969 0.201362 0.17579 -1 4 -6 
6637 6 0.772035 0.210597 0.167207 3 -1 -1 
7068 5 0.502047 0.202943 0.188583 -5 2 3 
7062 5 0.182236 0.245455 0.181504 -1 -2 4 
7152 5 0.231998 0.246671 0.213135 2 1 4 
7474 6 0.637229 0.243595 0.21936 -6 -1 0 
5492 5 0.426106 0.274071 0.230742 3 -1 -1 
7415 6 0.632812 0.319546 0.198707 1 -5 3 
5086 6 0.715591 0.274951 0.19499 1 1 -1 
7785 6 0.239325 0.321155 0.177814 2 -2 0 
6646 6 0.362722 0.328707 0.191077 2 4 -5 
7055 6 0.66403 0.29707 0.198444 -4 -2 -1 
7496 6 0.746651 0.25349 0.184654 -3 -5 0 
7440 5 0.334789 0.357356 0.18988 -3 -1 -3 
8252 5 0.670889 0.305165 0.196985 1 -1 -2 
6137 6 0.764743 0.347118 0.169276 -3 -2 4 
7999 6 0.920385 0.334687 0.214765 2 6 -1 
5767 6 0.190317 0.36832 0.181489 -2 -2 -1 
8638 5 0.397253 0.367499 0.171665 1 3 3 
6678 6 0.592654 0.333409 0.207742 -2 -3 0 
7842 6 0.90566 0.373829 0.194721 0 -3 -2 
5764 6 0.949155 0.367846 0.172887 -1 -1 0 
8740 6 0.022969 0.342171 0.20084 4 2 5 
5867 6 0.0691656 0.405927 0.213845 -2 -4 1 
7741 5 0.240464 0.371755 0.201247 0 4 3 
6674 5 0.109181 0.395618 0.237234 5 1 2 
8075 6 0.57152 0.411275 0.235486 1 5 1 
6054 6 0.520367 0.455407 0.212841 -1 2 -5 
7223 6 0.633703 0.47978 0.179022 -1 2 1 
7652 6 0.867552 0.422744 0.205407 -1 2 2 
8911 6 0.725153 0.445807 0.177604 0 1 2 
8017 6 0.143184 0.519883 0.221521 1 -1 -3 
6832 5 0.767493 0.495047 0.209697 2 -1 7 
6045 5 0.447747 0.547507 0.209762 -1 4 2 
6788 6 0.0974498 0.532306 0.210425 1 -2 1 
5284 6 0.256383 0.54917 0.189734 2 1 -2 
5658 6 0.746067 0.583167 0.177113 -1 1 -3 
8902 5 0.0276895 0.526845 0.214797 -1 0 -1 