ITEM: TIMESTEP
20000000
ITEM: NUMBER OF ATOMS
9000
ITEM: BOX BOUNDS pp pp pp
-75 75
-75 75
-75 75
ITEM: ATOMS id type xs ys zs ix iy iz 
8235 6 0.604287 0.992762 0.000369189 -1 2 -2 
5499 6 0.734473 0.982271 0.0395348 1 5 4 
7119 6 0.535087 0.00751705 0.0230918 -2 2 3 
7474 6 0.204803 0.117338 0.0228453 -1 0 -2 
5356 5 0.72088 0.0880854 0.995627 -5 1 -2 
5970 5 0.128656 0.169088 0.95149 -1 -5 -2 
5241 6 0.161911 0.141523 0.0332168 -2 1 1 
8299 6 0.5915 0.1417 0.0051813 -2 -1 -5 
5282 6 0.0403318 0.219888 0.0251724 2 0 0 
7164 6 0.690806 0.15508 0.0192218 -1 -2 5 
5226 5 0.572516 0.244296 0.00314248 0 0 5 
7707 5 0.161157 0.271285 0.0104749 -2 -2 -3 
5257 5 0.212885 0.299548 0.962058 1 0 -2 
5339 5 0.0313341 0.355264 0.00993365 1 -1 -1 
8505 5 0.352634 0.318044 0.00697966 0 1 2 
7333 6 0.82752 0.380091 0.0478021 -2 3 -1 
7582 5 0.630198 0.383613 0.0140822 -2 -3 0 
8755 5 0.759433 0.41728 0.990307 0 6 -2 
7206 5 0.970731 0.350708 0.0508163 -3 1 0 
6754 5 0.0763871 0.41259 0.0486321 0 3 0 
7578 6 0.317531 0.402677 0.0205342 -2 -3 0 
6796 6 0.3308 0.408078 0.0306739 0 1 1 
6158 6 0.226747 0.449439 0.983126 -5 -3 2 
7204 5 0.36955 0.43648 0.995612 -3 2 -1 
6464 6 0.282434 0.478524 0.981207 -1 3 -1 
7648 6 0.402007 0.476059 0.0185912 -1 2 1 
5584 6 0.70372 0.444295 0.989698 0 0 1 
6060 5 0.0120248 0.457524 0.998964 0 -4 1 
6039 6 0.305194 0.547126 0.00029676 3 -2 -1 
7625 6 0.944763 0.489954 0.981991 -2 0 5 
8020 6 0.138003 0.512636 0.0542463 3 -1 2 
8856 5 0.456388 0.533731 0.0155539 3 1 0 
5894 5 0.271631 0.54793 0.0249617 -2 -1 -1 
5405 5 0.413004 0.579695 0.974862 -1 -1 -2 
6125 6 0.657958 0.553797 0.999532 2 -1 -3 
5151 6 0.880198 0.52416 0.0251001 2 -2 -4 
8448 6 0.0751903 0.558973 0.994838 0 -2 -6 
6628 6 0.689004 0.592452 0.0448154 -2 -2 5 
6532 6 0.68614 0.561498 0.0659078 1 1 -1 
7062 6 0.682025 0.592312 0.0455883 3 -1 -4 
6470 5 0.0934849 0.627135 0.0250375 4 -4 4 
5113 5 0.049432 0.619859 0.99884 -1 0 0 
5079 6 0.545139 0.630511 0.994264 1 -3 -4 
7527 6 0.916289 0.661977 0.00728258 -6 -1 3 
6432 5 0.652746 0.68312 0.0453333 -1 -2 4 
5092 6 0.804162 0.671151 0.99858 4 -1 -2 
6919 6 0.536988 0.702628 0.992942 -4 -3 2 
5855 6 0.480309 0.655254 0.977421 -1 -3 -2 
6504 6 0.588951 0.677087 0.0223435 2 -2 -5 
8052 6 0.730922 0.685862 0.986509 1 0 -1 
5110 6 0.0535116 0.709857 0.00354801 -4 3 3 
5718 6 0.498144 0.70831 0.0493937 -2 -4 2 
8126 6 0.0431805 0.746348 0.983274 -3 -1 1 
6397 5 0.122894 0.774422 0.0195212 -9 1 4 
7839 5 0.600637 0.719108 0.984925 -6 2 -2 
5411 5 0.691866 0.701201 0.0467636 -2 -3 -1 
6332 5 0.902827 0.746076 0.0572086 3 -3 3 
6926 5 0.259533 0.768407 0.0392722 3 -1 -7 
8766 5 0.747977 0.748054 0.0183875 -5 -2 0 
7298 5 0.0145244 0.767097 0.0302071 0 -2 -3 
6980 6 0.172616 0.772273 0.983337 3 4 2 
7722 6 0.160579 0.779268 0.987067 2 -1 -2 
8155 5 0.767572 0.791086 0.0156768 4 0 1 
6659 5 0.746416 0.811055 0.994034 -1 2 0 
7908 5 0.808385 0.816598 0.0197348 0 -3 4 
5752 5 0.877517 0.838588 0.0215241 -2 -4 -1 
8689 5 0.414001 0.822655 0.0271255 0 -4 0 
5610 5 0.217764 0.879272 0.0101764 1 3 -6 
8534 5 0.849846 0.8746 0.974729 3 -7 0 
5933 6 0.91911 0.896353 0.0223499 -2 1 1 
8477 5 0.237193 0.869788 0.0477057 4 7 1 
5830 5 0.516063 0.89032 0.0434889 -1 1 -1 
8913 6 0.50665 0.932981 0.0370207 3 3 -1 
5063 5 0.403309 0.89087 0.99682 -2 2 -5 
8811 6 0.483081 0.94139 0.0100498 -5 -3 1 
6175 5 0.961768 0.941416 0.000175391 -1 1 5 
5230 6 0.872822 0.961976 0.00670841 -3 0 1 
8599 5 0.152619 0.97559 0.00319425 -1 -1 -1 
7978 5 0.657691 0.0122082 0.0362739 3 4 1 
8240 6 0.924274 0.949565 0.978488 -3 5 1 
8244 6 0.156098 0.0290575 0.0158813 -1 2 3 
7559 6 0.785548 0.0289484 0.0610852 2 2 -5 
5196 5 0.354766 0.12532 0.0333238 -5 3 -1 
7078 6 0.403804 0.110201 0.0451663 2 4 1 
5105 6 0.0839559 0.164745 0.0561524 -3 -1 0 
5654 5 0.256663 0.110947 0.0319477 -3 3 1 
7985 5 0.864106 0.181066 0.0259458 -3 1 7 
6670 5 0.966124 0.214014 0.0551744 3 -1 -3 
5077 6 0.524416 0.176339 0.0181406 1 -1 3 
7760 6 0.845565 0.207386 0.0531387 0 1 2 
8044 5 0.110539 0.219378 0.0376329 1 4 1 
6783 6 0.360704 0.253201 0.0599064 0 0 2 
6051 6 0.376577 0.219981 0.0723868 1 0 1 
7857 5 0.722297 0.192124 0.0157579 3 -1 -2 
6723 5 0.164726 0.235386 0.99547 0 2 4 
6272 6 0.752969 0.298233 0.061608 -4 1 1 
6441 5 0.953766 0.221674 0.00797721 3 4 0 
7209 5 0.504983 0.28793 0.0188827 2 2 -3 
7183 6 0.0292412 0.289916 0.0519838 -5 2 -4 
6976 6 0.145159 0.304917 0.038815 2 -5 -1 
8511 6 0.670304 0.271315 0.0845009 -2 0 -2 
8095 5 0.790909 0.329782 0.0273715 -3 4 2 
6961 5 0.993633 0.33034 0.045216 3 1 5 
5882 6 0.434698 0.32037 0.0375493 -1 -1 0 
6770 6 0.762961 0.338266 0.997369 -4 1 3 
8958 6 0.0620811 0.339875 0.0195795 0 0 -3 
7124 5 0.99646 0.347581 -0.00172021 2 1 2 
5921 5 0.442738 0.379445 0.0533041 -2 -5 1 
7147 5 0.560634 0.347535 0.048548 2 0 -4 
6282 6 0.726357 0.375935 1.0008 3 2 3 
5472 5 0.791101 0.414004 0.0229556 -1 2 4 
7092 6 0.722932 0.370341 0.993271 -1 -7 -4 
8660 6 0.167164 0.446549 0.00564089 3 5 -1 
7300 5 0.327766 0.441459 0.0301675 -3 2 -4 
8959 6 0.724287 0.448689 0.0216486 3 1 6 
7568 6 0.0543535 0.458635 0.0418445 -3 -2 -1 
6513 5 0.646373 0.490751 0.0391133 3 1 0 
6598 5 0.0534268 0.485089 0.0487605 2 -1 -3 
7293 6 0.232064 0.536423 0.036814 -2 4 2 
5179 5 0.836964 0.530442 0.0492384 4 5 -3 
8243 5 0.825468 0.508205 0.038063 -4 4 -3 
5735 5 0.0821399 0.524707 1.0016 5 1 -3 
8646 6 0.254321 0.469536 0.052915 1 0 -3 
6356 6 0.430789 0.5196 0.0115823 -2 -1 5 
7499 5 0.172513 0.556263 0.0178735 1 -2 -5 
6708 6 0.252685 0.560977 0.0386345 2 -2 1 
6131 5 0.414086 0.507658 0.0238032 1 -3 2 
8180 5 0.643095 0.536685 0.992259 -3 -5 0 
7761 5 0.120079 0.60157 0.0372804 1 0 2 
7079 5 0.140003 0.576347 0.04402 4 2 0 
7383 6 0.739829 0.557691 0.0583985 0 1 -3 
7170 5 0.760566 0.600834 0.0261743 -3 0 0 
7074 5 0.23934 0.615946 0.993462 0 1 -2 
7362 6 0.706248 0.631906 0.0311828 -1 1 1 
7213 6 0.914846 0.616262 0.0794325 0 -1 3 
5797 6 0.186984 0.694486 0.00648846 -6 -1 0 
8645 5 0.0247325 0.711374 0.073238 1 -2 4 
7670 5 0.704735 0.697408 0.0220461 1 -1 2 
6828 5 0.0507218 0.748703 0.0152098 4 0 3 
7672 6 0.163195 0.690198 0.0292674 0 4 3 
7130 5 0.261294 0.667518 0.0280472 1 7 4 
6695 6 0.399853 0.743923 0.057031 2 -2 1 
6956 6 0.685366 0.773233 0.075264 3 0 7 
7799 6 0.703297 0.797561 0.0178037 1 -3 4 
7256 5 0.804849 0.76785 0.026913 -4 3 6 
7326 6 0.895353 0.783038 0.0384613 4 -2 -2 
6815 6 0.201974 0.782729 0.00663554 3 0 -4 
7847 6 0.702477 0.838186 0.018965 1 -2 2 
8867 5 0.924694 0.772284 0.996202 0 5 -2 
8303 5 0.73756 0.861166 0.0419534 -2 -5 -4 
8955 5 0.195378 0.843123 0.0551555 5 -4 3 
8341 6 0.456323 0.828959 0.0244719 -3 1 -1 
7233 6 0.841954 0.872509 0.0381385 2 -2 1 
5816 5 0.386214 0.847877 0.031881 2 -2 2 
5708 5 0.523861 0.905799 0.0185754 4 -3 0 
8907 5 0.992383 0.88319 0.0233832 -2 3 1 
8220 5 0.253804 0.874921 0.0417998 -2 -2 3 
7957 6 0.209393 0.95224 0.00512142 1 2 2 
7712 6 0.631209 0.93345 0.99751 -2 -1 -3 
6621 6 0.802227 0.943025 0.0343055 0 1 1 
7909 6 0.722918 0.971741 0.0280583 4 -3 0 
7553 6 0.187724 0.998781 0.0411296 -6 -1 2 
7818 6 0.885963 0.988492 0.986106 -3 -1 4 
8874 6 0.282229 0.00195434 0.077585 6 2 0 
5978 6 0.522306 0.998484 0.0387009 -5 4 0 
8010 6 0.459726 0.0691628 0.0564414 -5 3 2 
7690 6 0.774621 0.0275376 0.104991 -1 -6 3 
8883 5 0.455267 0.0320031 0.0501309 -2 6 -3 
8944 6 0.768492 0.0701939 0.0652081 0 2 -4 
7715 5 0.972777 0.0443781 0.0146023 -2 3 1 
8544 6 0.558399 0.047974 0.0468946 -4 2 -1 
6921 5 0.769604 0.102678 0.0897657 0 0 2 
5746 5 0.984468 0.106281 0.055086 3 0 0 
5757 5 0.197695 0.0959706 0.084782 -4 -2 -2 
6201 6 0.316544 0.113477 0.0773419 2 -3 1 
5054 6 0.283068 0.183041 0.0604728 1 0 1 
5170 6 0.180276 0.112732 0.0367771 -1 0 -1 
6847 6 0.37334 0.161453 0.0902854 -1 0 1 
8369 6 0.777955 0.192699 0.0737975 -3 1 -3 
8779 5 0.406835 0.22051 0.0420422 5 0 0 
7643 6 0.866713 0.205065 0.078639 -2 0 0 
8455 6 0.327148 0.184951 0.0642782 1 -2 -1 
7034 5 0.18343 0.276474 0.0251508 2 1 2 
6445 6 0.399614 0.308927 0.0359745 1 1 -3 
7998 6 0.0512748 0.376244 0.0484317 4 1 -1 
6865 5 0.214792 0.309009 0.0748392 -4 -1 6 
5191 5 0.995288 0.289674 0.0380227 -6 -1 1 
5913 5 0.449363 0.355296 0.0647894 2 1 2 
8055 5 0.604975 0.342988 0.0566279 2 -1 2 
7340 6 0.884453 0.350766 0.0600265 0 4 1 
8759 5 0.747492 0.364865 0.0752283 -2 -2 3 
7551 5 0.936444 0.375423 0.0539707 2 1 -2 
5447 6 0.403507 0.431975 0.0477897 -4 2 1 
6311 5 0.283709 0.404034 0.0179945 2 -1 3 
7626 5 0.162713 0.439472 0.0998605 -1 2 0 
5024 5 0.168693 0.427789 0.0636764 -2 -5 -4 
7708 6 0.474353 0.406025 0.0760812 4 6 1 
8522 6 0.838724 0.463962 0.0440055 2 1 -3 
6014 6 0.609824 0.47746 0.0733166 2 2 2 
6718 6 0.332991 0.532406 0.0785437 -6 -2 1 
6243 6 0.550602 0.545622 0.0823531 0 -4 1 
5904 6 0.613882 0.522461 0.0855203 0 5 4 
6399 5 0.895076 0.471866 0.0898887 -5 4 5 
7842 6 0.521931 0.505261 0.0651047 1 3 -5 
8441 6 0.902155 0.520254 0.0502987 -1 0 0 
7029 6 0.429991 0.522652 0.104145 0 1 2 
7573 6 0.652292 0.530854 0.0157813 1 5 -4 
8468 6 0.659277 0.573371 0.0112432 -4 0 3 
7675 6 0.741446 0.535877 0.0439934 -1 0 5 
6385 6 0.916416 0.566516 0.0485311 -1 -2 -1 
8270 5 0.883176 0.63372 0.0410114 2 3 0 
7961 6 0.0111767 0.618366 0.0404478 7 -2 -2 
8166 6 0.522899 0.670709 0.0538573 -1 0 3 
7289 6 0.764977 0.670244 0.0390433 0 -5 3 
6750 5 0.112878 0.717904 0.0860372 2 -1 -1 
7737 5 0.181398 0.694778 0.0704661 3 -1 3 
6428 6 0.818361 0.675052 0.0568157 8 -4 2 
8182 6 0.969984 0.693246 0.0783792 -6 -1 -2 
6742 6 0.0310576 0.741128 0.0978435 -2 4 -3 
6042 5 0.805262 0.764908 0.0879061 0 1 1 
5702 5 0.344779 0.797804 0.0554709 0 -1 2 
8507 5 0.0138496 0.830664 0.0318146 0 -3 4 
6747 5 0.321301 0.849166 0.04887 0 0 1 
7055 5 0.889281 0.787263 0.075795 -3 -5 0 
7268 5 0.99831 0.835074 0.0639126 0 1 4 
5705 5 0.832141 0.854662 0.0354026 -3 -5 0 
7052 5 0.0389712 0.887227 0.0696525 5 0 2 
8744 6 0.174711 0.892825 0.0677391 -2 1 1 
8213 5 0.293682 0.830979 0.0433861 3 -4 4 
8326 6 0.361934 0.884266 0.0520688 5 -1 4 
8014 5 0.584036 0.874117 0.0508747 0 -4 1 
7563 6 0.908276 0.86404 0.0743647 -1 -1 -4 
5076 6 0.0883199 0.89289 0.0627886 0 0 1 
5964 6 0.173767 0.936378 0.021307 0 2 -5 
8039 5 0.493993 0.928771 0.048749 1 3 1 
5753 6 0.87512 0.945642 0.0160319 -3 -2 0 
7482 6 0.237392 0.990135 0.0657453 -6 -2 -2 
8439 6 0.771127 0.992702 0.0710378 -1 4 3 
6541 6 0.890303 0.990808 0.0313251 2 -1 4 
5127 6 0.0700905 0.960227 0.0469961 1 -2 5 
8603 6 0.391972 0.0236644 0.0857897 2 1 -4 
6546 5 0.740953 0.0189926 0.0372315 -3 -6 2 
5916 6 0.461945 1.00174 0.073964 -6 1 6 
5148 6 0.180018 0.0407575 0.120178 -4 0 2 
6121 5 0.776136 0.0797501 0.0784963 0 0 -5 
6940 5 0.353576 0.104007 0.0519842 1 -7 5 
5266 5 0.569734 0.093369 0.0876176 7 -1 1 
5712 5 0.635362 0.106418 0.0927712 -2 2 2 
8533 6 0.65868 0.110923 0.127425 2 -2 0 
7271 6 0.401611 0.132956 0.0578357 -2 0 4 
8637 5 0.0143322 0.125249 0.0727051 0 -5 3 
5571 6 0.269596 0.194451 0.0656268 2 -1 -1 
5004 6 0.586374 0.164791 0.0569689 2 -1 1 
8090 6 0.544744 0.181184 0.0983156 -1 3 2 
5588 6 0.900546 0.217286 0.067588 -1 3 0 
7231 5 0.0304279 0.198513 0.0966056 2 2 0 
6649 5 0.321488 0.224769 0.10735 3 -2 4 
6775 5 0.15585 0.259603 0.089404 1 1 4 
6054 5 0.141836 0.247107 0.0831503 1 -5 -1 
8647 5 0.583985 0.235407 0.103907 1 2 6 
5556 6 0.282472 0.277807 0.04647 -3 0 4 
8221 5 0.434926 0.261491 0.0902217 -1 4 5 
7186 6 0.745013 0.262157 0.117768 2 -2 -1 
5186 5 0.868419 0.236057 0.0793761 1 -2 -1 
6178 5 0.201386 0.271697 0.042221 3 3 3 
7768 5 0.287493 0.283783 0.0667943 2 2 3 
8989 5 0.362741 0.278665 0.0842858 6 4 0 
8877 6 0.494938 0.289398 0.0715363 0 0 3 
5193 5 0.534584 0.315732 0.0515648 4 0 0 
5425 6 0.806002 0.286414 0.0653307 3 -3 1 
7921 5 0.904856 0.304582 0.0390634 3 3 1 
6573 6 0.0650045 0.29923 0.087322 1 2 -3 
7354 6 0.77682 0.330509 0.105655 0 0 1 
8469 6 0.933247 0.359852 0.080144 -2 1 4 
5618 5 0.211889 0.343508 0.0433051 1 1 -5 
6335 6 0.25526 0.346213 0.0646871 -1 1 4 
5661 5 0.472954 0.359906 0.0476077 3 -2 3 
7667 6 0.69909 0.342497 0.0786926 -1 -1 8 
7691 5 0.561044 0.366968 0.0909881 -3 -1 0 
8567 5 0.589094 0.388344 0.0621972 0 2 -2 
7039 6 0.97868 0.42473 0.0667635 4 -1 0 
5967 5 0.827094 0.483315 0.0838003 7 8 3 
8050 6 0.873498 0.499723 0.110585 -2 3 5 
5779 6 0.174485 0.509965 0.0686183 -1 4 1 
7549 6 0.571632 0.514519 0.0746469 2 1 2 
5325 5 0.322422 0.524333 0.0548348 -4 0 2 
6774 5 0.679241 0.58617 0.122567 -8 -3 -1 
5062 5 0.383775 0.606816 0.0774318 1 -1 4 
7638 6 0.69595 0.57389 0.059999 -2 1 1 
7561 5 0.206638 0.628545 0.117879 0 1 -1 
8506 5 0.255552 0.576828 0.0910644 3 0 -2 
7260 6 0.239594 0.589566 0.0883373 -2 3 -4 
5780 6 0.970958 0.674076 0.0866253 3 -4 -2 
6489 5 0.165315 0.674059 0.0807598 -3 3 -2 
8203 6 0.545414 0.678837 0.0782628 2 1 4 
6104 5 0.624389 0.670928 0.0882995 4 4 1 
5028 5 0.654781 0.690762 0.0659234 5 6 -1 
5416 5 0.552387 0.717181 0.0631539 2 -1 -4 
7415 6 0.838387 0.671115 0.117854 0 1 5 
5865 6 0.231039 0.740373 0.0760024 -2 -6 1 
5102 6 0.451866 0.760152 0.0802938 -8 1 3 
5378 5 0.643164 0.759486 0.107319 -3 5 1 
6157 5 0.12293 0.770409 0.0716509 -5 0 0 
7545 5 0.280011 0.761281 0.0806491 2 -3 6 
7114 6 0.608712 0.799571 0.0643172 -2 -1 -3 
5424 5 0.681693 0.758604 0.0447652 3 0 0 
5587 5 0.249527 0.770037 0.0870695 7 1 -1 
7101 5 0.881629 0.793019 0.100309 0 5 3 
7696 5 0.537267 0.864784 0.084439 -4 -1 4 
5078 6 0.447455 0.877798 0.0930603 2 2 4 
8492 5 0.448936 0.911963 0.0823621 -8 -1 -3 
5575 6 0.722644 0.973706 0.0735724 3 -2 -1 
5958 5 0.820003 0.942716 0.075854 -1 2 -2 
7141 6 0.0284601 0.947634 0.0775308 5 0 2 
7813 6 0.0818483 0.990249 0.0651256 5 -1 1 
6790 6 0.291928 0.98169 0.125395 2 0 0 
6664 5 0.941223 0.901399 0.0929115 0 -5 3 
6478 6 0.0154448 0.993473 0.081446 2 2 -4 
7709 5 0.575799 0.993861 0.0657772 -1 3 0 
5168 6 0.598327 0.982004 0.077312 5 -2 -2 
8994 5 0.930556 0.981609 0.081777 -2 1 4 
6850 6 0.155247 0.0100523 0.072605 4 -1 3 
7767 6 0.201095 0.0424908 0.124671 0 1 2 
8282 6 0.314653 -0.00261499 0.0324726 -1 6 -1 
8279 5 0.71401 0.0139743 0.158911 -8 -2 -1 
7449 6 0.131629 0.0148872 0.104128 -1 3 -1 
8127 6 0.586646 0.065869 0.105644 1 1 -4 
7650 6 0.339282 0.0861094 0.101597 -2 4 -3 
8291 5 0.543976 0.057051 0.103324 -4 2 0 
7695 5 0.0219855 0.135801 0.11041 -3 -1 -5 
6323 6 0.237627 0.109413 0.111815 -4 -1 -1 
5454 6 0.812957 0.0968031 0.13489 -3 -2 7 
8211 6 0.688686 0.128629 0.0830588 -3 -4 4 
6507 5 0.0109722 0.130485 0.150397 -1 0 -3 
6130 5 0.0890692 0.18269 0.103698 -3 -4 -1 
7182 5 0.182838 0.153604 0.104207 1 0 6 
7387 6 0.658599 0.171535 0.110713 2 -2 -2 
7450 6 0.0879295 0.174982 0.0801644 1 -1 0 
7008 6 0.106326 0.192496 0.0846557 1 1 -2 
7345 5 0.0574837 0.22936 0.100273 -4 2 0 
7918 6 0.243502 0.243481 0.0968998 -3 3 -4 
6315 6 0.413415 0.250279 0.109568 1 3 1 
5017 5 0.698461 0.230939 0.0921801 0 1 6 
6945 5 0.32129 0.270292 0.132017 3 -4 9 
6879 6 0.936639 0.261143 0.09817 -1 1 0 
8132 5 0.566216 0.330208 0.125591 -6 3 -6 
7605 5 0.812297 0.255358 0.066862 0 0 4 
8792 5 0.940345 0.3004 0.117887 -2 1 1 
7548 5 0.121508 0.30454 0.101832 -6 3 -3 
8943 6 0.207209 0.365709 0.133887 2 -6 7 
5535 6 0.787215 0.337126 0.106092 5 0 -1 
6309 6 0.00497555 0.36343 0.0780996 -2 -2 1 
7530 6 0.587911 0.393143 0.116648 2 1 -4 
6820 6 0.912193 0.334537 0.067409 1 5 0 
5361 6 0.0385195 0.354534 0.0870811 -1 1 0 
7058 6 0.123324 0.364168 0.0701011 -9 0 0 
6898 5 0.524692 0.408899 0.0765383 -5 -6 1 
6112 5 0.174755 0.422512 0.10236 -2 -2 -1 
5980 6 0.528376 0.463032 0.12756 -1 1 0 
6711 6 0.316208 0.484376 0.139309 4 -1 -2 
7689 5 0.92032 0.479105 0.117107 5 1 3 
7788 6 0.32668 0.478778 0.0795797 2 -5 0 
5832 5 0.512974 0.478786 0.105764 -1 2 0 
6955 6 0.492837 0.519037 0.11506 -2 2 -1 
5012 6 0.914219 0.534233 0.114253 2 3 -2 
7700 5 0.138737 0.528503 0.086242 -2 3 -2 
7254 6 0.347501 0.567429 0.11369 -4 -3 3 
5140 5 0.433466 0.560211 0.107627 -2 -6 -5 
7481 6 0.633616 0.568191 0.105124 2 0 4 
7473 5 0.259356 0.546347 0.105829 2 0 2 
5996 5 0.3216 0.58244 0.115918 1 0 -2 
7952 5 0.963287 0.599313 0.107969 -5 -2 -1 
7191 6 0.956971 0.548909 0.117511 2 0 -4 
8770 5 0.716061 0.598545 0.133901 0 1 1 
5903 6 0.128642 0.659971 0.121186 0 3 1 
7938 6 0.28279 0.624359 0.119986 3 3 4 
8595 5 0.488373 0.641286 0.108124 -3 0 -5 
6249 5 0.702795 0.629867 0.0702095 4 -1 2 
8971 6 0.677087 0.615089 0.152253 -1 -3 3 
6016 5 0.380146 0.668207 0.0841657 1 1 -7 
7454 5 0.0387597 0.700044 0.0970343 4 0 -5 
6771 5 0.920605 0.700081 0.120168 1 -7 -2 
6521 6 0.305391 0.736016 0.0923241 1 0 0 
5759 6 0.47867 0.716783 0.069022 4 0 1 
6026 6 0.53537 0.730124 0.105282 0 -1 1 
6262 6 0.307186 0.723571 0.126979 4 2 -5 
6071 5 0.305264 0.812345 0.12136 -4 0 2 
5637 6 0.653969 0.766815 0.045497 4 -4 1 
7421 5 0.227094 0.781723 0.108131 1 -2 3 
8870 6 0.80162 0.824799 0.099385 3 -3 -2 
8632 5 0.717611 0.80831 0.108776 -1 4 -1 
8725 5 0.152476 0.817189 0.0878569 4 -3 -3 
6193 5 0.597252 0.837288 0.138216 -3 -5 -2 
5492 5 0.844242 0.857063 0.0844133 -2 0 1 
8949 5 0.477722 0.893537 0.125638 -5 0 2 
5048 6 0.803255 0.887328 0.0996289 4 0 4 
8701 5 0.87714 0.919069 0.0987438 -3 4 -4 
5643 6 0.510494 0.932346 0.113248 -1 -3 -5 
5006 5 0.0849267 0.93078 0.0880435 -3 2 3 
6417 6 0.864997 0.957093 0.0991415 -1 4 0 
7793 5 0.0725715 0.98925 0.110583 5 -2 1 
6822 6 0.0727681 0.0650775 0.131086 -1 3 2 
7750 6 0.201681 0.989307 0.115117 -4 -5 3 
6345 6 0.394249 0.0203371 0.115668 1 -1 -1 
6368 6 0.630852 0.975023 0.111587 1 5 5 
8750 6 0.35487 0.0520033 0.119043 -3 0 1 
7339 5 0.609608 0.0292556 0.0841679 -1 0 -2 
6454 6 0.514684 0.0809094 0.126052 -1 2 -5 
5603 6 0.555065 0.054524 0.114231 0 2 -1 
5137 5 0.914077 1.00077 0.0909214 -2 -3 3 
5490 5 0.93202 0.0598523 0.127247 -2 -1 -1 
7205 6 0.158135 0.0655296 0.123684 3 4 0 
5689 6 0.1963 0.0908027 0.148527 -1 5 -1 
7299 5 0.567727 0.0831654 0.123845 1 3 -2 
5093 6 0.642583 0.0742318 0.129257 4 -3 3 
7991 6 0.988926 0.061576 0.101256 -1 3 2 
8947 5 0.695777 0.114847 0.10155 -3 -4 3 
5143 6 0.958785 0.0774997 0.172758 1 -3 1 
5827 6 0.94892 0.112764 0.113998 -4 1 2 
8890 6 0.246349 0.117319 0.125702 3 0 -2 
5886 6 0.910414 0.162793 0.129556 -3 -1 1 
5437 6 0.549819 0.191069 0.129729 6 -1 2 
8178 5 0.589334 0.22002 0.115954 -4 2 -3 
5995 5 0.90332 0.172747 0.116973 -2 5 -2 
5744 6 0.433978 0.194815 0.141204 1 4 4 
7834 5 1.00179 0.239837 0.125857 -2 -2 2 
7278 5 0.289879 0.249845 0.156805 3 1 3 
8029 6 0.336937 0.228473 0.126054 -1 1 -3 
5351 6 0.945787 0.29328 0.125883 2 0 0 
6523 6 0.704203 0.306063 0.0999552 -3 -3 3 
8215 6 0.329307 0.328992 0.160965 3 1 -2 
6568 6 0.243064 0.340661 0.137731 -3 1 -4 
7379 6 0.235304 0.359736 0.133744 1 1 0 
8351 6 0.462921 0.301414 0.119659 -4 -1 -1 
5514 6 0.709648 0.354425 0.138202 -2 -2 2 
6837 6 0.0856567 0.353106 0.126679 4 -2 1 
6589 5 0.336264 0.397152 0.121949 -1 1 2 
8536 6 0.0615804 0.437455 0.0917061 -1 3 2 
7497 6 0.0474688 0.415511 0.103903 0 6 -6 
8564 6 0.416905 0.43321 0.0955519 -2 3 -5 
6359 6 0.940528 0.449436 0.150391 4 -1 2 
7283 5 0.357524 0.476289 0.133947 -6 6 1 
5862 6 0.832544 0.535294 0.142927 -4 4 1 
5539 5 0.0416583 0.518185 0.121251 5 1 1 
5910 5 0.284305 0.540788 0.135302 -1 2 0 
5820 5 0.361998 0.55006 0.102967 3 0 -1 
6709 6 0.660934 0.535955 0.131626 -3 4 -3 
5413 6 0.986527 0.559172 0.168692 0 0 -2 
7756 5 0.728726 0.640282 0.104066 -3 2 1 
6788 6 0.713547 0.612658 0.0989903 -2 -2 1 
7325 5 0.849218 0.603642 0.136854 3 0 3 
8232 5 0.400306 0.617751 0.107996 -2 -1 -1 
7889 6 0.549046 0.672146 0.119747 -3 0 -1 
7174 5 0.636352 0.640609 0.12726 -3 3 -7 
7392 5 0.956683 0.678025 0.174323 4 4 0 
7900 5 0.214951 0.602528 0.0994607 1 0 -3 
8706 6 0.695558 0.630317 0.131993 -2 -1 1 
6013 5 0.525961 0.693836 0.171468 0 1 -3 
8841 6 0.906438 0.678193 0.105495 6 -4 3 
8080 6 0.851694 0.76997 0.16567 0 -1 3 
6744 5 0.915679 0.730261 0.1006 2 0 6 
5649 6 0.279386 0.778342 0.130413 2 0 0 
5717 6 0.504957 0.744487 0.13816 1 -5 0 
6592 5 0.0132551 0.812483 0.159086 -4 0 1 
8775 5 0.143998 0.803536 0.156664 2 -1 -3 
7910 6 0.62062 0.784619 0.135675 0 1 -4 
5687 6 0.338867 0.878607 0.130549 0 -4 -2 
8891 6 0.936571 0.818132 0.111544 4 -1 -2 
8715 5 0.125834 0.827513 0.159115 -2 7 -2 
8921 6 0.159585 0.832488 0.16202 0 2 3 
8267 6 0.178054 0.845041 0.115783 -2 2 -2 
6294 6 0.235476 0.871666 0.124074 -2 -5 2 
7603 5 0.310272 0.888461 0.114464 6 -4 1 
6274 6 0.436941 0.866623 0.119329 -1 -8 2 
7971 6 0.687729 0.860191 0.100162 -3 2 5 
8986 5 0.738979 0.854407 0.143156 -1 -2 5 
8654 6 0.896913 0.861141 0.11904 -1 3 2 
6843 6 0.898307 0.873943 0.147661 4 4 0 
8687 6 0.067106 0.876788 0.105564 -3 1 1 
6826 5 0.221425 0.898066 0.127793 5 0 3 
8413 5 0.46212 0.871942 0.136694 -2 -2 -1 
8717 5 0.0573863 0.932166 0.121201 4 -2 -6 
7117 5 0.31356 0.881687 0.103687 2 -1 5 
5867 6 0.552335 0.878079 0.122664 3 6 -4 
6105 6 0.0916487 0.910633 0.125422 -1 -4 -5 
5950 6 0.316458 0.95592 0.123008 3 -6 3 
5929 5 0.279829 0.943544 0.142927 -1 1 6 
5089 6 0.714179 0.940945 0.110765 2 0 1 
6123 6 0.459823 0.944555 0.112363 -1 0 -5 
5095 6 0.138085 0.950313 0.127061 0 -2 2 
7516 6 0.305572 0.973808 0.131081 -1 0 -4 
6253 6 0.342635 0.926169 0.0920134 3 -3 8 
8617 6 0.425327 0.955723 0.119826 0 -2 8 
8066 6 0.530574 0.971183 0.123666 -1 -5 -2 
5258 6 0.884122 0.956803 0.0824543 3 0 0 
6423 6 0.119091 0.0122587 0.137698 -1 0 -1 
7955 6 0.419355 0.977589 0.0837252 -2 1 6 
8749 6 0.845029 0.97312 0.12464 -1 -6 -4 
7606 6 0.154327 0.0191561 0.127622 -5 -2 2 
7534 5 0.940971 0.0205724 0.132991 0 -1 2 
5256 5 0.0539521 0.003001 0.130168 -2 -6 -1 
8207 6 0.285018 0.0250347 0.178697 -1 -2 2 
7462 6 0.632236 0.0380498 0.150347 2 3 -4 
6133 5 0.0211685 0.0163663 0.144083 4 -5 3 
7255 5 0.561254 0.0909016 0.14597 -2 -3 4 
6048 5 0.25164 0.123737 0.122352 3 -1 -3 
5317 5 0.257783 0.0878288 0.143228 2 -1 4 
7035 6 0.546957 0.123224 0.144666 0 6 2 
8538 5 0.637305 0.104243 0.175558 1 -1 5 
8481 5 0.82991 0.102475 0.135344 0 1 -4 
6613 6 0.29815 0.087675 0.184001 7 -4 3 
5423 6 0.850891 0.0780086 0.161758 4 -1 1 
5293 6 0.270099 0.210912 0.178946 4 2 2 
7755 5 0.620338 0.214638 0.145427 -2 1 -3 
6463 6 0.948646 0.20819 0.141971 4 5 1 
8938 6 0.23518 0.175098 0.138526 0 6 1 
6735 5 0.221807 0.203539 0.126612 0 -1 4 
5802 6 0.280224 0.232714 0.138844 -2 -2 -1 
8854 6 0.393363 0.253778 0.117855 -3 5 1 
6854 6 0.501278 0.216668 0.173979 -1 -2 -4 
7524 6 0.809133 0.234615 0.0979007 2 0 -4 
8591 5 0.870017 0.244162 0.146729 1 4 3 
8300 5 0.570536 0.265179 0.138225 1 0 -3 
8675 5 0.189399 0.313793 0.141248 4 1 -1 
6195 6 0.464345 0.292386 0.134347 -1 -2 4 
8023 5 0.706615 0.308966 0.130233 3 4 1 
6074 6 0.8791 0.297901 0.153086 -2 5 0 
6239 6 0.11196 0.3493 0.165118 -1 3 -4 
5789 5 0.620375 0.329966 0.161557 2 -3 -4 
8659 5 0.860685 0.360368 0.13949 0 4 0 
5495 6 0.298583 0.400188 0.116612 -4 2 1 
8962 5 0.488568 0.380067 0.165311 -5 3 2 
8960 5 0.513514 0.395341 0.1396 0 5 5 
8816 6 0.302315 0.409219 0.152734 2 3 -1 
8471 6 0.520799 0.460703 0.143904 2 2 -2 
7711 6 0.445147 0.441454 0.133999 -4 2 2 
8420 6 0.691759 0.472774 0.148197 0 -3 0 
5388 5 0.922229 0.505541 0.132066 -5 -1 -2 
5902 6 0.0496425 0.577335 0.107705 2 -1 -4 
8013 6 0.602215 0.495021 0.119532 1 4 0 
5807 6 0.945187 0.502862 0.122841 1 -2 6 
7637 5 0.779335 0.540002 0.184637 3 -6 -2 
7699 6 0.00187068 0.630392 0.170064 2 0 -1 
6595 6 0.269813 0.59996 0.134087 2 -3 -2 
8572 6 0.217719 0.631074 0.142374 5 4 -3 
5887 6 0.849849 0.603441 0.14989 6 1 0 
5264 5 0.0510023 0.65992 0.128826 0 -1 2 
5440 6 0.177591 0.66686 0.131468 -2 6 6 
7188 5 0.549132 0.638016 0.139951 1 -1 -1 
8337 6 0.370263 0.71873 0.13919 2 1 -1 
5473 6 0.895713 0.689396 0.158942 0 -3 -1 
7322 5 0.168932 0.798694 0.200956 -1 -6 -2 
8396 6 0.111938 0.816742 0.157681 5 -4 5 
5750 6 0.207199 0.780723 0.138481 4 3 4 
6533 6 0.71884 0.7933 0.122469 4 -3 -3 
6221 5 0.295575 0.824603 0.0991247 6 -1 2 
5876 5 0.377251 0.792291 0.13949 -1 0 1 
5313 6 0.436312 0.811794 0.14819 1 4 2 
6514 5 0.659469 0.838929 0.132887 -2 -4 -5 
7762 5 0.749009 0.876653 0.164054 2 3 -1 
6217 5 0.126449 0.945552 0.1368 -2 4 2 
5209 5 0.776754 0.959603 0.143734 -2 1 2 
5284 6 0.0555834 0.991552 0.126339 -4 1 1 
5238 6 0.327027 0.994142 0.213597 4 -4 1 
6934 5 0.868876 0.987926 0.192413 -3 -3 5 
7644 5 0.11647 0.0117893 0.1947 2 3 2 
7185 5 0.333287 0.0280843 0.170655 0 1 -2 
5182 5 0.496471 0.0586837 0.229933 -1 7 -4 
8033 6 0.0482809 0.0407002 0.182145 3 -3 -4 
5749 5 0.0906989 0.0874421 0.190317 -2 0 0 
5496 5 0.272394 0.0704584 0.177418 5 -2 0 
7717 6 0.966339 0.147054 0.190981 0 -1 0 
8644 6 0.511236 0.10845 0.198008 -3 2 3 
6288 6 0.681288 0.142092 0.141179 -3 -2 -3 
7234 5 0.70195 0.13839 0.122994 -1 -2 0 
8636 6 0.11672 0.131312 0.201879 -5 -1 1 
8499 5 0.337397 0.133551 0.153716 5 1 7 
8788 5 0.505765 0.142751 0.157361 -2 5 -3 
7335 5 0.53422 0.125563 0.158369 2 5 1 
6456 5 0.976748 0.177579 0.162476 3 3 0 
7713 5 0.908837 0.153288 0.191326 0 -3 0 
7666 6 0.841435 0.214 0.169348 -1 -2 -1 
5030 5 0.993894 0.227019 0.145444 1 0 6 
5992 5 0.190677 0.202784 0.155824 -1 3 7 
8187 5 0.267337 0.242775 0.194442 -2 -3 -1 
7018 6 0.704241 0.20478 0.167518 4 0 -2 
6467 6 0.744264 0.270261 0.155114 4 -2 1 
8946 6 0.906739 0.234983 0.200082 -2 2 0 
7294 5 0.291289 0.265046 0.202596 0 0 0 
8398 6 0.539108 0.29729 0.178743 1 2 0 
5372 5 0.489708 0.319541 0.193392 1 2 9 
5770 6 0.819785 0.330798 0.163812 3 -2 0 
7681 5 0.846834 0.279054 0.178987 2 0 1 
8594 6 0.00398244 0.351204 0.172187 -2 1 -3 
6982 6 0.783421 0.373147 0.156112 -1 2 1 
7864 5 0.19283 0.390759 0.169307 -2 -4 -1 
8926 6 0.198973 0.406842 0.192702 -1 -3 -2 
6326 5 0.740749 0.412304 0.155979 0 5 4 
8143 5 0.934178 0.417521 0.172397 0 0 2 
5299 6 0.69081 0.430552 0.195615 1 -1 -2 
5497 6 0.817848 0.474593 0.186477 3 2 2 
7503 6 0.332022 0.476903 0.136419 -2 -2 0 
6084 6 0.00505435 0.527666 0.176009 -1 1 -6 
8666 5 0.0524698 0.50432 0.157244 0 -4 -2 
6665 5 0.291134 0.536592 0.167211 -4 -6 -2 
6669 5 0.307666 0.509911 0.145647 2 -5 -6 
7593 6 0.877198 0.565569 0.142941 -2 0 -2 
6700 5 0.0811906 0.596022 0.199383 -2 -2 -5 
8107 6 0.939914 0.570033 0.198538 -2 1 4 
5600 5 0.0736939 0.570547 0.167477 1 -6 1 
5669 6 0.643539 0.600172 0.18093 -3 -6 -6 
5034 5 0.532253 0.641475 0.179722 -2 -3 -3 
5117 6 0.319148 0.613321 0.165731 -5 1 2 
6160 5 0.415806 0.620917 0.168434 3 -2 2 
6540 5 0.626938 0.665382 0.141778 -6 -2 4 
6378 6 0.659486 0.619363 0.160139 -3 1 8 
5399 5 0.136119 0.628375 0.171815 3 -3 0 
8173 5 0.480237 0.677339 0.194203 1 3 -1 
7589 6 0.109027 0.683773 0.196927 5 5 2 
7282 5 0.107281 0.650211 0.163201 -5 1 0 
5220 6 0.169998 0.715794 0.167763 1 6 0 
5234 5 0.55769 0.76971 0.155035 1 1 5 
5586 5 0.663262 0.74617 0.17144 -4 -3 3 
5314 5 0.186607 0.78944 0.164584 2 1 -1 
5918 6 0.476834 0.758821 0.18209 4 2 4 
6162 6 0.652761 0.756608 0.146869 3 7 1 
7558 6 0.994745 0.787107 0.189641 -5 -2 1 
6668 5 0.471585 0.791422 0.154947 7 -1 1 
7129 6 0.519892 0.79289 0.169185 -3 3 3 
7178 6 0.522702 0.791697 0.181806 4 -4 2 
8748 5 0.467492 0.81247 0.174128 -6 4 -1 
7105 5 0.648067 0.8139 0.166691 -2 0 -1 
5198 5 0.923575 0.773646 0.183304 -1 -3 -1 
6421 6 0.277268 0.851046 0.200195 -1 4 -1 
8045 6 0.0914373 0.815304 0.191695 -2 1 3 
8322 6 0.112655 0.857395 0.165656 0 -5 -2 
7661 6 0.825892 0.886058 0.167323 1 0 0 
7956 5 0.099585 0.905934 0.174526 -5 2 2 
6887 6 0.933341 0.890974 0.173352 -1 -2 -1 
8433 6 0.390421 0.921484 0.160769 1 -5 3 
7738 6 0.746345 0.950384 0.176335 0 5 0 
5988 6 0.0699822 0.952314 0.155751 1 -3 -1 
8597 6 0.148214 0.972542 0.1586 -2 4 1 
6244 6 0.725082 0.98287 0.183981 3 -6 4 
6465 6 0.0901481 0.0100268 0.12721 2 3 2 
8346 5 0.415401 0.0197696 0.170395 1 2 -1 
5785 6 0.487903 0.00447174 0.17576 3 -2 3 
5892 6 0.82547 0.978349 0.158601 -7 1 3 
7749 6 0.990121 0.959031 0.187745 -4 -6 0 
5145 6 0.503393 0.993667 0.171739 0 -4 2 
8098 6 0.608071 0.0197373 0.209617 2 3 -1 
6667 6 0.599516 0.993275 0.192462 3 0 -2 
7763 6 0.998279 0.0568448 0.194776 -5 3 5 
7090 6 0.813958 0.0217387 0.231829 1 4 0 
8036 6 0.11357 0.0567208 0.203218 4 4 4 
5570 5 0.376493 0.050434 0.176179 3 3 -3 
5056 5 0.493933 0.0988926 0.196079 -2 -2 6 
7710 6 0.518822 0.0755848 0.214477 -1 2 3 
5763 6 0.852546 0.0688372 0.221213 -3 0 4 
5194 6 0.323059 0.0952415 0.183005 -3 2 2 
5611 5 0.474872 0.140323 0.188883 1 3 3 
7122 5 0.781737 0.147744 0.217104 -2 1 4 
5594 5 0.677992 0.137261 0.170796 -6 3 -1 
7487 6 0.766617 0.150628 0.189777 4 -4 -1 
5467 6 0.0191273 0.139966 0.162286 0 -3 3 
8251 5 0.409524 0.181391 0.183599 -8 -2 -5 
7312 6 0.64883 0.181074 0.170174 -2 3 2 
8417 5 0.874858 0.163795 0.203728 0 4 0 
6049 6 0.00917678 0.196592 0.158563 3 0 -4 
8259 5 0.124397 0.206496 0.209491 0 2 0 
7401 6 0.376447 0.203147 0.148272 -2 -4 4 
8722 5 0.330683 0.22577 0.190997 0 4 0 
6373 5 0.369151 0.211755 0.178861 2 -1 3 
7259 5 0.44934 0.230317 0.190574 2 -3 7 
5959 5 0.0891577 0.254398 0.144981 1 -6 0 
6942 6 0.0680772 0.2478 0.169029 1 -1 1 
7094 5 0.836209 0.286066 0.211483 -1 1 0 
7796 5 0.26386 0.287466 0.18056 1 -4 0 
5951 6 0.283711 0.317153 0.181035 -1 0 2 
5486 6 0.717452 0.261801 0.188529 -1 3 -8 
6500 5 0.228891 0.376234 0.183239 1 -4 -3 
7304 5 0.265683 0.321106 0.208883 -2 2 2 
5456 6 0.596542 0.38102 0.217633 0 0 -2 
8974 5 0.0475638 0.359042 0.213996 4 0 -1 
5553 5 0.405927 0.384439 0.209999 4 5 5 
8293 5 0.424455 0.35758 0.186726 -3 2 1 
6963 6 0.425176 0.392293 0.205198 -4 -1 1 
6167 5 0.468581 0.449901 0.243556 1 -8 -5 
6241 6 0.920587 0.419413 0.195213 -1 1 3 
6950 5 0.0161499 0.436599 0.213288 2 3 -3 
7599 6 0.0110674 0.469909 0.189114 4 -1 3 
7033 6 0.238342 0.501979 0.206439 -4 0 -4 
5019 5 0.26377 0.493001 0.202192 4 2 -1 
5739 6 0.65005 0.465739 0.191101 0 1 1 
6448 6 0.371297 0.476643 0.162175 -3 0 -1 
6269 6 0.127165 0.500868 0.19934 1 5 1 
8152 5 0.927525 0.495529 0.181865 -4 2 -2 
7948 6 0.98528 0.54534 0.175277 -3 1 10 
7901 6 0.421093 0.548544 0.184096 -1 4 3 
5359 6 0.976312 0.507754 0.184691 -5 3 -3 
5868 6 0.0717444 0.624123 0.188352 -2 -2 -9 