ITEM: TIMESTEP
20000000
ITEM: NUMBER OF ATOMS
9000
ITEM: BOX BOUNDS pp pp pp
-75 75
-75 75
-75 75
ITEM: ATOMS id type xs ys zs ix iy iz 
6637 6 0.664409 0.987357 0.0285845 -1 -1 -1 
5093 5 0.908322 0.0164959 0.0194492 1 -2 2 
5921 6 0.229707 0.0752648 0.996939 4 6 -3 
6194 5 0.609963 0.0984152 0.986438 -4 -6 -2 
7219 6 0.376467 0.120989 0.0517154 -1 0 -2 
7099 6 0.433721 0.169986 0.0182098 -1 -1 3 
6305 6 0.747165 0.19248 0.0121774 -3 -6 -5 
7631 6 0.0900164 0.195919 0.0130599 2 1 3 
7318 6 0.643023 0.170088 0.995929 0 -4 -6 
5679 5 0.677272 0.214239 0.0246497 1 -4 2 
5951 6 0.189488 0.247904 0.0269403 2 5 3 
7913 6 0.27648 0.216129 0.996154 5 -2 0 
7719 5 0.604282 0.215537 0.0283084 1 3 3 
8769 6 0.787529 0.239465 0.00908858 2 1 2 
7534 6 0.102479 0.285064 0.0637734 -4 2 0 
6603 5 0.542471 0.281221 0.00407013 -1 -4 1 
6465 6 0.671653 0.298508 0.0303247 0 4 6 
5719 6 0.830291 0.30646 0.0353054 -1 -5 -1 
5958 5 0.267817 0.341797 0.995654 -2 -4 2 
5914 5 0.448054 0.333132 0.982161 3 0 0 
5552 6 0.445937 0.294246 0.0494117 2 -3 -1 
5164 6 0.747008 0.347935 0.0247232 5 -1 -2 
8534 6 0.169681 0.37452 0.011218 5 -2 -2 
5297 6 0.857874 0.359909 0.0125384 -6 4 4 
7149 6 0.00337985 0.41353 0.0605293 0 -4 1 
6771 6 0.348374 0.431849 0.0235588 -4 3 -4 
6767 6 0.411722 0.397369 0.0177276 3 7 0 
8687 5 0.645511 0.407981 0.00971508 0 2 2 
6349 5 0.707161 0.444344 0.000393651 1 -1 5 
6352 6 0.773234 0.428819 0.0312401 1 1 0 
6190 6 0.181921 0.455294 0.0504644 0 2 -2 
7775 6 0.299545 0.421691 0.00924962 -1 1 3 
5135 5 0.500876 0.436964 0.0373058 6 0 2 
6814 6 0.149678 0.460552 0.0102348 2 -1 -2 
5812 6 0.708866 0.454568 0.00281779 4 -4 0 
8732 5 0.999216 0.515617 0.0442474 1 6 -1 
8227 6 0.0772238 0.505578 0.00440254 2 -4 3 
6778 5 0.757483 0.526371 0.0168602 1 1 0 
6240 5 0.0879033 0.535677 0.991431 -1 0 1 
6568 5 0.446732 0.536598 0.0389331 -1 1 -2 
7674 6 0.653002 0.54478 0.0105012 -4 1 -1 
6496 5 0.986456 0.534825 0.0098599 -1 4 -1 
7170 6 0.439314 0.549684 0.999874 0 -2 1 
6273 6 0.554262 0.588347 0.063656 -2 -1 3 
5319 5 0.742975 0.567202 0.0234629 2 -1 2 
5907 5 0.770546 0.595509 0.002306 -3 0 -5 
6991 5 0.611969 0.591032 0.992723 -1 0 -7 
7718 6 0.814385 0.61142 0.0516666 0 1 -5 
6716 5 0.262557 0.62748 0.0372035 1 -4 0 
5083 5 0.779484 0.629443 0.0301011 0 -1 2 
8244 6 0.137687 0.685535 0.0204733 5 -1 -1 
6930 6 0.699489 0.708895 0.00351273 -1 -1 -5 
6638 5 0.195381 0.732671 0.991074 5 -3 -3 
7180 6 0.303538 0.709116 0.982615 0 -4 -1 
7646 6 0.588684 0.686302 0.0225073 3 0 1 
6143 5 0.311275 0.696081 0.0245607 0 -10 -2 
8658 5 0.584376 0.743755 0.0225094 -1 -1 0 
7563 5 0.457533 0.772229 0.0343025 1 7 0 
5900 6 0.177134 0.745218 0.0106939 1 -2 7 
6954 6 0.652473 0.836418 0.991006 0 0 -3 
7763 5 0.782422 0.790729 0.0217419 -3 -5 0 
7281 6 0.886723 0.827825 0.00448847 -2 -6 2 
7297 6 0.700613 0.842009 0.0289164 1 5 3 
6364 6 0.867241 0.887564 0.991398 -2 0 -4 
6311 6 0.0835541 0.886598 0.988847 -1 0 -3 
5672 6 0.164348 0.88174 0.0244304 7 -3 2 
6586 6 0.693626 0.907542 0.04148 -1 -4 -2 
8440 5 0.183471 0.927308 0.987371 5 -2 3 
8314 6 0.521156 0.925738 0.00984784 -3 3 4 
5969 5 0.55105 0.968437 0.00884566 -1 -4 -5 
7092 5 0.468177 0.952824 0.974286 2 -4 1 
5362 5 0.61567 0.988277 0.0383375 3 5 5 
8874 5 0.845795 0.988317 0.0237547 -3 -1 4 
5357 6 0.944817 0.950073 0.00459838 -1 0 0 
5925 5 0.0370917 0.997528 0.0247575 3 -1 3 
8085 5 0.931786 0.0101589 0.0395884 -4 -5 -2 
7950 6 0.58002 0.066687 0.0328125 -2 -5 2 
8098 6 0.810094 0.0814759 0.00728236 1 0 2 
5728 6 0.830963 0.037172 0.0298213 1 2 2 
7047 6 0.551406 0.118922 0.0485427 -1 1 -5 
7167 6 0.157055 0.116742 0.0119317 -2 1 -2 
8604 5 0.702278 0.147202 0.0543136 -2 2 -1 
6320 6 0.1341 0.195549 0.976793 -2 -1 -2 
8382 6 0.2163 0.1881 0.0075805 5 7 8 
8443 6 0.660696 0.197565 0.0181283 -5 2 5 
8865 5 0.70971 0.203237 0.0119386 -5 -2 0 
6911 5 0.435481 0.198865 0.0281207 -1 5 -1 
7057 6 0.46187 0.148908 0.0319427 -1 -2 4 
5495 5 0.476102 0.195401 0.0042851 0 2 1 
6051 5 0.00196347 0.24832 0.0434497 0 0 1 
5704 5 0.409298 0.235967 0.0572523 -1 -1 0 
6445 6 0.122156 0.255799 0.0180349 2 -4 0 
8503 6 0.515248 0.250461 0.0449736 2 -3 0 
8257 6 0.525207 0.236586 0.060447 -3 5 1 
7975 6 0.404313 0.308214 0.0463426 -2 2 2 
8225 5 0.852474 0.293051 0.0535098 -1 -1 2 
7082 5 0.284801 0.321313 0.00764863 -5 1 3 
6057 6 0.883716 0.339652 0.052554 -2 4 2 
8213 6 0.188013 0.348115 0.0587436 4 -1 -2 
6131 6 0.439152 0.39613 0.0680201 1 -5 1 
7148 6 0.368528 0.401302 0.0282526 2 1 1 
7026 5 0.478997 0.360466 0.0339629 3 -3 -1 
7225 5 0.509215 0.385081 0.0269482 3 0 -1 
8243 6 0.860056 0.434537 0.0504652 1 1 5 
5106 6 0.132473 0.404769 0.0223562 -4 -1 1 
5330 6 0.365752 0.456103 0.0281743 -1 -1 1 
5453 5 0.760111 0.44152 0.0191162 1 -1 0 
6885 5 0.200208 0.443733 0.0637339 0 4 4 
8975 5 0.568134 0.462155 0.0695806 3 -5 3 
5878 6 0.449475 0.464885 0.0618531 -2 1 0 
7101 6 0.157732 0.429759 0.056094 0 -2 -1 
5153 6 0.198619 0.471458 0.0178526 -1 -2 2 
6974 5 0.551337 0.491481 0.0614738 -2 -1 -2 
8058 5 0.505407 0.484338 0.0421121 4 2 1 
8908 5 0.712694 0.503726 0.0487819 0 -1 -1 
6329 6 0.0209096 0.522395 0.0400206 -3 -3 -1 
5424 5 0.139242 0.524682 0.0298825 0 -2 -3 
5491 6 0.310221 0.509262 0.0256379 0 -2 1 
6235 5 0.637473 0.525661 0.0345104 0 -8 -3 
6594 6 0.516351 0.551687 0.0320198 -2 -2 -3 
7750 6 0.126908 0.557358 0.0564377 -2 -2 0 
7105 5 0.188117 0.587002 0.983198 -4 1 2 
8230 5 0.57203 0.584369 0.0376613 -4 -3 5 
8422 5 0.868547 0.574028 0.0294379 -1 1 2 
6552 6 0.000144489 0.599868 0.0538972 2 -2 -2 
7892 6 0.145728 0.623511 0.0267284 0 0 0 
8169 6 0.425495 0.573533 0.0496499 -5 -5 1 
6939 6 0.0889264 0.648493 0.0178985 0 -2 1 
8727 6 0.443209 0.671606 0.0500053 3 -2 -1 
5764 6 0.501083 0.630515 0.0488859 6 5 0 
8782 6 0.0986068 0.696112 0.00897073 -1 -1 -2 
7941 6 0.145097 0.6983 0.083481 4 -2 -9 
6092 6 0.198914 0.700397 0.0720263 4 -2 -2 
5744 5 0.651578 0.710358 0.0105615 1 0 -2 
8123 6 0.0266287 0.709057 0.0879299 0 -1 3 
5323 6 0.329028 0.697425 0.0498941 -5 -5 2 
6009 5 0.0327713 0.737887 0.0279061 -1 0 7 
8509 6 0.0870448 0.759027 0.0474787 -3 -1 -5 
8094 5 0.570311 0.718463 0.0443875 0 -1 0 
5858 6 0.659027 0.747616 0.0436947 -5 0 -1 
5113 6 0.797535 0.757794 0.0511547 2 -4 -3 
5035 6 0.0396643 0.736097 0.0775887 -3 0 -1 
7466 6 0.531647 0.731919 0.0486893 3 2 1 
7967 5 0.083441 0.779621 0.0535512 -3 3 -3 
7575 6 0.562107 0.772039 0.0424802 5 1 1 
7428 6 0.651532 0.772543 0.0409259 0 4 -2 
6997 6 0.744269 0.776108 0.0500879 -3 -1 3 
8455 6 0.779251 0.778071 0.0493421 0 -2 0 
7536 5 0.868336 0.868322 0.00579838 0 1 0 
8413 6 0.38614 0.82877 0.0113483 2 -1 4 
6200 5 0.764898 0.816567 0.0331896 -2 -2 -4 
8102 5 0.752613 0.85663 0.035393 0 1 2 
8229 6 0.233213 0.831768 0.0600502 -4 -2 0 
7660 5 0.38718 0.855133 0.0405014 1 -3 -1 
8401 6 0.832454 0.915179 0.0532439 1 2 0 
8761 6 0.0679451 0.98884 0.0476559 1 1 -6 
6088 5 0.682273 0.920483 0.99717 -3 2 -1 
7924 5 0.980315 0.996494 0.0494986 -1 1 -2 
7121 6 0.734709 0.985047 0.98466 -5 0 -6 
8024 6 0.948394 0.964458 0.0296799 -4 2 0 
6444 6 0.379294 0.0585503 0.0676846 4 1 -2 
7366 5 0.773559 0.028349 0.0247259 -4 1 2 
6569 5 0.177876 0.0656349 0.0495574 -4 -1 2 
5488 6 0.675486 0.0772081 0.0672931 1 -5 1 
6713 6 0.905133 0.0903415 0.0586538 -3 7 1 
6961 5 0.102337 0.0351941 0.0625617 4 -3 2 
7125 5 0.177183 0.111148 0.0711709 -1 -2 6 
5289 6 0.386682 0.124442 0.0601196 5 3 -5 
8294 5 0.556513 0.114725 0.0834279 -6 -2 4 
5929 6 0.645693 0.143494 0.0814375 2 -1 -2 
5085 5 0.36494 0.166918 0.0518953 1 1 -3 
6000 6 0.503737 0.209886 0.0587562 -3 -1 4 
7895 6 0.495865 0.217708 0.0721455 -1 -3 5 
8779 5 0.672803 0.153828 0.0448751 1 0 4 
5697 6 0.710258 0.16733 0.0572852 -3 3 4 
8526 5 0.755251 0.177085 0.0773982 -4 1 1 
8317 6 0.350272 0.229264 0.0311538 1 0 0 
8741 6 0.808225 0.186051 0.0896047 3 2 1 
5596 5 0.762608 0.200548 0.0426578 0 0 2 
5254 6 0.0107751 0.239209 0.0694516 3 -2 2 
6298 5 0.637423 0.216135 0.0519722 5 -3 1 
6562 5 0.797839 0.28328 0.0583454 2 -1 0 
5944 6 0.818653 0.237797 0.064282 8 -5 -4 
5730 6 0.488125 0.263564 0.0302676 -1 3 0 
5149 6 0.886771 0.298845 0.0359775 5 0 2 
5059 6 0.269712 0.384054 0.0524308 -1 4 -1 
5108 5 0.884334 0.384949 0.0641643 0 -2 2 
7097 6 0.506181 0.460109 0.0801007 0 0 3 
7008 6 0.833924 0.404206 0.0637513 -1 0 -1 
8789 6 0.00570077 0.488618 0.0381792 -3 -1 -2 
6391 6 0.192705 0.488817 0.0921883 0 -6 1 
5030 6 0.472539 0.453276 0.0203169 6 0 2 
8806 5 0.884181 0.463222 0.0925796 4 0 -1 
7391 6 0.144762 0.480572 0.036425 -1 0 1 
6446 6 0.50796 0.499684 0.0337415 0 -1 2 
6940 6 0.97691 0.504727 0.0449875 3 4 -6 
5299 5 0.503739 0.529839 0.0562373 -4 5 -3 
5850 6 0.119197 0.588507 0.0611213 -2 -1 3 
7015 6 0.54323 0.596658 0.0543398 -3 0 1 
8617 5 0.747807 0.602627 0.0283351 -4 4 3 
8173 5 0.849272 0.591836 0.0763243 2 1 2 
5533 6 0.00951054 0.599154 0.0144366 -1 -1 1 
5572 6 0.824476 0.643442 0.0999462 -6 7 1 
8797 6 0.8813 0.701376 0.0570922 0 0 -1 
5738 6 0.274711 0.714108 0.0606867 0 2 0 
5451 6 0.466894 0.731121 0.0839249 -3 2 1 
6827 6 0.497756 0.702336 0.0674109 0 0 1 
8957 5 0.698756 0.689311 0.0632395 -3 -7 -5 
7120 6 0.0183193 0.721457 0.0841723 -3 -4 3 
7187 5 0.384183 0.725873 0.0837663 5 0 3 
6383 5 0.993563 0.791213 0.0258908 3 3 1 
7765 5 0.065093 0.810604 0.0653268 -4 -1 1 
5903 5 0.74999 0.786024 0.0653819 -2 1 -2 
7464 5 0.158426 0.786758 0.0949073 -3 1 4 
5110 6 0.506815 0.815517 0.0490465 4 0 -2 
8920 5 0.556601 0.827686 0.0840376 2 4 -1 
8219 6 0.131682 0.816322 0.0377671 3 1 0 
7159 6 0.491967 0.881762 0.0488138 3 0 5 
8943 6 0.654176 0.887283 0.028169 -1 -1 -2 
8392 6 0.881323 0.886012 0.0921359 2 3 -3 
7671 6 0.518894 0.891829 0.0366837 -3 -5 2 
8005 5 0.686334 0.89574 0.0642307 1 6 3 
7565 5 0.334433 0.950211 0.0564697 2 -1 -1 
8751 6 0.984608 0.952239 0.0670703 -4 0 0 
5689 5 0.342396 0.943709 0.0540741 -5 1 4 
5132 6 0.925662 0.984918 0.0612217 1 0 1 
5329 6 0.628857 0.00582827 0.035297 2 1 -2 
7470 6 0.893171 0.0182891 0.0916017 3 3 3 
5923 6 0.320336 0.0621519 0.0735811 -1 3 1 
8278 6 0.419931 0.0972906 0.0989555 1 3 5 
8041 6 0.612772 0.00281591 0.0942483 1 1 1 
5288 5 0.152437 0.0521388 0.0659255 2 0 2 
5338 6 0.333574 0.065944 0.0702983 0 -2 -1 
6522 6 0.65558 0.0435948 0.0878901 2 -3 -9 
8495 6 0.0513795 0.112113 0.0792109 5 1 4 
7111 6 0.351434 0.130304 0.108009 -3 3 4 
5465 6 0.620306 0.0907407 0.0495443 -2 -2 1 
6580 6 0.344153 0.126883 0.0801399 -1 3 4 
7797 6 0.459746 0.0978281 0.100847 -8 0 7 
5536 5 0.597729 0.17106 0.0999997 -4 4 1 
7762 6 0.878225 0.137505 0.102085 -3 -2 -1 
6945 6 0.170599 0.17512 0.0448722 1 3 -1 
5196 6 0.516958 0.165008 0.0851236 -1 2 -1 
7604 5 0.601863 0.185535 0.0556079 -3 3 -3 
6115 6 0.182843 0.192596 0.0715645 -1 -2 0 
8948 5 0.350132 0.211449 0.0748556 -4 -3 1 
8055 5 0.0899222 0.231783 0.0466988 -3 2 4 
5785 5 0.533073 0.276948 0.0805313 -5 2 4 
7430 5 0.560978 0.249529 0.102713 -1 1 1 
6202 6 0.609527 0.204526 0.0487676 -3 1 -1 
6830 6 0.780765 0.247919 0.0665849 3 0 -2 
8726 5 0.948553 0.249315 0.0648826 -1 -3 -5 
6016 6 0.0607969 0.290314 0.0836931 4 -2 3 
8869 6 0.276892 0.282514 0.0809263 4 -1 1 
8193 6 0.503471 0.297265 0.0878097 1 1 1 
5188 6 0.117491 0.299471 0.025961 -7 -3 2 
7454 5 0.212203 0.315249 0.0738363 5 -4 0 
8412 6 0.17365 0.265126 0.0542173 3 5 4 
6307 6 0.487756 0.283244 0.0972376 4 1 5 
7012 6 0.438734 0.348721 0.0714686 -5 -3 0 
5993 6 0.924612 0.358575 0.0735819 0 2 -2 
6331 6 0.912265 0.369784 0.0771143 0 -2 3 
8353 6 0.978009 0.335655 0.0601948 -1 1 0 
6045 5 0.650677 0.3525 0.059309 0 2 -2 
7307 5 0.968202 0.443337 0.0632941 -2 -2 -1 
7323 5 0.0977871 0.461287 0.0688457 -3 4 4 
5995 5 0.295369 0.419211 0.00342507 2 1 3 
7134 6 0.287295 0.447877 0.0803735 5 4 -2 
5445 6 0.15472 0.470806 0.097654 0 0 4 
5555 6 0.623884 0.507051 0.110973 -2 6 5 
7935 6 0.779478 0.48319 0.0671518 -2 1 -7 
7188 5 0.0331672 0.538287 0.0765329 -2 1 -1 
8028 5 0.0139947 0.549147 0.110722 -3 0 3 
8597 6 0.112064 0.526989 0.0778518 -1 -2 -1 
8894 5 0.328302 0.542423 0.0854597 -4 6 -4 
7295 6 0.377894 0.5359 0.0951604 6 3 -2 
8880 6 0.638137 0.59369 0.0777454 2 -1 0 
5359 6 0.3535 0.546929 0.0871369 -4 -1 -3 
6989 6 0.33595 0.553199 0.0495458 -2 -1 1 
7593 6 0.358864 0.61724 0.0776844 -1 2 2 
5057 5 0.604354 0.598446 0.082564 -4 -1 7 
8279 5 0.0324088 0.643928 0.0750315 1 0 1 
7701 6 0.101926 0.63347 0.0796262 4 -4 1 
7747 5 0.0860911 0.669 0.077427 5 2 0 
8166 6 0.881146 0.630643 0.0878406 -1 -2 0 
5303 5 0.948282 0.691086 0.0426548 1 5 2 
6717 6 0.24078 0.708615 0.093635 -3 -1 -5 
6607 5 0.538977 0.753466 0.0816026 4 -5 1 
5525 6 0.892816 0.763025 0.0666485 -2 -2 0 
8182 5 0.0497373 0.788251 0.0892833 0 3 5 
7665 5 0.358318 0.787294 0.114331 -5 -4 2 
5788 6 0.574067 0.780993 0.0638788 6 0 3 
5905 6 0.25087 0.803277 0.105919 -2 -2 0 
6701 5 0.845283 0.795413 0.085085 -1 0 1 
5095 5 0.685004 0.819457 0.0939222 0 1 0 
7601 6 0.462161 0.905643 0.109399 -4 2 -1 
7969 5 0.542692 0.86368 0.0721836 5 2 1 
8241 6 0.0723899 0.872512 0.092724 2 2 3 
8959 5 0.394819 0.907744 0.0719146 2 0 2 
5534 6 0.693752 0.904659 0.0579871 1 0 3 
8062 6 0.131224 0.971305 0.0917645 5 0 3 
7586 6 0.155879 0.931545 0.0795188 1 4 2 
7090 6 0.341155 0.931242 0.0516649 -2 -7 3 
5748 5 0.0124303 0.977299 0.0857045 4 2 -5 
5051 5 0.179034 0.952119 0.0994551 -2 -2 4 
5139 5 0.275996 0.055168 0.138827 -4 -2 -3 
8361 5 0.628366 0.981242 0.0951055 5 -5 0 
7835 6 0.640946 0.0455037 0.127629 0 1 -1 
5824 6 0.563059 0.0729694 0.0918796 3 -1 1 
8078 5 0.722676 0.111178 0.0841634 1 1 1 
6395 6 0.816042 0.0398295 0.0987532 0 5 2 
5382 6 0.159175 0.123478 0.0954742 0 4 1 
5496 5 0.272009 0.114694 0.075026 -2 1 -3 
7485 5 0.391769 0.133592 0.11302 -4 -5 1 
5361 6 0.409007 0.108144 0.107428 -1 1 1 
5198 6 0.771168 0.0992244 0.0932247 1 1 -3 
8165 6 0.851983 0.152959 0.108503 0 3 -3 
6367 5 0.689852 0.218705 0.118351 1 1 -2 
6008 5 0.856158 0.171239 0.0824986 -2 2 -2 
6612 5 0.881167 0.193613 0.0714185 -2 2 1 
5516 5 0.0532468 0.225744 0.0700116 -1 7 -4 
8631 6 0.0844972 0.269365 0.108383 1 1 0 
7796 6 0.0930223 0.244691 0.0318303 1 0 -2 
7049 6 0.235387 0.283268 0.0779507 2 -2 3 
8040 6 0.522954 0.227343 0.0837747 -1 2 5 
7830 5 0.540591 0.334749 0.0831814 2 -1 3 
6782 6 0.988352 0.311376 0.108701 -1 0 -2 
6787 5 0.21284 0.322003 0.150072 2 0 -4 
6759 6 0.230791 0.362038 0.14504 3 1 0 
7027 5 0.640908 0.309161 0.119556 4 0 0 
6765 5 0.0908779 0.384172 0.0745071 -1 -1 5 
7203 6 0.315474 0.378327 0.140697 -2 -1 -1 
8623 6 0.548294 0.39262 0.0888852 1 -1 7 
8454 6 0.960774 0.402859 0.058562 1 0 -6 
7235 6 0.3071 0.417214 0.0747875 -1 4 5 
5999 6 0.775855 0.431911 0.100757 0 1 1 
6292 5 0.106256 0.433197 0.100305 1 -5 1 
7444 6 0.380601 0.458638 0.107364 1 -6 -2 
7767 6 0.861173 0.500904 0.0996657 2 -3 5 
7023 5 0.822317 0.483056 0.0995753 -3 -4 2 
6781 5 0.923436 0.518874 0.0911099 4 0 3 
5414 6 0.895372 0.504656 0.119758 -1 3 1 
5013 6 0.0794431 0.492326 0.106667 -4 2 0 
7556 5 0.547848 0.551458 0.0866142 7 2 -4 
8171 6 0.660879 0.550681 0.124367 3 -2 5 
8544 6 0.604535 0.582036 0.126636 -2 4 4 
6209 5 0.904861 0.558652 0.120318 -2 -6 0 
6642 6 0.939458 0.543441 0.0780214 -2 -2 3 
7583 5 0.995774 0.635533 0.0763939 -2 0 0 
7199 6 0.169339 0.64751 0.121601 -1 0 -2 
7291 6 0.778361 0.628025 0.127997 -1 -2 -1 
5644 6 0.0265022 0.656159 0.0854949 -2 2 5 
6323 6 0.839135 0.586114 0.121505 1 2 -2 
6387 5 0.13994 0.648174 0.119058 -1 2 2 
7400 6 0.60876 0.716946 0.135825 6 0 0 
7163 6 0.639094 0.709163 0.117816 2 3 0 
6530 5 0.764659 0.67278 0.1248 3 1 -1 
7115 5 0.171298 0.69592 0.0983679 -2 -1 3 
5253 6 0.804223 0.714322 0.0606797 -5 -1 3 
7088 5 0.811482 0.781829 0.0610896 0 4 3 
6275 6 0.886524 0.789048 0.10831 -3 -3 0 
8881 6 0.689994 0.797238 0.105724 -1 1 -5 
7851 5 0.193801 0.821001 0.0987581 2 -1 2 
8441 6 0.495399 0.847341 0.0790852 -1 -3 1 
6064 5 0.576036 0.861375 0.095266 4 3 1 
5794 6 0.58261 0.822343 0.0848785 1 0 4 
7011 5 0.769503 0.818355 0.121263 -4 -2 4 
7588 5 0.287212 0.853865 0.093904 -1 0 3 
7502 6 0.0485878 0.879854 0.0723439 2 2 -4 
5992 5 0.306493 0.891253 0.117566 -3 5 2 
8937 6 0.391089 0.878054 0.0914989 -4 2 -2 
5948 5 0.517309 0.866271 0.108959 -1 -4 2 
6211 6 0.444373 0.905291 0.112116 -2 -1 3 
5848 6 0.596697 0.921941 0.128336 1 -3 -2 
5675 6 0.666501 0.920351 0.13537 -5 -5 1 
5988 5 0.0279006 0.931209 0.123145 -5 0 -2 
6191 6 0.268939 0.905676 0.107522 0 -1 0 
6678 5 0.955276 0.891038 0.0900441 -1 -3 2 
8629 5 0.120201 0.940659 0.120569 -2 -2 4 
8814 5 0.7545 0.905128 0.0684198 3 -4 -3 
7081 6 0.0115932 0.993973 0.104766 4 -2 1 
6913 5 0.415517 0.000495889 0.0776032 3 6 4 
5637 6 0.77589 0.00467633 0.116216 2 -2 3 
6628 6 0.957516 0.978756 0.0647588 0 -1 2 
8386 6 0.904551 0.980538 0.0649987 -8 -4 -1 
8840 5 0.917072 0.961967 0.0608656 -3 -3 4 
5076 5 0.85397 0.00346786 0.152046 0 1 -1 
7085 6 0.875095 0.0117875 0.102974 -4 -3 -1 
6283 5 0.352022 0.0603096 0.133892 1 3 -6 
7678 6 0.375398 0.116728 0.129091 -1 1 2 
7834 6 0.376 0.0722203 0.083013 -1 -2 0 
8535 6 0.304148 0.123877 0.140609 1 0 2 
6076 5 0.483177 0.12421 0.10868 -3 6 -6 
5215 5 0.70421 0.0777583 0.12998 -4 7 3 
8475 6 0.859277 0.111942 0.13598 -5 -4 -1 
5186 5 0.477488 0.118275 0.0900804 0 1 3 
7709 6 0.808084 0.113146 0.0999495 2 0 0 
8305 5 0.0693327 0.137804 0.132476 4 -4 -3 
7141 6 0.189865 0.168109 0.0850566 -7 -1 1 
5320 6 0.315805 0.2353 0.155547 -2 4 0 
5700 5 0.898772 0.185448 0.12815 1 0 -2 
7938 5 0.382906 0.215289 0.156408 -3 -1 -3 
8492 5 0.977458 0.205111 0.145119 2 -3 0 
5087 5 0.745702 0.255037 0.0944987 1 -3 -6 
6785 5 0.696172 0.206858 0.154698 0 -3 1 
6805 5 0.90362 0.221145 0.136442 2 2 -5 
8151 6 0.00252517 0.313612 0.10092 3 1 -2 
6626 5 0.248026 0.249785 0.160406 -3 -2 2 
6505 6 0.152263 0.286625 0.132042 4 -3 1 
7630 5 0.702668 0.308657 0.151571 3 2 1 
8334 5 0.989961 0.305501 0.160332 -3 0 0 
5830 5 0.495779 0.28676 0.0937032 -6 -3 -2 
8340 6 0.276264 0.331768 0.122137 -3 1 3 
6297 5 0.975384 0.340114 0.167791 3 1 1 
6996 5 0.670878 0.377083 0.154474 3 0 1 
5183 6 0.929262 0.361341 0.106682 3 -5 5 
6654 5 0.243123 0.361583 0.139015 -1 1 -1 
5055 5 0.261111 0.397009 0.169964 3 5 0 
8118 6 0.807428 0.390239 0.127283 1 -5 5 
5864 5 0.290551 0.43184 0.1341 5 0 -3 
5367 6 0.40355 0.403286 0.115832 -3 -4 0 
8694 6 0.203471 0.425552 0.136368 -3 5 2 
8488 5 0.394657 0.435671 0.137798 7 0 2 
7710 5 0.984491 0.456421 0.111131 2 -1 -3 
8685 5 0.679303 0.438243 0.143678 3 -3 0 
5838 6 0.0726451 0.531475 0.160001 -2 -3 -5 
5886 6 0.149812 0.527459 0.105827 -2 -1 -2 
5101 6 0.595329 0.494789 0.141252 6 1 -5 
8275 6 0.658654 0.504554 0.11911 0 1 -2 
5194 6 0.700308 0.533042 0.116794 -1 -2 -1 
8657 6 0.127555 0.530607 0.126621 1 -3 1 
6903 6 0.90746 0.526431 0.141712 2 6 4 
7433 5 0.00238202 0.567757 0.136458 0 7 -4 
8935 6 0.957232 0.496997 0.118933 -4 -4 0 
8953 5 0.473776 0.529639 0.0754137 -2 -4 -1 
7119 6 0.134237 0.579693 0.140242 1 0 -2 
6946 5 0.190194 0.58001 0.128792 0 -2 -1 
7068 5 0.727894 0.571115 0.140339 0 -1 3 
7215 5 0.553638 0.590302 0.132049 3 -3 -7 
6837 6 0.678976 0.653189 0.0904303 -4 0 -2 
5779 5 0.858149 0.62692 0.106336 2 -3 -1 
6070 5 0.908794 0.627805 0.112447 -1 0 -1 
6610 5 0.829388 0.67801 0.0977246 -1 1 2 
7103 6 0.917178 0.693635 0.167463 1 -4 1 
7570 6 0.982065 0.688331 0.0807106 1 6 0 
7694 6 0.176531 0.724885 0.11955 0 -1 2 
7373 6 0.951427 0.697672 0.108111 1 1 2 
7500 5 0.984425 0.720366 0.128681 -6 -7 4 
6281 6 0.837749 0.720422 0.11083 -4 0 4 
8113 5 0.939037 0.774936 0.113031 -4 2 0 
6579 5 0.966555 0.736669 0.132029 0 1 2 
8067 6 0.320215 0.740302 0.0753422 -2 0 1 
7325 6 0.530523 0.763539 0.120695 -5 3 -2 
8032 5 0.929035 0.727598 0.125274 -1 0 0 
6680 5 0.356484 0.784846 0.160879 1 -1 -1 
6241 6 0.571755 0.748916 0.0842258 -1 0 0 
6773 5 0.879385 0.790052 0.150019 2 -2 1 
5707 5 0.915982 0.738258 0.0999601 -2 -6 3 
6948 5 0.471279 0.808469 0.122508 -4 -5 0 
5724 5 0.790022 0.785864 0.0675834 4 0 1 
5210 5 0.202559 0.85441 0.10936 3 -1 5 
6616 6 0.415868 0.834394 0.138893 -3 0 -2 
7055 6 0.462738 0.865658 0.137554 0 0 -1 
5591 6 0.531451 0.84675 0.149686 3 2 -2 
8570 5 0.724966 0.821608 0.126685 -2 0 2 
5973 5 0.773441 0.868062 0.139973 -1 0 2 
7770 6 0.205731 0.954872 0.153457 3 -1 2 
5300 5 0.387782 0.898781 0.114471 -1 2 4 
8759 5 0.492728 0.898901 0.152654 -4 -7 1 
6260 6 0.542532 0.926563 0.114684 0 1 7 
8679 6 0.623437 0.924668 0.124801 0 -5 -2 
8291 5 0.992944 0.947718 0.142665 6 -2 -6 
6691 5 0.210305 0.936498 0.114867 -1 -1 0 
8659 6 0.452997 0.946997 0.149774 0 3 -6 
5808 6 0.747812 0.940083 0.122829 -4 0 -1 
6228 6 0.167354 0.982085 0.114192 -3 -5 0 
6980 6 0.630861 0.925384 0.128429 0 -2 2 
8883 6 0.727495 0.958417 0.130572 -3 2 2 
7661 5 0.728804 0.998745 0.070171 3 -4 2 
7577 6 0.809238 0.979479 0.151234 -1 1 -2 
8209 6 0.570875 0.0192055 0.155465 0 1 0 
5184 6 0.262045 0.0228111 0.110004 -2 -2 -6 
8813 6 0.28804 0.0478734 0.107446 -3 -2 5 
5660 5 0.51793 0.0136579 0.184273 3 1 4 
8567 6 0.598409 0.0701207 0.157829 -4 -1 -2 
7658 6 0.917683 0.0400985 0.135031 -3 2 -1 
8794 6 0.809895 0.0693172 0.164221 1 3 -1 
6623 5 0.206288 0.132219 0.0874431 -1 6 0 
5479 6 0.370073 0.119626 0.160651 -1 4 -2 
6850 6 0.230065 0.160514 0.159494 6 -6 0 
7636 6 0.562822 0.128518 0.13137 -5 -3 2 
5828 5 0.328399 0.168299 0.0993851 0 2 4 
5393 6 0.995471 0.167132 0.165494 -1 2 1 
8161 5 0.100168 0.17806 0.156211 1 -3 1 
8400 5 0.379566 0.192128 0.173751 -5 1 2 
7819 6 0.540365 0.14871 0.16699 0 0 -2 
7300 5 0.954597 0.176271 0.136401 0 -5 2 
8269 6 0.218144 0.224588 0.143376 4 -2 2 
5592 5 0.678215 0.20431 0.157434 1 -5 1 
6024 6 0.110294 0.245716 0.168927 -4 0 1 
6479 6 0.575665 0.289516 0.144198 3 3 -2 
6159 5 0.531251 0.265987 0.167681 -2 0 2 
8709 5 0.648233 0.323315 0.165608 0 -3 -2 
8423 6 0.0776449 0.336576 0.168722 -4 0 3 
7960 5 0.0746277 0.312521 0.136499 4 4 -1 
8844 5 0.323099 0.35824 0.161498 0 5 -2 
7635 5 0.774226 0.32336 0.133354 1 -1 -1 
7251 5 0.487068 0.371769 0.108799 -1 3 -2 
5163 5 0.949207 0.368179 0.169853 -3 1 -2 
8673 5 0.103121 0.428813 0.177939 0 6 0 
7656 5 0.375763 0.385267 0.142939 0 -2 2 
5922 5 0.580235 0.3967 0.130415 1 7 -1 
6542 5 0.423338 0.464442 0.145318 -1 1 -4 
7353 6 0.76449 0.410804 0.151293 0 -4 1 
7546 6 0.362368 0.453006 0.169744 -4 -1 5 
8613 6 0.863596 0.487741 0.138764 -1 -1 -1 
7780 5 0.834999 0.46862 0.115947 0 -5 -2 
6890 5 0.834707 0.490035 0.158628 0 3 4 
5100 6 0.600648 0.541258 0.105159 -1 -2 3 
5802 6 0.821797 0.50014 0.139419 1 -6 6 
7273 6 0.869244 0.540392 0.159622 -1 1 -3 
7479 6 0.212049 0.542214 0.142279 1 0 0 
8406 6 0.21251 0.562222 0.162363 -1 -2 -3 
7286 6 0.737359 0.576735 0.132169 2 -3 -5 
7236 6 0.700605 0.619137 0.145496 -1 1 -6 
8437 5 0.104652 0.574509 0.143706 1 -1 -2 
5433 5 0.243321 0.623574 0.180215 0 -2 -5 
7194 5 0.538938 0.62508 0.138533 -4 0 8 
6590 5 0.7855 0.635245 0.133127 -5 -2 -5 
8917 6 0.522503 0.634697 0.151216 -1 -2 0 
8765 5 0.0829488 0.672882 0.171161 -2 2 -1 
6964 5 0.227119 0.659091 0.141601 4 -3 -5 
7714 5 0.330505 0.65866 0.137829 -1 -1 -4 
5041 6 0.475913 0.699726 0.150515 1 0 2 
7755 5 0.518478 0.682902 0.123868 -2 0 2 
5633 5 0.759904 0.659384 0.10283 -1 -2 -4 
5757 6 0.0909971 0.704808 0.161892 3 0 3 
8416 6 0.321677 0.719257 0.151816 -3 2 0 
5298 5 0.00843599 0.695248 0.149583 0 0 -1 
8621 6 0.0266575 0.71319 0.147128 4 0 -5 
6119 5 0.606613 0.701366 0.132588 -4 -1 0 
7717 5 0.623354 0.677415 0.138396 1 2 2 
6512 6 0.649013 0.744938 0.182943 4 3 -4 
7216 5 0.988748 0.739459 0.16154 1 -1 -4 
8320 6 0.107016 0.747912 0.116713 2 0 2 
7911 6 0.233059 0.771612 0.165309 2 0 4 
8586 5 0.35482 0.83931 0.167747 0 -2 2 
5578 6 0.293138 0.794445 0.105008 -2 4 3 
5703 5 0.659729 0.818806 0.147182 -1 -1 2 
5268 5 0.745914 0.833837 0.175959 -1 -4 0 
7272 5 0.232358 0.827913 0.130369 -1 0 5 
8141 5 0.318493 0.822408 0.149607 -1 0 1 
6029 5 0.477397 0.825344 0.163996 -2 0 4 
7458 6 0.843982 0.839053 0.142491 -3 4 6 
8170 5 0.0338594 0.805427 0.154697 -2 -5 -2 
7533 6 0.0102991 0.888265 0.124718 -3 -2 3 
8706 6 0.024793 0.895271 0.150518 0 -5 2 
6495 5 0.0627896 0.891009 0.134503 -2 -2 4 
7541 6 0.827033 0.888471 0.14589 1 3 4 
5141 5 0.789801 0.997499 0.17238 1 -3 -2 
6017 6 0.529838 0.932333 0.128112 -3 -3 0 
6263 6 0.128877 0.986488 0.145861 -4 1 -1 
6234 6 0.572595 0.965286 0.12746 5 3 -2 
8770 6 0.137957 0.0222086 0.192191 1 -5 3 
7732 5 0.445929 0.014263 0.182613 1 4 1 
7503 6 0.592672 0.0278882 0.18367 1 -1 -2 
6501 5 0.701721 0.0502943 0.206174 6 -2 -3 
8152 5 0.727399 0.0406318 0.197789 -2 0 -1 
5511 6 0.953612 0.0656078 0.209401 -1 0 3 
5750 6 0.0684687 0.0183259 0.155483 -1 1 1 
6534 6 0.100036 0.0225423 0.138847 1 -4 -3 
6170 6 0.131759 0.0783494 0.163616 2 1 2 
5656 5 0.185431 0.120239 0.225381 -3 5 2 
8790 6 0.353328 0.12439 0.156768 2 -4 -3 
7884 5 0.879219 0.119248 0.186637 -4 0 0 
6257 6 0.342121 0.186713 0.161659 2 -4 3 
7224 5 0.659996 0.106953 0.194748 1 4 -2 
5968 6 0.436503 0.154706 0.165263 -6 5 -1 
7104 5 0.653094 0.170622 0.152128 -4 8 0 
5353 6 0.120581 0.186264 0.161342 1 -2 4 
8128 6 0.192355 0.197813 0.176622 -3 0 4 
8662 5 0.56001 0.185554 0.150599 0 1 -2 
7411 6 0.798217 0.178142 0.210003 -8 0 1 
6217 6 0.919107 0.212405 0.120509 -3 4 0 
6233 6 0.299103 0.210207 0.138425 3 -3 -1 
8322 6 0.582473 0.178029 0.204381 3 -5 3 
7118 5 0.860273 0.183585 0.172608 2 4 4 
5562 6 0.165409 0.250409 0.124163 -2 4 -3 
7131 6 0.257529 0.289224 0.154691 5 4 7 
7836 6 0.576729 0.290979 0.170446 0 -2 1 
8598 6 0.246781 0.283828 0.163515 -2 -3 -4 
7375 6 0.607142 0.3426 0.192616 0 -4 -3 
5540 6 0.96004 0.340552 0.174722 0 0 0 
8630 6 0.193175 0.346988 0.206164 4 1 0 
5474 6 0.641099 0.333017 0.159705 1 -3 -3 
6812 5 0.634844 0.376003 0.147373 -1 -3 0 
7673 6 0.772607 0.379103 0.190532 -4 -1 -1 
6926 5 0.199851 0.402502 0.185566 0 -3 1 
5722 5 0.291414 0.401447 0.134164 1 -2 -2 
8892 6 0.147661 0.44166 0.196504 -3 -2 0 
5273 5 0.737744 0.453745 0.191755 0 -7 -1 
6587 5 0.585668 0.471378 0.195967 0 -2 2 
6461 6 0.132248 0.502944 0.130314 -9 -1 -6 
6278 6 0.441698 0.452334 0.169999 4 1 3 
6454 5 0.407447 0.505078 0.180441 -4 5 -2 
5829 6 0.771955 0.525403 0.168173 -3 0 2 
8890 5 0.00287017 0.509378 0.166714 1 0 -1 
8496 5 0.781098 0.53487 0.174767 0 -3 3 
7653 6 0.369422 0.556225 0.180662 -2 0 0 
8298 6 0.935141 0.610467 0.15083 2 -2 2 
7756 5 0.96682 0.579247 0.188297 -4 0 -1 
7480 5 0.0502663 0.585914 0.170704 2 -2 3 
7473 6 0.881575 0.593408 0.155418 -2 -2 -2 
5092 5 0.509541 0.64219 0.177716 2 2 2 
7605 6 0.769649 0.595184 0.179413 -8 -6 -1 
8601 6 0.897618 0.629152 0.175346 -2 -4 3 
8043 5 0.224516 0.669268 0.150631 2 -1 2 
6031 6 0.614481 0.694673 0.190974 5 -2 5 
6140 5 0.225642 0.692281 0.166189 2 2 -2 
6938 6 0.91057 0.699399 0.195296 0 2 -5 
8906 6 0.549325 0.719695 0.126669 -3 -2 4 
6950 5 0.667973 0.773954 0.184451 -1 2 1 
7379 6 0.671756 0.712547 0.187761 3 -5 -4 
7789 5 0.2511 0.765225 0.174139 -4 -1 0 
8472 6 0.29798 0.834498 0.182432 0 -1 -1 
8494 5 0.725357 0.8033 0.188039 6 0 0 
6573 5 0.650591 0.850041 0.176363 -2 5 2 
5282 6 0.750478 0.841532 0.215109 -4 1 4 
6201 6 0.00765714 0.826811 0.178944 2 0 0 
7364 6 0.993587 0.86989 0.10868 3 -2 4 
8930 6 0.0827918 0.865858 0.148383 2 -2 1 
5718 5 0.995098 0.878977 0.170039 -2 -2 0 
5967 6 0.339423 0.926152 0.146269 0 0 -5 
6351 5 0.316115 0.926929 0.180908 -2 5 -1 
6891 5 0.403784 0.904015 0.179293 1 2 2 
7600 6 0.533099 0.919041 0.114454 -2 1 1 
7562 6 0.625683 0.928952 0.118329 -2 -4 4 
7254 6 0.978345 0.978046 0.159268 -2 -3 2 
7973 5 0.020307 0.967533 0.175351 -2 -6 6 
7333 5 0.354134 0.966794 0.182143 1 -1 -2 
5325 5 0.469646 0.0158023 0.168431 -1 -2 -4 
8861 6 0.853633 0.950046 0.180212 -3 1 3 
8714 5 0.159677 0.983437 0.176064 -5 1 -5 
8174 5 0.348407 0.0480952 0.228278 4 3 -1 
6670 6 0.812183 0.0517007 0.194042 -2 2 3 
8363 6 0.937215 0.0964938 0.198534 4 -2 -2 
8997 5 0.597215 0.0836941 0.186067 3 0 -1 
8234 5 0.693917 0.123642 0.172387 1 0 2 
6659 6 0.689413 0.166817 0.172905 -5 1 3 
6738 5 0.982506 0.132 0.187501 -2 0 2 
5628 6 0.436308 0.182178 0.195178 0 2 5 
5264 5 0.579937 0.20871 0.195851 -1 0 -7 
7487 5 0.0292342 0.206744 0.200425 -2 5 -3 
8796 6 0.54034 0.235744 0.186801 -3 2 -1 
5640 5 0.0350452 0.247616 0.217269 -4 -3 2 
7021 5 0.544441 0.273416 0.195679 0 2 2 
8049 6 0.632951 0.223198 0.178668 0 3 4 
6533 5 0.727487 0.265425 0.191823 -5 0 -3 
8530 6 0.913298 0.237099 0.19058 -3 -4 4 
5529 6 0.838942 0.275182 0.20078 0 0 -1 
6451 6 0.192474 0.300709 0.191457 0 -5 4 
7041 6 0.408905 0.279516 0.216119 -1 -5 4 
6120 5 0.59477 0.275774 0.198148 -1 0 -1 
5463 6 0.634147 0.249295 0.185232 3 -6 3 
8451 6 0.931889 0.287955 0.184922 -3 1 -3 
7795 5 0.678329 0.259266 0.198488 3 1 -1 
6277 5 0.81574 0.31845 0.192675 -3 -6 0 
7142 5 0.566208 0.341182 0.210037 -4 1 -2 
7413 5 0.896064 0.305151 0.200897 0 -2 -4 
6472 5 0.335686 0.380109 0.199918 -1 1 -4 
5487 6 0.596701 0.379945 0.169648 2 3 0 
6956 6 0.909679 0.392604 0.197459 -2 2 6 
5337 6 0.146062 0.405665 0.20411 -3 2 -3 
8348 5 0.146051 0.449638 0.174681 1 0 3 
8996 6 0.243403 0.467081 0.203392 1 1 -3 
8704 5 0.533684 0.486001 0.231289 -1 2 0 
8362 6 0.660181 0.520587 0.206182 2 6 6 
5011 6 0.803821 0.474855 0.183619 1 1 -2 
5783 6 0.22375 0.499376 0.182286 -6 3 -4 
7625 6 0.0441129 0.533213 0.183239 5 -3 3 
7976 6 0.751874 0.52945 0.148717 1 3 1 
5458 6 0.490088 0.563664 0.222282 1 6 -5 
5519 6 0.769372 0.595152 0.208451 0 0 0 
8614 6 0.979729 0.613946 0.176422 -2 -1 0 
5490 5 0.632268 0.628294 0.218035 -1 -6 5 
7241 6 0.0293948 0.638634 0.206014 2 2 -1 
6145 6 0.0502587 0.666085 0.166388 -1 2 -1 
5749 6 0.822568 0.626088 0.193301 -5 -4 0 
5486 6 0.0146938 0.715167 0.174081 4 4 3 
6112 5 0.78612 0.683974 0.203639 4 0 0 
6079 6 0.838204 0.698773 0.172185 -1 -2 -1 
7974 6 0.164429 0.745723 0.182183 -1 3 -2 
8637 5 0.861741 0.782284 0.191661 2 -2 -1 
5421 6 0.454136 0.700502 0.176734 -4 2 3 
8008 6 0.906181 0.747649 0.225103 1 -2 -1 
6561 5 0.600595 0.810979 0.20162 4 -1 0 
5394 6 0.820535 0.757437 0.171161 -1 3 2 
6949 6 0.200792 0.799988 0.188854 3 2 0 
6359 6 0.717098 0.826732 0.185451 3 -4 1 