ITEM: TIMESTEP
20000000
ITEM: NUMBER OF ATOMS
9000
ITEM: BOX BOUNDS pp pp pp
-75 75
-75 75
-75 75
ITEM: ATOMS id type xs ys zs ix iy iz 
8466 5 0.420219 0.0569492 0.987037 -3 0 -3 
6488 6 0.873462 0.0488341 0.00647208 3 3 3 
8889 5 0.848202 0.0563508 0.0209227 -3 1 -1 
6430 5 0.183014 0.0830572 0.00272807 4 -3 1 
8285 5 0.22378 0.0615107 0.020222 2 -1 3 
6966 5 0.632047 0.0859613 0.00621035 5 2 0 
5019 5 0.42934 0.116199 0.999224 -4 5 -2 
8383 5 0.396026 0.131505 0.0357734 1 1 1 
5401 6 0.936996 0.0913501 0.00801255 -3 -3 2 
7082 5 0.584253 0.136047 0.0138413 1 1 -7 
8003 5 0.321349 0.156487 0.986174 5 6 2 
7429 6 0.95037 0.155718 0.98302 3 4 -5 
7983 6 0.0521605 0.153429 0.0148866 3 -1 4 
7509 6 0.391647 0.199154 0.00177637 1 -3 4 
6372 5 0.455987 0.230619 0.00074779 1 4 -1 
7226 5 0.00323483 0.271177 0.0169632 0 3 2 
6839 6 0.261029 0.283227 0.988454 4 -3 -1 
6298 5 0.621435 0.291985 0.0615497 -1 1 4 
5861 5 0.908956 0.307583 0.0186491 3 2 -1 
8010 6 0.238996 0.349686 0.0259587 3 1 4 
6838 6 0.85399 0.318049 0.0353363 3 -1 -1 
5043 6 0.889179 0.340442 0.990223 0 -1 -2 
8705 5 0.893209 0.35987 0.0255684 -1 2 -2 
8180 5 0.107426 0.330037 0.0285388 -5 1 3 
5711 5 0.355968 0.364622 0.994545 0 1 1 
5563 5 0.715174 0.389468 0.00678778 2 0 0 
6042 5 0.807858 0.348785 0.972077 2 0 -3 
7735 6 0.840333 0.377455 0.98723 -8 1 -3 
7270 5 0.866341 0.406637 0.0105151 -1 -3 3 
6938 5 0.48888 0.389833 0.00658123 1 1 5 
8102 5 0.227389 0.403708 0.0169304 -4 5 -3 
5392 6 0.632547 0.402717 0.994249 5 2 2 
5874 6 0.637799 0.415658 0.980007 0 -2 1 
7605 5 0.818386 0.423341 0.0155622 3 -3 -1 
8183 5 0.886331 0.387575 0.943601 0 -2 -2 
6653 6 0.315338 0.461654 0.963563 5 1 1 
6481 5 0.331508 0.423484 0.016038 -5 1 0 
5346 6 0.52969 0.464426 0.0219242 -3 0 0 
7076 5 0.527447 0.462057 0.99873 1 -4 -1 
8109 6 0.666299 0.507746 0.025526 1 3 2 
8673 6 0.0997897 0.456402 0.0357516 2 2 -3 
5082 5 0.14145 0.488555 0.994604 6 -2 1 
7798 5 0.611877 0.523313 0.00589604 6 -4 1 
6792 6 0.633734 0.526947 0.0310461 -1 -6 4 
8292 5 0.733395 0.510911 0.984465 2 4 1 
8976 6 0.809649 0.530002 0.0194428 2 0 -1 
6772 6 0.0427783 0.554003 0.00883427 2 -3 1 
5051 6 0.0818356 0.51251 1.00037 3 1 0 
6951 5 0.474945 0.477538 0.0297511 0 4 1 
7932 5 0.177702 0.575589 0.0148825 0 -1 4 
5441 5 0.335902 0.579502 0.986674 0 -2 -2 
8023 5 0.701802 0.562656 0.00929758 6 -1 -3 
7964 6 0.426949 0.636291 0.0152368 1 0 1 
5426 5 0.389812 0.653481 0.997802 -1 -3 1 
8823 5 0.483026 0.661707 0.992741 -2 2 0 
5898 5 0.522769 0.630959 0.00545687 -4 -2 -3 
8121 5 0.570345 0.638858 0.0520455 -4 1 -2 
6350 6 0.0168182 0.674425 0.0550417 -2 -3 -2 
6256 5 0.128138 0.68845 0.00608818 3 -1 -1 
7988 5 0.409616 0.675221 0.999705 -6 1 0 
8765 6 0.805067 0.689883 0.0327222 -4 -1 2 
5028 6 0.871251 0.71425 0.0227113 -2 1 2 
6957 5 0.340326 0.703292 0.0275525 5 -5 1 
6648 5 0.456143 0.702933 0.987226 4 -1 1 
8602 5 0.489881 0.694558 0.0604145 -4 3 -1 
7483 6 0.996679 0.718436 0.998205 -1 -2 1 
7454 5 0.290965 0.738371 0.00652525 -1 -2 -5 
6566 6 0.374935 0.713759 0.0399775 2 -5 5 
8914 5 0.51616 0.743676 0.0202673 -4 -1 -1 
8867 5 0.624383 0.762167 0.00605277 3 -2 1 
8145 5 0.772817 0.684772 0.00338592 6 0 -1 
7439 6 0.820744 0.71377 0.0205873 -5 -6 0 
5056 6 0.886267 0.710184 0.0319786 6 -2 -2 
7291 5 0.0955036 0.728592 0.0236377 2 7 1 
6474 6 0.0545435 0.751357 0.0829053 3 -1 2 
7895 6 0.180366 0.746096 0.960106 2 4 2 
7899 5 0.595914 0.713044 0.0140298 2 0 -3 
7119 5 0.490348 0.773563 0.0292484 2 -2 -4 
7220 5 0.0819647 0.824247 0.0124971 -2 5 -2 
6494 6 0.0855426 0.771489 0.000456606 2 2 -4 
7993 5 0.182939 0.888919 0.0168481 -1 -3 -5 
8108 6 0.260515 0.8133 0.0153856 0 0 0 
5558 6 0.337875 0.870332 0.0300137 1 -1 -1 
5701 5 0.0190761 0.894164 0.0313429 0 -5 2 
6297 6 0.366785 0.893079 0.990234 0 3 3 
5873 6 0.492141 0.904366 0.0315599 4 -4 3 
6596 5 0.797708 0.871759 0.000550238 0 -2 2 
6967 5 0.0695653 0.885657 0.0475868 4 -2 -1 
6741 5 0.0782311 0.87529 0.0206174 -1 -1 2 
7093 6 0.133435 0.870912 0.972642 2 3 0 
8271 5 0.0183911 0.937879 0.0156433 1 1 0 
5205 6 0.03623 0.889916 0.0157134 -3 -2 0 
5215 5 0.21844 0.916832 0.0155278 6 -2 2 
7127 5 0.138248 0.942474 0.0337729 -2 1 -4 
6766 6 0.153451 0.944616 0.0140699 0 -2 3 
7029 6 0.26511 0.950716 0.037774 8 0 5 
7022 6 0.543446 0.942103 0.99884 -2 -4 -3 
5545 5 0.690064 0.953544 0.0278193 2 2 -3 
6054 5 0.391823 0.952812 0.0403027 0 2 -2 
8006 5 0.710749 0.00783468 0.0146316 0 4 -6 
7560 5 0.792084 0.984483 0.00365151 2 -3 -2 
5879 6 0.96856 0.96378 0.974242 0 -1 0 
6621 6 0.980881 0.985645 0.0262687 -8 -3 1 
5059 6 0.403018 0.0153541 0.0436643 3 2 2 
5914 5 0.801781 0.0130759 0.0778891 6 3 -2 
5852 5 0.864332 0.0134186 0.0173777 -5 0 -2 
7600 6 0.637369 0.0327916 0.023162 3 1 -3 
7847 5 0.127203 0.105222 0.0243229 7 -7 0 
6258 5 0.484968 0.100604 0.0634187 1 0 4 
5247 5 0.693459 0.136213 0.0561314 -3 2 1 
6138 6 0.950496 0.17038 0.0362486 -1 3 -5 
5045 5 0.0268117 0.150998 0.0332346 -5 -3 2 
7468 6 0.0342545 0.192386 0.0450851 -2 3 4 
7467 5 0.141992 0.202525 0.0432224 4 -1 -3 
8414 6 0.458938 0.207352 0.053742 -3 1 5 
5243 5 0.755144 0.209897 0.0396038 1 0 2 
7508 5 0.309943 0.251354 0.0437845 -2 -1 1 
5451 6 0.816533 0.244504 0.0471842 -5 -3 2 
8617 6 0.961062 0.253655 0.0632774 1 0 1 
6157 5 0.141297 0.242806 0.0455179 -3 -3 4 
6201 6 0.193463 0.27678 0.00642429 -4 0 0 
6656 5 0.909057 0.237286 0.0124003 0 1 1 
6555 6 0.150308 0.288329 0.0569746 -3 0 0 
7900 6 0.509167 0.272108 0.0400901 3 -2 0 
6645 5 0.659117 0.287373 0.0274288 5 7 5 
8569 6 0.133402 0.333026 0.0347022 4 -1 5 
5372 5 0.233833 0.312672 0.0193094 3 0 2 
8408 6 0.821161 0.317899 0.0115715 -3 1 4 
8051 5 0.859866 0.325952 0.0599156 2 1 -3 
5593 6 0.160786 0.3714 0.0579088 -1 -3 3 
8590 6 0.490718 0.356956 0.0331198 0 -2 -2 
6127 6 0.267146 0.329283 0.0660024 -2 4 5 
6403 6 0.636184 0.378975 0.0512766 0 -6 -3 
5985 6 0.814282 0.394912 0.0527801 0 3 -2 
6999 5 0.172802 0.471148 0.0212679 1 0 -2 
8286 6 0.370569 0.474012 0.0397964 2 0 3 
5890 6 0.304595 0.456668 0.0690031 1 0 -1 
6696 5 0.168225 0.482144 0.0417898 0 4 4 
6949 6 0.19626 0.510544 0.0411174 -1 -3 3 
7746 5 0.400878 0.519601 0.0453252 2 0 -1 
5983 5 0.637283 0.475644 0.994577 -2 -4 1 
6150 5 0.848792 0.510973 0.997568 5 -2 -1 
8227 6 0.163125 0.521607 0.0190433 -4 0 4 
8248 6 0.499308 0.51537 0.00100805 0 0 5 
8328 6 0.351303 0.555441 0.0270728 2 -1 7 
8675 6 0.54621 0.560359 0.0287857 1 0 -1 
5018 6 0.434396 0.583481 0.0340531 3 -1 -1 
6246 6 0.793244 0.624251 0.026904 1 -1 4 
5543 6 0.550241 0.632327 0.0346176 4 -1 -1 
5379 6 0.832892 0.640255 0.0490567 -1 2 4 
6852 5 0.258979 0.648782 0.00447576 3 -1 1 
6680 5 0.558591 0.662417 0.0297353 6 3 1 
5774 5 0.150877 0.671921 0.0175002 0 0 1 
5021 6 0.0085242 0.669426 0.0394184 1 -2 5 
7854 5 0.208098 0.746871 0.0111411 -3 -2 6 
8397 6 0.291361 0.741448 0.0158062 -1 6 -2 
8514 6 0.358565 0.7417 0.0535221 -1 -3 -2 
7906 6 0.591127 0.719738 0.0822698 7 -6 2 
5072 6 0.624832 0.741522 0.000675033 -1 5 -1 
5798 6 0.0783397 0.729178 0.051873 5 -1 -2 
5805 5 0.640722 0.806456 0.0299994 -5 8 0 
6239 6 0.776787 0.772581 0.0368547 1 2 -1 
6890 6 0.257 0.848332 0.0344489 4 -2 3 
8548 5 0.053433 0.877106 0.0390933 2 -1 -2 
8904 5 0.0776946 0.879874 0.0702219 0 -2 8 
5702 5 0.344242 0.863681 0.0312552 -1 -1 -2 
7225 5 0.643035 0.903167 0.0197901 -1 -2 -1 
8676 6 0.720085 0.858313 0.00112785 6 0 -2 
6377 5 0.352993 0.876489 0.0606315 -3 0 -2 
8511 6 0.361878 0.891492 0.0334189 0 0 -1 
5588 6 0.875235 0.86619 0.00167843 1 -3 -5 
8838 6 0.999068 0.895441 0.992886 -3 0 0 
8334 5 0.146628 0.90815 0.0574771 7 1 1 
8882 6 0.270189 0.893287 0.0350374 0 0 -1 
6724 5 0.44731 0.948365 0.0507781 3 -1 0 
5123 6 0.778195 0.975808 0.0330636 0 -3 0 
5675 5 0.482691 0.917459 0.0493317 1 1 1 
8043 6 0.513034 0.991578 0.0562273 -1 2 1 
7147 6 0.601154 0.941249 0.00725846 3 -4 1 
7521 5 0.471503 0.969038 0.999844 -1 -3 2 
7793 5 0.234819 0.0102349 0.0813535 2 -4 4 
8067 6 0.651905 0.99715 0.0697727 -1 1 1 
6710 5 0.823378 0.0180021 0.0721305 0 1 2 
5052 5 0.981922 0.00400047 0.0844394 0 -3 -2 
5923 5 0.719229 0.0480573 0.0578163 0 -3 -5 
6956 5 0.808209 0.0323471 0.0461578 -3 0 0 
8355 5 0.0738731 0.0622302 0.0496439 -1 3 1 
5118 6 0.214046 0.0551575 0.0671696 0 -6 2 
7186 6 0.376397 0.0481667 0.0523351 -2 3 -1 
8455 6 0.915602 0.0487338 0.0646195 2 2 -3 
7036 5 0.0959824 0.0964464 0.0264917 0 -4 4 
8853 6 0.978871 0.0693216 0.0216921 -1 -1 2 
8939 5 0.193058 0.086735 0.0408796 2 2 3 
5128 5 0.579863 0.0813559 0.0288894 1 -4 6 
7649 6 0.624857 0.085488 0.0520389 -3 1 1 
6881 6 0.553059 0.1337 0.0374422 2 2 8 
7388 5 0.312364 0.155937 0.0756836 -4 -1 3 
8984 5 0.607244 0.166906 0.0474429 -5 2 1 
5022 5 0.452741 0.165883 0.065129 1 1 1 
6382 5 0.81872 0.167618 0.0610865 -2 3 0 
6666 6 0.767592 0.210131 0.0733003 1 2 1 
5206 5 0.978048 0.198048 0.994883 0 -3 -4 
8841 6 0.949523 0.198304 0.118965 -2 -2 -5 
6186 6 0.989438 0.252656 0.0811699 1 -2 2 
8909 5 0.467468 0.240272 0.0138233 3 -4 -2 
8128 6 0.837681 0.221805 0.0357238 -1 3 -2 
5966 5 0.578725 0.275084 0.00962622 1 -2 -1 
6895 6 0.749594 0.295344 0.064132 0 6 2 
6118 6 0.840916 0.317042 0.063843 2 -1 4 
5400 6 0.200339 0.317773 0.0513355 0 -1 5 
7556 5 0.48424 0.314396 0.0787108 -2 0 0 
5589 5 0.0368488 0.30346 0.0818511 3 0 1 
8340 5 0.614728 0.337174 0.0324886 -2 2 -4 
6512 5 0.248903 0.384445 0.0554117 3 2 -1 
8567 6 0.533524 0.367762 0.0377676 3 -1 3 
8138 6 0.0426819 0.408793 0.0541299 1 1 4 
8951 5 0.208435 0.390427 0.0766291 3 -3 2 
7939 5 0.684882 0.457256 0.0559387 0 -1 2 
8938 6 0.244332 0.452217 0.0418878 -2 -3 9 
7038 5 0.266902 0.447087 0.0666867 0 3 2 
6780 5 0.559348 0.423402 0.0498653 0 0 2 
8268 6 0.624277 0.442247 0.0824351 2 -5 1 
8446 6 0.766008 0.496379 0.100156 0 4 3 
5263 5 0.345933 0.514351 0.0786903 1 -4 3 
5140 6 0.791146 0.495404 -0.000821607 -1 1 0 
8234 6 0.426557 0.529684 0.0874659 4 -2 4 
5946 5 0.348007 0.502576 0.0411012 0 3 -2 
7527 5 0.400819 0.514423 0.024583 -3 -1 3 
6124 6 0.478193 0.552971 0.0653061 -3 -1 4 
7843 6 0.0551348 0.573337 0.0753788 4 -5 1 
8430 5 0.863117 0.555907 0.0793154 0 0 0 
7265 5 0.543166 0.614969 0.0652568 -2 4 6 
5918 6 0.927442 0.617971 0.0616114 3 -2 3 
6252 6 0.425815 0.624045 0.0748899 -4 2 -3 
7941 5 0.828382 0.614095 0.0669075 1 3 3 
5100 5 0.880368 0.624398 0.0318773 1 -6 -1 
6560 5 0.929498 0.629059 0.0633795 -1 -6 5 
8390 6 0.252145 0.680485 0.0561759 1 -3 4 
7660 5 0.268184 0.653455 0.0304256 -5 -1 2 
6323 6 0.327232 0.648408 0.112125 -4 3 1 
6303 5 0.668878 0.705265 0.0611292 2 1 -2 
8215 5 0.799922 0.649346 0.00577103 6 -1 0 
7312 6 0.204064 0.707187 0.0845025 0 1 1 
5127 5 0.215923 0.749702 0.0602908 -1 -2 -3 
7331 6 0.710442 0.784638 0.0400364 -2 0 -4 
6847 5 0.772469 0.787473 0.0724577 0 -5 1 
8633 5 0.727145 0.837963 0.0698789 1 1 -4 
6270 6 0.434028 0.811488 0.0331835 -3 -1 -1 
8460 6 0.569388 0.814034 0.0501852 2 0 0 
8078 6 0.695168 0.878699 0.0127175 2 -4 -1 
5776 6 0.0176608 0.842775 0.0322425 1 -6 1 
8644 5 0.0596553 0.864268 0.0669282 1 -1 7 
7577 6 0.365179 0.888638 0.0543646 2 -5 -1 
7323 5 0.374986 0.89784 0.0530523 -3 1 5 
6029 5 0.721257 0.889981 0.0421328 2 5 -5 
5356 6 0.971537 0.901416 0.0310813 -3 3 1 
6932 5 0.029876 0.971289 0.0498429 -3 0 -2 
6022 6 0.121667 0.94777 0.028989 0 0 1 
6178 6 0.865336 0.942352 0.0363568 -6 -2 -1 
8626 5 0.582818 0.966627 0.090424 2 -2 1 
7188 5 0.165241 0.989039 0.0944025 0 7 -2 
8315 6 0.613932 0.0135517 0.0309147 -1 2 -3 
5843 6 0.0231617 0.0226448 0.121709 0 -1 -2 
5551 6 0.208046 0.999121 0.0876673 2 1 6 
6602 6 0.446435 0.969736 0.0719412 1 5 1 
7230 5 0.166646 0.0617451 0.0653122 -4 -2 -1 
7071 5 0.445571 0.0597401 0.0642627 -4 -1 1 
7426 5 0.680655 0.00615273 0.0927734 5 0 0 
5729 5 0.393288 0.0852605 0.041342 6 6 -1 
5296 6 0.434492 0.0463129 0.0551194 1 3 3 
5433 6 0.313722 0.0613439 0.0540649 -4 -1 5 
6108 6 0.642362 0.101659 0.0923102 0 2 -1 
6259 5 0.491601 0.0811618 0.0926813 0 7 1 
7785 6 0.965252 0.106572 0.0791918 -1 1 -2 
8251 5 0.118468 0.126176 0.113755 -3 1 1 
7419 5 0.529047 0.125041 0.0546923 4 4 0 
8916 5 0.366389 0.148143 0.0833443 3 -5 -1 
5585 5 0.672057 0.174241 0.0931918 -1 -2 3 
7339 6 0.727868 0.202389 0.114639 -1 0 7 
7759 6 0.885991 0.211415 0.0328788 -3 -4 -4 
7167 5 0.450962 0.272456 0.0861242 3 2 3 
8746 6 0.356804 0.260789 0.096757 -4 2 4 
5743 5 0.617556 0.247944 0.0560511 -5 2 -6 
8631 5 0.114704 0.275563 0.0799294 -1 2 1 
5700 6 0.46443 0.248938 0.0781741 -1 2 -2 
8503 6 0.71529 0.333579 0.0453438 5 -2 2 
7182 5 0.120886 0.306437 0.0508328 4 -1 2 
7357 6 0.0300528 0.314751 0.0789322 1 -4 -4 
5900 5 0.926253 0.354242 0.0781417 4 -2 -1 
5604 5 0.935461 0.355468 0.0759684 -1 -1 -2 
6723 6 0.236464 0.339805 0.0321267 0 0 1 
7262 6 0.387196 0.358347 0.0653395 0 -4 -1 
7875 6 0.707352 0.359883 0.0580486 -2 -2 -1 
6455 5 0.818393 0.342359 0.125517 -1 -1 1 
5212 5 0.397339 0.370663 0.0694851 4 -2 -1 
6801 6 0.654534 0.412611 0.0902466 -3 6 -1 
8615 5 0.676761 0.400695 0.0704998 1 1 -3 
5203 5 0.899573 0.36605 0.0544728 2 0 2 
6389 6 0.831976 0.426545 0.0861082 -2 -1 0 
8205 5 0.230057 0.47292 0.0800442 -2 -1 2 
7341 6 0.633403 0.456076 0.109508 6 -2 -2 
7174 5 0.632093 0.502293 0.0797928 1 3 4 
8968 5 0.831999 0.523703 0.0514294 -5 -5 3 
8329 5 0.554764 0.517517 0.078954 1 -1 2 
6144 6 0.329921 0.564871 0.0750025 -1 2 3 
8437 6 0.178401 0.621202 0.0883069 -3 -8 0 
8399 6 0.396337 0.584601 0.04637 -1 -1 0 
8161 5 0.678433 0.525854 0.0763391 5 2 0 
6508 6 0.209911 0.544675 0.102777 -1 4 -2 
6896 6 0.392553 0.610693 0.0788248 -1 1 2 
5376 5 0.0811398 0.635939 0.113981 0 -3 2 
5248 6 0.290094 0.644675 0.0946093 -2 -1 4 
8954 6 0.370506 0.621156 0.0789172 3 -5 -1 
5061 6 0.510983 0.639932 0.114013 0 0 -2 
6219 6 0.694324 0.664567 0.0893466 -3 3 0 
7585 5 0.399858 0.665752 0.0969028 3 0 0 
8887 5 0.580726 0.706568 0.0864283 0 -4 -2 
7947 5 0.774878 0.661071 0.0932452 0 -2 -1 
7371 6 0.0183237 0.689243 0.040641 3 8 -1 
7440 6 0.255382 0.701957 0.0490601 -8 -3 4 
7343 6 0.304954 0.718356 0.111101 -2 -2 -3 
7916 5 0.328274 0.723505 0.0901731 -2 -2 2 
5796 5 0.564295 0.690305 0.0678641 0 5 -1 
6714 6 0.761178 0.740111 0.051455 0 1 1 
8449 6 0.0733829 0.756862 0.0843878 -1 3 0 
7580 5 0.284256 0.727835 0.0979865 -3 -4 -2 
7607 5 0.438069 0.72772 0.0682577 0 -3 1 
8782 5 0.847725 0.740467 0.0838102 -3 0 -1 
5775 6 0.156672 0.728339 0.0675437 0 -1 -3 
7614 6 0.260247 0.804821 0.0857224 3 0 1 
5007 6 0.938433 0.771787 0.0772133 -1 -5 1 
8489 5 0.0783979 0.801487 0.0564438 -6 -1 2 
7054 5 0.368539 0.876478 0.114049 5 2 5 
5354 6 0.430903 0.817977 0.0780857 -4 1 3 
6380 6 0.466787 0.824132 0.0762269 2 2 4 
5396 6 0.850745 0.83258 0.0483285 0 -2 2 
8482 6 0.910188 0.815551 0.0838598 -1 0 3 
5165 6 0.148808 0.890196 0.0660554 0 3 -2 
6094 5 0.169625 0.830728 0.109185 -1 1 1 
8195 5 0.736091 0.878645 0.0981359 1 -2 1 
6410 6 0.868349 0.858107 0.14297 -4 2 2 
5883 5 0.64725 0.89311 0.0744274 3 1 4 
5027 5 0.964026 0.877548 0.0889472 -1 -4 1 
5591 6 0.014 0.916319 0.0486716 1 3 -1 
8476 5 0.0705358 0.986783 0.101357 -5 -1 0 
6891 5 0.205597 0.0105825 0.115348 3 3 -2 
8464 5 0.260485 0.962819 0.0209733 3 -2 -1 
5750 5 0.957277 0.00157744 0.0734832 1 2 -3 
7816 6 0.433861 0.030309 0.0715971 -6 -3 -2 
5574 6 0.801089 0.0373437 0.0897873 -1 -2 6 
6384 6 0.897818 0.0381956 0.0866653 1 2 1 
5794 5 0.464865 0.0295476 0.0783481 -1 1 -3 
7012 6 0.248301 0.0443524 0.109177 1 1 4 
6367 6 0.764969 0.0526125 0.0693866 -1 4 6 
6531 5 0.309263 0.114825 0.122156 -2 3 0 
8749 5 0.514263 0.0620561 0.0786495 -1 -3 2 
5652 5 0.993116 0.108868 0.102474 0 2 3 
5329 6 0.419573 0.148508 0.109727 0 2 -2 
6053 5 0.662249 0.112332 0.084359 0 3 -2 
8350 6 0.122693 0.152867 0.106259 3 1 -2 
5066 5 0.939825 0.182682 0.119188 3 -1 -2 
5897 5 0.746228 0.157323 0.118068 -5 -2 1 
5559 6 0.0804888 0.206967 0.0862471 4 0 4 
6139 6 0.0683522 0.242689 0.0906086 2 -2 8 
5207 6 0.116122 0.226733 0.104553 0 3 4 
7688 6 0.0228989 0.261354 0.0573721 5 -1 -2 
7933 6 0.401075 0.31834 0.116297 1 -3 9 
8898 6 0.563371 0.244972 0.106467 0 -3 3 
8398 6 0.829403 0.296001 0.0916054 -1 1 -4 
5625 5 0.618403 0.323697 0.10752 2 5 2 
6522 5 0.167027 0.324639 0.0910588 -5 -3 -1 
5009 5 0.564255 0.394668 0.136425 -3 1 -2 
6620 5 0.332706 0.384543 0.081991 -2 1 1 
7828 5 0.486111 0.449711 0.112571 2 -3 3 
6207 6 0.616801 0.413486 0.093262 0 -3 4 
7185 5 0.88993 0.462686 0.106106 -6 -2 -1 
6523 5 0.938859 0.453438 0.0627414 1 1 -2 
7101 5 0.958896 0.426965 0.0794602 -3 2 -1 
8672 6 0.0743897 0.448507 0.0944564 1 0 -2 
5347 6 0.211569 0.451279 0.0718462 0 0 2 
8670 5 0.395464 0.451014 0.109894 4 1 2 
6711 6 0.584234 0.430029 0.0904867 5 0 -1 
7542 5 0.408662 0.474923 0.116141 2 -1 1 
8704 6 0.640054 0.537123 0.116376 3 4 3 
5218 6 0.908081 0.508633 0.118665 -1 0 1 
7190 6 0.911397 0.55569 0.0894888 -5 3 -3 
6165 6 0.108061 0.551253 0.120204 5 -2 0 
7587 6 0.618741 0.583571 0.0735823 1 1 -3 
6021 5 0.831453 0.550374 0.127507 0 -3 5 
6056 5 0.489839 0.592057 0.0866372 1 0 0 
5859 6 0.860414 0.578388 0.111395 -5 3 0 
7261 6 0.94076 0.588497 0.130607 4 -3 2 
6098 5 0.445105 0.625991 0.112329 -1 0 0 
7327 6 0.93605 0.593677 0.0937206 0 1 0 
6614 5 0.495395 0.636017 0.0606091 1 -3 1 
5271 5 0.114026 0.654465 0.103055 0 -2 0 
7422 6 0.684686 0.637462 0.0958576 1 2 -1 
8997 6 0.524867 0.654603 0.0902485 -4 0 -1 
6913 5 0.874775 0.661139 0.105392 3 -1 -4 
7428 6 0.949535 0.658116 0.0968918 1 1 0 
6524 6 0.897899 0.732079 0.146856 -2 1 -2 
7953 5 0.951953 0.775656 0.0773372 1 -2 -2 
6795 6 0.867502 0.840942 0.122156 1 -2 0 
7613 5 0.549321 0.850416 0.105571 1 2 3 
7937 5 0.711765 0.846603 0.0739563 -3 2 2 
5223 6 0.249724 0.844632 0.113222 -1 3 -2 
6467 5 0.439376 0.877222 0.109604 1 2 0 
8445 5 0.841669 0.916228 0.140017 -1 7 5 
5644 6 0.841481 0.926123 0.115898 5 -7 -3 
5374 6 0.0484461 0.926042 0.0635748 4 -1 0 
8211 5 0.640893 0.948167 0.0886928 -5 -1 2 
7264 5 0.698013 0.973657 0.112006 2 -1 1 
7519 6 0.828501 0.912044 0.0755748 2 -6 0 
7821 6 0.931991 0.952694 0.0683048 0 1 -2 
7248 5 0.210899 0.0271859 0.136906 6 2 4 
8643 6 0.108419 0.133377 0.0825955 3 0 2 
8371 5 0.355834 0.0547906 0.155798 -4 4 -1 
7550 6 0.173441 0.106574 0.150553 2 2 3 
7349 5 0.817467 0.118022 0.0891152 3 1 2 
7150 5 0.797995 0.180338 0.127683 -1 1 0 
5708 5 0.210178 0.240555 0.0768384 1 3 1 
6449 5 0.875986 0.167515 0.13305 -3 0 6 
6694 5 0.623451 0.233233 0.115991 -1 0 0 
8663 5 0.471898 0.241792 0.117882 -4 1 -6 
7721 6 0.956065 0.282973 0.181338 -3 -5 5 
8873 6 0.751511 0.241478 0.0929693 2 -1 6 
8141 6 0.3247 0.281952 0.143086 -2 0 1 
8031 5 0.775224 0.301716 0.138213 -1 2 -1 
8021 5 0.839859 0.315173 0.112156 -1 5 2 
7289 6 0.262904 0.301968 0.132396 2 1 -2 
7068 6 0.245853 0.339873 0.0976928 3 3 3 
7858 5 0.304313 0.35046 0.129755 -2 -1 -2 
8403 6 0.0335551 0.354647 0.14218 -3 -4 1 
7124 6 0.478709 0.345812 0.118967 -1 2 -2 
8619 6 0.205077 0.352212 0.145203 4 2 2 
8131 5 0.440427 0.379859 0.154495 0 3 1 
7478 5 0.202517 0.415145 0.106468 4 0 -1 
6273 6 0.593583 0.421214 0.110226 -2 -3 1 
8761 6 0.899308 0.405262 0.152329 -2 2 0 
6603 5 0.12262 0.39561 0.143072 -3 -3 1 
6096 5 0.230915 0.415563 0.082076 0 5 1 
7935 6 0.531684 0.373958 0.141605 -1 -4 -2 
7930 6 0.426709 0.471715 0.16027 6 -2 0 
8302 6 0.229074 0.489835 0.138102 2 0 -2 
8283 5 0.275874 0.501752 0.129442 -4 -4 -2 
7774 5 0.688929 0.501358 0.11825 -3 4 3 
8560 6 0.91632 0.486253 0.11731 -1 -1 1 
6109 5 0.764382 0.508889 0.125165 0 -1 -3 
6924 6 0.933669 0.537772 0.135837 -3 -1 -4 
6849 6 0.539906 0.547652 0.129038 -3 -2 -5 
8606 6 0.12449 0.539124 0.131638 -3 0 0 
6869 6 0.168449 0.526717 0.14045 2 1 4 
8173 5 0.229291 0.570685 0.131596 3 -1 2 
6361 6 0.860666 0.593109 0.133822 0 6 3 
5187 5 0.704635 0.598287 0.119925 3 2 -3 
8140 5 0.997494 0.653457 0.127423 0 -2 -2 
7412 5 0.45993 0.641203 0.132256 -3 4 4 
6844 5 0.975894 0.647554 0.134975 1 -3 0 
7528 6 0.142588 0.694369 0.167355 -3 2 -1 
8115 6 0.0223339 0.71322 0.148987 -1 0 5 
7197 5 0.0196623 0.719834 0.166309 0 2 3 
6809 5 0.0984873 0.75542 0.116984 -4 -2 -1 
7618 6 0.259823 0.756659 0.173178 0 -1 7 
8199 6 0.358651 0.863173 0.138835 1 -3 -5 
5828 6 0.86464 0.79422 0.15397 1 -2 3 
8572 5 0.364522 0.829001 0.121486 -1 2 3 
8677 6 0.486875 0.830623 0.099949 4 -2 -1 
6979 6 0.981934 0.855006 0.129424 0 -2 0 
8778 6 0.142662 0.880637 0.109657 1 -1 -1 
6416 6 0.294522 0.859206 0.163002 1 -3 -2 
6870 5 0.913103 0.826525 0.110869 3 -2 1 
6985 5 0.656916 0.885317 0.140231 2 2 4 
6897 6 0.855407 0.908448 0.123887 -5 4 3 
8687 5 0.136281 0.933749 0.0734461 -4 5 -3 
5239 6 0.913308 0.904864 0.136308 -3 -2 0 
7087 5 0.935809 0.896776 0.119583 -4 -6 -6 
8146 6 0.366204 0.940763 0.113613 1 2 1 
7404 5 0.758215 0.0197435 0.128351 -3 1 0 
6660 5 0.94232 0.978762 0.0960814 -2 2 -1 
8305 6 0.0239095 0.996596 0.0872453 -6 2 7 
5952 6 0.0668523 0.995431 0.105987 1 1 -2 
6307 5 0.263927 0.998001 0.14265 1 -2 8 
8719 5 0.0711426 0.0715603 0.148166 0 -2 -1 
8912 6 0.16938 0.0421759 0.114978 -4 4 1 
6393 6 0.556247 0.107187 0.16258 -3 5 -1 
6773 6 0.786727 0.0380841 0.196281 3 2 3 
5334 5 0.785271 0.0593207 0.159976 -1 0 -1 
6958 6 0.636116 0.0543411 0.145185 0 -2 2 
8232 6 0.0591902 0.07303 0.173732 -3 2 -2 
5627 5 0.742809 0.134419 0.150698 0 -3 -1 
5382 6 0.655645 0.140593 0.170527 0 0 2 
6326 6 0.815775 0.178487 0.104554 0 1 2 
7236 5 0.00611701 0.182448 0.162026 2 3 6 
7940 6 0.193584 0.173976 0.150247 -9 3 -4 
8758 6 0.994996 0.207772 0.159487 0 -4 1 
5834 5 0.388047 0.183623 0.144266 6 3 -1 
6128 6 0.52083 0.215794 0.16859 -3 -4 5 
8483 6 0.895452 0.149584 0.119966 0 3 1 
5285 6 0.0639283 0.211705 0.142316 -1 5 -2 
7006 6 0.188149 0.197141 0.176609 -4 3 -2 
8240 5 0.39 0.196906 0.166862 0 -6 4 
5995 6 0.981214 0.244121 0.12026 3 5 4 
7726 6 0.0927046 0.301864 0.155175 -3 0 1 
5064 5 0.156627 0.209381 0.160521 0 -2 -3 
5210 6 0.304331 0.211493 0.152572 0 2 1 
5471 6 0.127644 0.278378 0.162081 3 0 -3 
8016 6 0.940911 0.272 0.112265 -2 1 -1 
5587 5 0.987046 0.273321 0.151648 -1 0 -2 
8667 6 0.894686 0.300021 0.119089 -5 5 -3 
8018 5 0.20426 0.32721 0.107204 2 0 1 
5258 6 0.230079 0.351888 0.163192 -1 -2 -2 
7229 6 0.485146 0.346675 0.145361 3 0 2 
8828 6 0.769889 0.338946 0.171896 5 -2 -1 
8090 5 0.071398 0.398799 0.164133 1 3 4 
8956 5 0.346045 0.372881 0.124519 2 -3 4 
7741 6 0.85406 0.383964 0.150935 3 -4 2 
8008 5 0.118556 0.40325 0.142639 -4 -2 -1 
8803 6 0.771473 0.421327 0.156068 3 1 3 
8287 6 0.77024 0.399429 0.121696 6 5 -2 
7737 6 0.271341 0.378223 0.125512 -1 -3 4 
6651 6 0.549165 0.454236 0.173916 -7 0 2 
5940 5 0.202238 0.456495 0.181332 -1 2 -4 
7811 6 0.766551 0.487083 0.134299 0 -2 2 
8468 5 0.0722688 0.553456 0.130542 0 0 4 
5220 5 0.187669 0.530941 0.149823 5 2 2 
5326 6 0.493805 0.517536 0.160532 -5 -1 -1 
6028 5 0.523165 0.528144 0.141964 0 1 -1 
5298 6 0.285044 0.499086 0.172695 -3 2 0 
5146 5 0.560119 0.535219 0.183638 7 -4 1 
8295 5 0.652481 0.564683 0.159802 2 0 5 
6470 6 0.981698 0.534361 0.159588 2 2 0 
8490 6 0.270208 0.543768 0.155068 1 -2 2 
7484 6 0.400703 0.577791 0.169727 -2 1 4 
7636 6 0.491476 0.546014 0.181231 -1 4 -2 
8546 6 0.818455 0.574811 0.159091 0 0 -3 
7800 6 0.317764 0.587251 0.157063 2 -2 2 
7729 6 0.00585642 0.620988 0.169254 -4 -3 -1 
5276 5 0.502693 0.556344 0.158026 1 -2 1 
7452 5 0.810136 0.637558 0.194405 -1 -1 3 
6240 5 0.980858 0.622164 0.154153 -4 -1 0 
8389 6 0.129747 0.673093 0.11447 5 1 5 
7884 6 0.292274 0.654007 0.161796 -3 3 2 
7297 5 0.892132 0.642295 0.136259 -2 2 -3 
8756 6 0.590592 0.685791 0.145675 -2 1 3 
6285 6 0.929156 0.660275 0.168924 -5 5 -1 
7187 6 0.0800169 0.741073 0.147642 2 -1 2 
5603 6 0.591098 0.65185 0.171665 5 0 -1 
8895 5 0.644969 0.704982 0.150197 -1 0 1 
6319 6 0.93665 0.709358 0.135215 0 1 7 
6732 5 0.471847 0.722586 0.115837 -3 3 0 
7653 5 0.906992 0.688138 0.175344 -2 -1 0 
8942 6 0.224623 0.740147 0.147819 7 -5 -4 
8373 5 0.731812 0.742565 0.154788 6 -1 3 
6458 5 0.856986 0.706064 0.116527 2 4 1 
5004 6 0.437303 0.768706 0.149814 -8 0 -2 
8291 5 0.48944 0.752652 0.139855 -3 -1 0 
5453 5 0.998768 0.74326 0.154805 3 -1 -2 
5032 6 0.940195 0.798868 0.193344 1 -1 0 
7233 5 0.625596 0.815097 0.116345 1 -1 -3 
8618 6 0.774954 0.869779 0.165195 2 -2 1 
6320 6 0.200113 0.903139 0.138111 1 5 2 
8279 6 0.634 0.885085 0.147141 -4 -3 0 
8918 6 0.15936 0.942698 0.126827 7 2 0 
7770 5 0.18422 0.896685 0.156731 5 0 3 
7523 6 0.0496076 0.952669 0.131143 4 -2 -4 
6850 5 0.142508 0.924494 0.156626 -2 -4 -2 
6538 5 0.52004 0.88707 0.131206 -4 0 -2 
8563 5 0.159633 0.955325 0.15656 -2 -6 -3 
7845 5 0.277959 0.0263944 0.118761 -4 6 0 
6432 6 0.666406 0.000340404 0.147831 1 5 1 
5552 5 0.831449 0.99238 0.174427 4 6 -6 
6994 6 0.35196 0.0341386 0.162379 -1 0 3 
5078 6 0.713625 0.997143 0.170378 -2 -4 2 
5670 5 0.537107 0.0706183 0.148757 4 -1 0 
7069 6 0.243159 0.0584623 0.15728 2 -1 4 
8594 5 0.413112 0.071078 0.15035 2 -1 4 
7360 6 0.829921 0.0539723 0.186657 -2 -4 3 
6268 5 0.35638 0.113587 0.145291 7 5 1 
6255 6 0.629286 0.133121 0.170543 -2 0 4 
7492 5 0.866941 0.0735858 0.128198 0 4 -2 
7536 6 0.432821 0.14988 0.188511 3 4 -1 
7692 6 0.9251 0.125843 0.15661 5 -2 5 
7027 5 0.0624744 0.15424 0.167794 -4 0 0 
7694 6 0.160432 0.143501 0.173481 -5 3 0 
8834 5 0.408718 0.186794 0.142699 2 0 0 
6034 6 0.743106 0.156527 0.145277 1 2 3 
8899 6 0.159447 0.200552 0.166501 -1 -1 -1 
7927 6 0.976782 0.200747 0.181669 0 0 1 
8646 5 0.589007 0.173432 0.170756 -2 -6 0 
6664 6 0.883224 0.258127 0.144787 1 6 2 
8290 6 0.930851 0.220655 0.202974 1 -9 3 
7752 6 0.938623 0.208851 0.189718 -2 2 2 
7728 5 0.446807 0.242077 0.203496 3 1 -2 
5371 6 0.506701 0.229423 0.146929 4 1 2 
5309 6 0.821746 0.282075 0.160534 -2 0 2 
6199 6 0.164872 0.282635 0.156454 -2 -6 1 
8041 5 0.167475 0.35006 0.170306 -7 2 -2 
8304 6 0.220409 0.347537 0.18987 3 0 4 
5270 5 0.311371 0.33448 0.171855 0 1 4 
6073 5 0.371301 0.344487 0.199464 0 4 -4 
5224 6 0.728642 0.378947 0.143705 0 -3 4 
8735 6 0.747891 0.333817 0.174075 -3 1 0 
7490 5 0.155217 0.403122 0.159921 1 -1 5 
6959 6 0.543806 0.376015 0.174574 -2 -2 0 
8216 5 0.0681818 0.42174 0.158813 -2 5 3 
8583 6 0.408992 0.421995 0.190563 4 1 2 
5071 5 0.764045 0.423096 0.172065 3 -1 -2 
6899 5 0.426651 0.461717 0.192771 1 -1 0 
5795 5 0.827091 0.424351 0.181968 0 -1 0 
6542 6 0.0779811 0.496741 0.186864 -3 -5 0 
5902 6 0.0206288 0.450921 0.202263 -3 4 0 
5847 6 0.376309 0.499146 0.207423 -2 1 2 
5964 5 0.889664 0.512662 0.183992 0 -1 1 
7165 6 0.234651 0.558798 0.177358 2 0 5 
6052 6 0.23945 0.582382 0.157842 -4 -3 -3 
6168 6 0.729865 0.51483 0.167592 1 1 1 
5785 6 0.0240605 0.575038 0.167539 -1 2 -4 
7153 6 0.589412 0.541572 0.170988 0 4 3 
5173 5 0.0121998 0.581662 0.154624 6 -5 2 
6324 5 0.555703 0.553058 0.16675 3 0 4 
5576 5 0.797679 0.574455 0.20392 -1 7 -7 
7328 6 0.15528 0.650194 0.156754 -1 0 -1 
7748 6 0.556888 0.609372 0.144173 -1 -4 -2 
5397 6 0.144962 0.650055 0.197865 5 0 -2 
6699 5 0.389654 0.664574 0.188794 6 2 0 
5605 5 0.319495 0.625878 0.187793 3 -1 1 
5938 6 0.900672 0.708046 0.181334 -1 3 4 
6760 5 0.186348 0.745684 0.193959 0 1 -3 
7494 5 0.549129 0.724285 0.172688 0 4 1 
8586 6 0.708756 0.700975 0.215013 -1 1 -2 
5303 6 0.251458 0.742652 0.146892 0 1 0 
6669 6 0.706462 0.736016 0.160652 -1 -7 2 
7974 5 0.686952 0.789262 0.160812 1 -3 0 
6541 5 0.373689 0.823118 0.193017 0 0 1 
7061 5 0.200965 0.823973 0.199233 4 -3 1 
7742 5 0.565632 0.911495 0.174858 -6 -3 0 
8651 5 0.0695533 0.90167 0.158692 0 1 1 
6234 6 0.593152 0.911335 0.144343 -2 0 0 
7968 5 0.690784 0.906377 0.155546 -4 -3 3 
5825 6 0.798086 0.939744 0.19274 -4 -2 2 
8473 5 0.802367 0.910402 0.177671 -4 0 5 
5068 5 0.321829 0.950867 0.137322 2 -1 2 
7902 6 0.770167 0.996441 0.200948 -6 -1 -2 
7332 6 0.798602 0.934061 0.156997 1 -1 5 
8097 5 0.369953 0.00522847 0.18674 0 1 -3 
8074 6 0.609133 0.0355142 0.1735 6 -2 -3 
7942 5 0.672494 0.965376 0.18048 0 -1 2 
6425 5 0.82479 0.0110617 0.160558 -3 0 6 
7870 6 0.859645 0.0455179 0.194982 0 3 -1 
7703 5 0.767357 0.0232313 0.128624 -2 3 0 
7576 5 0.825231 0.0279664 0.174222 -3 2 2 
8637 6 0.840792 0.0642742 0.141097 0 -1 -1 
8343 6 0.446249 0.0994318 0.222263 0 5 0 
6253 5 0.964449 0.0734023 0.216777 1 0 -3 
8203 5 0.990584 0.0610368 0.176773 -2 -3 1 
6335 6 0.109066 0.118216 0.184343 -1 -1 -1 
5290 6 0.207517 0.11313 0.193852 3 2 -1 
6482 5 0.322334 0.14027 0.19589 1 -6 -6 
6198 6 0.652409 0.180948 0.202015 -2 0 -2 
7554 6 0.788483 0.192628 0.213809 1 3 3 
8598 5 0.180976 0.145504 0.197056 -3 0 -3 
8000 5 0.504644 0.207794 0.219051 1 -1 5 
8122 6 0.785084 0.220393 0.225381 2 -4 1 
7306 6 0.0796516 0.257868 0.226759 0 1 6 
8133 6 0.290965 0.212319 0.196927 -3 -5 3 
5125 6 0.455776 0.228748 0.249657 2 0 1 
6873 6 0.236756 0.232165 0.171676 0 -6 3 
5497 6 0.364583 0.274577 0.184474 -1 -2 1 
6190 5 0.616415 0.270037 0.230441 6 3 0 
8948 6 0.177618 0.339076 0.203761 5 4 1 
7470 6 0.335151 0.332518 0.199469 0 2 0 
7195 6 0.688127 0.336793 0.212519 2 3 0 
5005 5 0.913038 0.365124 0.19742 3 1 5 
8336 6 0.302401 0.376973 0.176068 4 3 -3 
5106 5 0.629914 0.364724 0.195395 0 0 -3 
8030 5 0.701657 0.397683 0.211929 -3 5 -3 
5934 6 0.30945 0.402723 0.172049 2 -1 -3 
8752 6 0.544249 0.379375 0.189977 1 -3 0 
7725 5 0.552879 0.3737 0.202724 -3 -6 3 
6421 6 0.717099 0.412003 0.228792 3 -2 3 
5144 6 0.955538 0.417001 0.21657 -2 5 -2 
5415 5 0.500644 0.43647 0.21881 -3 4 4 
7727 5 0.833807 0.384529 0.206743 -3 1 4 
8085 6 0.0872402 0.459362 0.165524 3 -1 1 
5958 5 0.147449 0.448042 0.202481 1 3 2 
6672 6 0.450091 0.452486 0.16103 -3 1 1 
7420 5 0.774545 0.468363 0.186397 -1 -4 0 
7342 5 0.0430412 0.433759 0.193821 2 -2 -2 
5269 6 0.328816 0.502623 0.226639 -3 4 5 
7018 6 0.75129 0.491251 0.167934 3 -1 7 
5521 6 0.517621 0.492299 0.202178 2 5 0 
8571 6 0.242024 0.486774 0.215779 4 1 0 
8688 5 0.192751 0.531144 0.177789 2 -3 -3 
5762 5 0.288475 0.548208 0.185907 -2 3 0 
7447 6 0.506598 0.551958 0.222644 -2 0 6 
6282 6 0.663897 0.590221 0.169968 0 3 2 
8545 6 0.481687 0.605753 0.169039 -4 0 0 
5726 5 0.00138635 0.637154 0.172726 -3 0 -6 
5903 6 0.0810483 0.622815 0.175626 4 -1 3 