ITEM: TIMESTEP
20000000
ITEM: NUMBER OF ATOMS
9000
ITEM: BOX BOUNDS pp pp pp
-75 75
-75 75
-75 75
ITEM: ATOMS id type xs ys zs ix iy iz 
6274 5 0.102192 0.0347548 0.0107201 3 -8 0 
8235 6 0.323178 0.995521 0.0142332 2 10 -3 
7745 5 0.548075 0.0469911 0.0166735 1 3 4 
7868 5 0.648453 0.0245138 0.0358712 -3 -1 2 
8454 6 0.681725 0.01269 0.988071 -3 2 -1 
5702 6 0.679727 0.978879 0.0145969 0 -2 2 
6711 5 0.711285 0.984634 0.00333813 -1 -6 1 
6055 6 0.820991 0.0319865 0.0275902 -3 -4 1 
6043 6 0.254035 0.0615165 0.987642 2 7 1 
5664 6 0.00153091 0.0382253 0.0264916 -1 2 0 
7863 6 0.25536 0.0751572 0.0259104 -1 -4 0 
8313 6 0.389451 0.0962152 0.989038 0 2 -3 
7058 6 0.36707 0.096174 0.0190028 5 5 -9 
6747 6 0.402662 0.0624131 0.0578638 -4 -1 1 
6986 5 0.52153 0.0858726 0.000142044 -4 1 3 
6550 6 0.508493 0.102594 0.0349092 -2 -1 0 
7962 6 0.726921 0.116022 0.0243747 -3 4 0 
6394 6 0.672674 0.0912518 0.996036 -6 -1 1 
5461 6 0.0902386 0.147733 0.0186323 0 -8 -3 
7128 5 0.721068 0.140704 0.0254044 0 -1 0 
8306 5 0.777299 0.169363 0.999504 -1 2 -3 
7506 6 0.97866 0.13865 0.961765 -2 0 0 
8588 5 0.231557 0.194904 0.0216157 2 3 4 
7176 6 0.439475 0.175402 0.0310542 -1 4 -2 
7369 5 0.331704 0.202447 0.00530343 1 0 2 
8519 6 0.796227 0.159513 0.0234858 -1 5 2 
6983 5 0.599046 0.212614 0.0264148 1 1 2 
7627 5 0.0186857 0.206558 0.973272 3 2 0 
8524 5 0.0649501 0.270564 0.0187272 2 6 3 
7756 6 0.78812 0.221238 0.0493475 -1 -1 5 
7119 6 0.516293 0.275758 0.0105803 5 -3 3 
8848 5 0.0409329 0.350036 0.00375117 -4 0 -2 
5007 5 0.356094 0.354919 0.995231 1 0 1 
6705 6 0.602374 0.31152 0.0331157 1 -2 -5 
7811 5 0.405422 0.35894 0.0146755 4 1 0 
8948 6 0.430703 0.373178 0.00100208 -1 -5 -4 
5963 6 0.703568 0.355902 0.0610078 1 6 0 
5441 6 0.289118 0.390475 0.0512489 4 2 -1 
6749 5 0.4691 0.391172 0.0276629 0 4 -3 
7757 5 0.702962 0.390403 0.00825256 -2 0 0 
6561 6 0.964682 0.359799 0.0367311 2 -3 5 
5720 5 0.0808295 0.398155 0.0353906 -1 -2 1 
6602 5 0.619432 0.3896 0.0472688 -2 -3 0 
8800 5 0.631622 0.432382 0.0526724 1 1 0 
6223 6 0.915176 0.410669 0.0154612 3 -3 0 
8895 5 0.29228 0.534522 0.0471944 3 1 3 
8544 6 0.706877 0.542537 0.0241619 4 -4 2 
8857 6 0.810281 0.520244 0.00308277 -4 -2 -1 
8471 5 0.549941 0.559259 0.0220245 1 1 2 
7734 5 0.835612 0.606241 0.0172166 -7 0 0 
5410 5 0.745254 0.579053 0.0706299 0 -2 -6 
8272 6 0.879457 0.633129 0.0122709 0 -2 4 
8824 5 0.00729734 0.645577 0.00363734 -1 6 -3 
6696 5 0.230794 0.666835 0.987941 1 -1 1 
8464 6 0.335238 0.62891 0.033752 1 -1 5 
6418 5 0.0565683 0.638124 0.00888878 5 -4 7 
6321 6 0.0965805 0.61747 0.987931 2 -5 1 
8550 5 0.682333 0.620278 0.974581 -1 -7 -2 
7290 6 0.961461 0.696192 0.0228035 2 -1 -4 
6154 5 0.087611 0.741942 -0.000732479 0 2 8 
5100 6 0.326717 0.693901 0.972407 1 4 1 
7400 5 0.50674 0.709207 0.0322115 -3 -6 0 
5160 6 0.824488 0.696153 0.0201916 1 -4 3 
5972 6 0.977794 0.700417 0.00256524 1 1 0 
5554 6 0.578576 0.719923 0.00619906 0 0 3 
7556 6 0.0426225 0.785183 0.0209297 -4 7 0 
8014 5 0.727977 0.75475 0.0478349 -1 2 -1 
7170 5 0.943582 0.722166 0.00793749 -2 -1 -1 
8670 6 0.268386 0.801244 0.0100508 2 2 -3 
5246 6 0.449518 0.767422 0.0179726 1 3 4 
8987 6 0.539717 0.776455 0.985937 -5 -1 -1 
6233 5 0.933215 0.797896 0.991451 2 -1 -1 
5216 5 0.42761 0.794997 0.0210305 2 -2 0 
6452 5 0.742965 0.798239 0.978061 4 5 0 
6204 5 0.807083 0.787923 0.00970571 2 1 1 
5712 5 0.600311 0.859962 0.990798 -2 -2 1 
5877 6 0.233124 0.824888 0.00978245 0 2 -5 
6921 5 0.748106 0.832091 0.983523 -1 4 0 
6699 6 0.0566407 0.865567 0.0416841 1 0 -1 
7435 6 0.0127885 0.865257 0.993476 7 -1 0 
7904 5 0.560738 0.879227 0.0307364 -5 1 5 
5686 5 0.17689 0.911451 0.0352582 -3 0 3 
5378 5 0.39947 0.916533 0.0193205 0 5 0 
5370 6 0.215431 0.960645 0.944152 -1 0 -3 
5151 6 0.662215 0.965537 0.0578 0 -4 5 
8945 6 0.92591 0.97629 0.0116394 -2 -1 -3 
5350 5 0.96976 0.967094 0.00553829 0 -1 -1 
6400 5 0.308368 0.0181199 0.0220269 -1 1 2 
5052 5 0.7743 0.0467831 0.00635745 0 1 0 
5873 5 0.334262 0.0828496 0.0529893 1 0 -1 
6459 5 0.211054 0.0789013 0.0318353 3 2 5 
8793 5 0.61158 0.106349 0.0425354 2 3 1 
5086 6 0.738737 0.0724115 0.0204537 4 2 3 
7655 6 0.995722 0.0953129 0.0330305 2 1 2 
8132 6 0.131383 0.0928704 0.0310585 -1 1 -3 
7937 6 0.596475 0.183886 0.026064 4 3 -2 
6842 6 0.6407 0.123452 0.0383196 0 0 -1 
8445 6 0.584596 0.163099 0.050312 0 -1 1 
7161 6 0.369107 0.234044 0.0173106 1 1 -2 
8806 5 0.65582 0.188088 0.0283562 2 -1 1 
7335 6 0.791175 0.199767 0.0556974 5 -6 0 
8814 6 0.33777 0.222988 0.0143013 3 -4 -4 
8961 6 0.539333 0.24283 0.985132 2 -1 -3 
5633 5 0.950431 0.28464 0.0573391 -5 0 -2 
7072 5 0.0757316 0.256993 0.0478767 3 0 -5 
7611 6 0.241087 0.317762 0.0218435 0 2 8 
7037 6 0.427229 0.288445 0.056584 -2 -5 5 
6110 6 0.582267 0.257321 0.0134464 0 1 7 
8300 6 0.811115 0.254135 0.0280646 2 0 -1 
7921 5 0.215936 0.325319 0.978147 3 1 -2 
8095 6 0.387395 0.285832 0.022621 5 0 4 
7713 5 0.358417 0.321097 0.0177996 -1 3 1 
6709 5 0.715664 0.369379 0.0314676 0 1 -3 
5465 6 0.39664 0.371694 0.0415794 2 -1 -4 
8076 5 0.862059 0.406763 0.0064512 1 1 4 
5983 5 0.0137445 0.406123 0.0256651 0 1 1 
8747 5 0.568788 0.439684 0.00240908 -5 0 2 
7475 5 0.884765 0.436734 0.0223745 2 2 1 
5926 6 0.138381 0.475278 0.0327555 1 -2 0 
7913 6 0.358745 0.452747 0.0328238 -4 -2 2 
8341 6 0.080256 0.532023 0.0300133 2 1 0 
7960 5 0.540147 0.497008 0.0350318 -3 -4 0 
5779 6 0.555722 0.550251 0.0523617 -6 -4 -1 
8634 6 0.736903 0.564456 0.0446484 2 -2 6 
7016 5 0.106466 0.560439 0.065492 -2 -1 -3 
5824 5 0.195004 0.604614 0.995551 0 -1 1 
6652 6 0.875598 0.498839 0.0246481 -3 -2 -2 
6206 5 0.931462 0.5491 0.021245 -6 1 1 
5989 6 0.177295 0.569417 0.0481446 4 1 1 
5037 6 0.357006 0.613791 0.954412 0 -2 -2 
8500 6 0.420837 0.640432 0.057956 2 -3 5 
8021 6 0.858486 0.70168 0.0114805 0 -2 10 
5937 6 0.652273 0.743826 0.017208 0 2 -1 
8115 5 0.31327 0.741221 0.00431458 -6 0 0 
5730 5 0.547779 0.707995 0.0428016 1 -5 -3 
7272 5 0.560707 0.740581 0.0501925 0 -1 5 
8297 5 0.774332 0.833736 0.0662258 -1 4 0 
6096 6 0.255847 0.825836 0.0481134 -2 5 -1 
8181 5 0.681455 0.818895 0.052839 -2 1 4 
5960 6 0.0178792 0.87089 0.043345 6 1 7 
7092 5 0.510578 0.864703 0.0242736 0 -1 3 
7433 5 0.735886 0.832756 0.00520583 -1 3 2 
7129 5 0.102723 0.854261 0.0842302 -1 -2 5 
6656 6 0.475539 0.937853 0.0233985 -2 -4 3 
7156 5 0.278783 0.90677 0.0461826 -2 -3 2 
8007 5 0.592774 0.927585 0.0584336 -2 -5 -2 
5197 5 0.236345 0.941079 0.00754282 2 -4 2 
7858 6 0.373165 0.923788 0.0387406 6 -2 1 
5688 5 0.529472 0.977705 0.0330712 2 -1 3 
5041 6 0.620606 0.95352 0.0468739 -2 -1 2 
8392 6 0.0251778 0.911456 0.0927308 4 -1 3 
8480 6 0.570068 0.971214 0.0459773 -3 0 2 
7890 6 0.189942 0.0208533 0.0469558 -1 0 3 
8821 5 0.495257 0.976536 -0.00125283 2 1 1 
6976 5 0.0961302 0.999023 0.0386853 -3 -2 -2 
6033 5 0.957611 0.0211876 0.0240051 1 -1 -2 
5647 6 0.113859 0.0419375 0.0195081 0 2 -2 
7198 6 0.456016 0.0405379 0.0293846 1 0 -3 
6935 5 0.56815 0.0211572 0.038619 -6 1 1 
8576 6 0.0966882 0.0772277 0.04995 -3 1 -2 
6854 5 0.180417 0.0857909 0.0925897 -2 4 1 
7965 5 0.193182 0.0673819 0.0633649 4 -1 4 
6030 6 0.219106 0.0544139 0.014844 -1 1 0 
8937 6 -0.000174354 0.062622 0.0328 7 0 0 
6956 6 0.980804 0.0992205 0.0452651 -5 -2 1 
8607 6 0.363921 0.120088 0.0526698 -3 -4 -8 
5756 6 0.631335 0.0954514 0.138956 3 -3 -1 
8257 6 0.376397 0.11962 0.0637314 7 3 0 
7749 5 0.0344297 0.137566 0.0526607 -1 3 2 
5226 6 0.82086 0.121204 0.0818762 -3 -3 2 
6431 6 0.532548 0.162454 0.0542423 -1 -3 4 
5184 6 0.446216 0.174418 0.0387693 2 -1 0 
6660 5 0.6735 0.19156 0.0615119 -5 1 1 
5838 5 0.0565638 0.193431 0.0200204 0 -2 1 
7760 6 0.211299 0.199546 0.068588 0 -1 -2 
5287 6 0.500478 0.207905 0.0643169 -2 -1 2 
5266 6 0.686516 0.264913 0.0777686 -2 -1 -1 
5404 5 0.725333 0.251366 0.0563146 1 -1 2 
7670 5 0.0893718 0.272681 0.0724862 4 1 5 
6410 5 0.386075 0.284387 0.0660426 -2 0 3 
5270 5 0.6531 0.32529 0.036435 0 0 4 
8176 5 0.949011 0.26874 0.0714043 0 1 2 
8536 5 0.126228 0.308393 0.0670873 2 0 -2 
7463 6 0.170325 0.341882 0.0280121 2 -1 3 
5377 5 0.808997 0.362012 0.0579268 -1 3 6 
5532 5 0.461511 0.314656 0.0526549 1 1 2 
8610 5 0.246178 0.408399 0.0645971 -7 0 -2 
7053 5 0.787278 0.410863 0.0341894 2 -4 3 
6187 5 0.542993 0.443619 0.079679 1 3 2 
8417 5 0.58118 0.401271 0.0205827 -6 -1 4 
7586 6 0.698247 0.389141 0.0297565 2 4 -3 
6756 5 0.780396 0.422344 0.0345093 5 0 2 
6073 6 0.927726 0.470329 0.0586799 -3 -1 3 
6144 6 0.928145 0.46075 0.0458358 -3 -3 1 
6928 5 0.213246 0.47928 0.0423376 5 -1 -3 
6778 5 0.994409 0.491544 0.0741808 2 3 -3 
6864 6 0.28664 0.594336 0.0379115 -3 -6 -1 
7676 6 0.786917 0.61087 0.056073 -3 0 4 
8084 5 0.302678 0.539974 0.0527483 0 -4 -2 
7056 5 0.556851 0.586532 0.0131865 4 0 1 
8869 6 0.43116 0.677546 0.0713009 -1 -1 2 
7098 6 0.213272 0.66049 0.0202883 -1 -3 2 
6823 6 0.0965298 0.700949 0.0645706 1 -2 3 
5435 5 0.488712 0.643724 0.0592529 1 2 -1 
8538 6 0.951177 0.728459 0.070926 -2 -6 0 
5672 5 0.982959 0.654807 0.0627416 -1 1 2 
7956 5 0.546143 0.698314 0.0105837 0 1 -3 
7264 5 0.157433 0.747106 0.0432637 -1 2 5 
7557 6 0.884811 0.702962 0.0781454 -7 1 -2 
8063 6 0.0473144 0.742587 0.0859219 3 -2 2 
5464 5 0.837515 0.726691 0.00793284 3 1 -1 
5843 5 0.347382 0.792739 0.0399787 -4 0 -5 
8851 5 0.578366 0.78013 0.0818146 -2 1 2 
5212 6 0.941946 0.801972 0.0578867 0 -4 4 
8986 6 0.983475 0.807919 0.107058 -4 -5 -1 
8585 5 0.902301 0.833806 0.0488464 -6 -2 0 
7905 5 0.168568 0.904205 0.0750418 0 1 6 
8040 6 0.591743 0.823492 0.0183465 7 4 5 
7111 6 0.123111 0.951245 0.0390153 2 -2 1 
8321 6 0.799532 0.903684 0.0478556 0 -1 -1 
8461 5 0.45467 0.96787 0.0671512 2 -4 -2 
7564 6 0.258404 0.967153 0.0810113 4 -2 0 
8448 5 0.448737 0.948888 0.0400117 2 1 1 
6622 5 0.381652 0.997461 0.0574454 0 4 2 
8630 5 0.433643 0.00311516 0.0887632 -1 3 0 
5833 6 0.173374 0.996124 0.0804811 -1 -4 6 
7589 6 0.38421 0.0144688 0.0691253 2 -2 -4 
8760 6 0.0500854 0.0872372 0.0821252 3 -1 5 
6740 6 0.0708149 0.0416803 0.0791177 -3 0 -4 
6787 5 0.27749 0.0326133 0.0861382 -5 -4 1 
6202 6 0.432096 0.0708205 0.0864969 2 5 3 
6311 6 0.509482 0.0642011 0.0634106 -5 3 4 
6543 5 0.995672 0.0668919 0.0716187 -4 0 1 
7864 5 0.199692 0.104085 0.0976292 1 -1 2 
7423 6 0.555205 0.105589 0.0482319 2 0 0 
5579 6 0.743121 0.147576 0.0672643 -4 0 -4 
5044 6 0.109573 0.111749 0.120585 2 -5 2 
6659 6 0.300239 0.137428 0.0590316 -5 -4 -5 
7122 5 0.723749 0.171797 0.0952755 -1 -2 2 
8301 6 0.0348162 0.192142 0.0837476 4 -3 4 
6060 5 0.153057 0.168441 0.0718399 0 -6 4 
8376 5 0.884258 0.167226 0.0883472 -4 2 0 
6117 6 0.955686 0.183103 0.0966519 -4 0 1 
8600 6 0.177073 0.208415 0.0800165 1 -1 4 
8890 5 0.363468 0.189133 0.0977244 2 -1 0 
8697 5 0.605837 0.238159 0.0812482 1 9 5 
7944 6 0.0715572 0.260429 0.0624589 1 0 -3 
7579 6 0.194343 0.255326 0.0731843 -6 3 4 
8809 5 0.551932 0.190502 0.0424653 1 2 1 
7588 6 0.0295191 0.276547 0.0891262 0 -5 0 
7186 6 0.437088 0.285781 0.0793832 -5 4 0 
8825 6 0.0596068 0.266178 0.118267 1 2 4 
5481 5 0.911301 0.286099 0.10341 3 -2 -1 
8690 6 0.491084 0.316363 0.0795815 4 0 1 
5854 6 0.00100367 0.376461 0.0694857 0 4 2 
8920 5 0.154877 0.402187 0.100426 1 1 -1 
6871 6 0.0813885 0.410695 0.074647 1 2 3 
6051 6 0.845599 0.362058 0.0623856 1 -1 3 
5358 5 0.405789 0.453641 0.0896207 2 1 -3 
8804 6 0.473922 0.44779 0.0710583 3 -1 1 
7480 6 0.878347 0.380369 0.0632082 -1 -1 3 
7947 6 0.956111 0.420078 0.095241 -2 -2 3 
8615 5 0.31771 0.482899 0.0912245 0 0 -1 
6693 5 0.358273 0.416027 0.0865854 2 -4 5 
7336 6 0.942914 0.456592 0.08448 0 2 -3 
6371 5 0.425467 0.428691 0.104182 -2 0 -2 
6116 5 0.71695 0.472723 0.0828971 1 1 6 
8541 6 0.20627 0.482908 0.0698707 3 2 3 
8738 6 0.439615 0.478049 0.0890012 1 2 2 
6493 5 0.545396 0.48954 0.0897009 6 3 0 
5749 6 0.197553 0.48119 0.0682504 2 3 3 
8916 5 0.315416 0.507645 0.0613994 1 -1 -3 
7454 5 0.476424 0.509171 0.07634 0 -2 2 
8745 5 0.0376124 0.580359 0.0902545 -4 4 8 
8408 5 0.149779 0.571307 0.0946551 5 -4 -2 
6105 5 0.202815 0.611743 0.0588221 0 3 1 
6289 6 0.0592296 0.604025 0.0824114 -4 -1 1 
7663 6 0.61902 0.609208 0.12463 1 1 3 
8501 6 0.930853 0.630439 0.079021 -8 2 -2 
7470 6 0.372564 0.672806 0.0853412 3 0 -1 
7898 6 0.453964 0.63399 0.0861294 4 -1 -3 
8732 6 0.650663 0.614386 0.16357 0 -1 1 
7707 5 0.387305 0.601454 0.10138 -1 -3 -8 
8836 6 0.810181 0.705164 0.0712085 3 2 4 
8746 5 0.397941 0.693178 0.0841737 2 -2 1 
8390 6 0.89485 0.6796 0.0875531 0 2 0 
8611 6 0.900174 0.684379 0.0634939 1 -3 -1 
7637 6 0.0333173 0.730193 0.110355 4 1 -1 
5775 6 0.0280449 0.713229 0.100243 2 -1 2 
7378 6 0.475834 0.725061 0.0799003 0 2 3 
8230 5 0.244272 0.765443 0.0591039 1 -3 -3 
8120 6 0.543118 0.762718 0.0724461 2 -1 3 
5434 5 0.809041 0.768398 0.040941 -3 -1 -4 
7699 6 0.071192 0.793076 0.120713 -5 -1 -2 
7051 6 0.616326 0.840636 0.101545 0 2 4 
8292 6 0.979008 0.829032 0.0650246 -1 -3 -5 
5593 5 0.0320733 0.874675 0.0779206 -3 -2 5 
7497 6 0.344731 0.84373 0.0875346 5 -2 0 
8488 6 0.419493 0.849059 0.0860978 4 -1 -2 
7843 5 0.744389 0.856076 0.0663234 -2 2 0 
6063 6 0.169137 0.87469 0.0601683 0 1 -2 
8905 5 0.925144 0.933109 0.0539427 1 0 -3 
8370 6 0.968122 0.88487 0.0819395 -1 2 5 
5875 5 0.959822 0.918844 0.0784579 -4 0 4 
5113 5 0.0390755 0.904904 0.0953943 0 -2 0 
8648 6 0.406447 0.924488 0.066481 0 5 -4 
8223 5 0.994235 0.918115 0.0864768 0 0 5 
5098 6 0.738116 0.945188 0.0872943 -1 3 -1 
6355 6 0.0841772 0.96841 0.0886065 -3 0 3 
8415 6 0.290256 0.975284 0.10196 2 0 4 
8233 6 0.692746 0.954582 0.136475 1 4 2 
6038 5 0.0703959 0.976138 0.0816882 -4 -2 3 
5210 6 0.0667436 0.00845965 0.120477 1 9 6 
6667 6 0.214829 0.0457629 0.116078 -4 2 3 
8037 5 0.442103 0.015668 0.115957 -2 3 1 
8807 6 0.825022 0.0181702 0.0859603 -4 4 -2 
8902 6 0.0986771 0.0426704 0.0976113 -4 -2 -3 
7696 5 0.908174 0.0304387 0.106342 -5 1 0 
7173 5 0.91377 0.0422082 0.123095 2 0 1 
7360 5 0.988041 0.0647203 0.105461 -4 -2 3 
5945 6 0.294004 0.0506595 0.119667 -2 2 -1 
8982 6 0.956517 0.0359126 0.106274 1 3 -2 
6205 5 0.0941359 0.0673366 0.0642716 0 -3 -2 
8189 6 0.84743 0.090764 0.142916 1 -3 0 
8638 5 0.830494 0.0788738 0.0622221 2 1 -1 
5345 6 0.164782 0.101643 0.0738062 4 -1 -3 
6213 5 0.321142 0.0938021 0.128003 0 0 -4 
7517 6 0.323593 0.124164 0.0899679 2 1 1 
7436 6 0.709115 0.124399 0.0914272 0 -7 -1 
7103 6 0.661746 0.179114 0.109549 3 5 0 
8077 6 0.907623 0.151343 0.0639482 0 3 2 
6795 5 0.985091 0.127205 0.116949 3 1 -1 
6495 5 0.484919 0.203232 0.140358 2 -1 -1 
8099 5 0.689763 0.192656 0.125168 -1 -1 1 
5629 6 0.876527 0.224906 0.109978 3 -1 -4 
6841 5 0.136959 0.259275 0.0936902 0 -4 1 
7963 6 0.184985 0.26428 0.101747 0 0 5 
7384 5 0.541897 0.235535 0.0878216 3 2 -2 
8450 5 0.119009 0.260868 0.09393 3 0 -3 
7664 5 0.986804 0.293616 0.0964535 3 1 -1 
6724 5 0.101946 0.305241 0.0946997 2 4 -2 
5515 6 0.161114 0.318276 0.0929426 3 -1 1 
8273 6 0.125435 0.34152 0.102122 -2 4 3 
7738 6 0.23805 0.281384 0.0899978 -2 4 -2 
8520 6 0.0462542 0.346834 0.142646 -1 -2 -1 
7658 6 0.239283 0.345274 0.141422 2 3 -3 
6815 5 0.321077 0.367717 0.0710834 0 -1 -3 
7528 5 0.385349 0.396956 0.08665 2 -1 2 
5176 6 0.489051 0.408449 0.0387877 1 0 0 
8475 6 0.851453 0.383676 0.0998289 0 -3 -6 
8540 6 0.539396 0.428007 0.0852914 -1 -2 0 
5432 6 0.0564646 0.427588 0.110287 1 2 -1 
5632 6 0.729395 0.391483 0.112774 0 4 4 
7974 5 0.773585 0.431369 0.120285 -3 2 0 
6557 5 0.207904 0.456786 0.134649 5 -3 1 
7381 6 0.763442 0.451756 0.0867404 4 3 0 
7580 5 0.767505 0.471734 0.112418 3 -2 0 
6156 5 0.337941 0.491826 0.0957861 1 3 0 
6282 6 0.43835 0.491725 0.100693 3 0 7 
5466 6 0.532683 0.482199 0.143358 -2 0 -3 
5142 5 0.751041 0.490094 0.0544506 1 3 3 
5901 6 0.248451 0.500677 0.0930779 1 -4 1 
8372 5 0.924109 0.462631 0.102196 -4 -3 0 
5809 5 0.963857 0.543152 0.0664316 0 0 -1 
5530 5 0.330749 0.565612 0.120207 3 2 5 
8817 5 0.887964 0.585873 0.0873663 5 -1 -3 
5454 5 0.166614 0.5524 0.106552 1 -2 1 
8886 6 0.3618 0.587591 0.102705 2 -2 3 
8494 5 0.689062 0.615075 0.127214 6 -2 -2 
8397 6 0.533198 0.627333 0.116375 -6 -2 -6 
8773 6 0.251362 0.688925 0.0911913 -3 -2 1 
6195 5 0.512429 0.628863 0.0646111 1 -3 0 
8150 6 0.715215 0.665581 0.13382 -3 0 1 
6143 6 0.820277 0.609213 0.110709 2 0 1 
8551 6 0.856066 0.64637 0.12993 -2 4 -1 
8211 6 0.579604 0.697468 0.120695 -6 -2 4 
5033 6 0.712794 0.709696 0.123129 1 1 -1 
5295 6 0.102471 0.738031 0.129459 2 1 3 
5810 6 0.000775896 0.729375 0.0978515 3 -7 -1 
5845 6 0.195296 0.767213 0.0805181 0 -1 -1 
5695 5 0.220914 0.751682 0.110041 4 -4 3 
7004 6 0.52429 0.851226 0.111769 1 0 2 
8486 6 0.652358 0.775054 0.0827064 4 -3 6 
7077 6 0.0710301 0.862015 0.14275 7 3 -1 
5251 6 0.441816 0.831039 0.0735401 -4 1 1 
8921 5 0.447183 0.845498 0.0816466 3 -2 4 
6934 5 0.800511 0.837395 0.11565 -1 -4 3 
5588 6 0.32823 0.906034 0.135628 -1 -1 4 
8287 5 0.131092 0.941297 0.10889 -1 2 -4 
8729 5 0.0629657 0.912174 0.115566 3 -2 1 
7952 6 0.821681 0.933161 0.123298 -2 3 1 
5260 6 0.490456 0.949845 0.126295 3 3 1 
6613 5 0.527839 0.957674 0.110009 -1 -2 -1 
6607 6 0.630604 0.924028 0.112169 -4 -1 -1 
8980 6 0.737404 0.972294 0.113138 1 -1 3 
7809 6 0.181516 0.0257608 0.117103 -1 -2 0 
6307 5 0.125925 0.980685 0.119174 -2 -1 -1 
6745 5 0.384209 0.969446 0.0763643 -1 1 4 
7450 5 0.62053 0.0242132 0.131575 0 2 2 
7885 6 0.63113 0.988131 0.123319 0 -1 -2 
6064 6 0.985238 0.0631147 0.126778 -1 -1 0 
5958 5 0.495381 0.0333757 0.143847 0 -1 0 
8345 6 0.858576 0.0295335 0.0994233 2 -1 8 
5227 5 0.156623 0.100642 0.112797 -3 -2 0 
8327 5 0.788491 0.0773432 0.147936 -1 3 -1 
6390 6 0.748267 0.133258 0.0927498 -2 2 2 
6997 6 0.847911 0.131754 0.136407 0 3 2 
8620 6 0.0632081 0.13348 0.106211 -5 -2 2 
6084 5 0.58115 0.160683 0.128734 -5 0 -4 
6142 6 0.735025 0.149008 0.106595 1 -3 3 
8324 5 0.677643 0.175208 0.0925018 -1 1 -2 
5815 6 0.091714 0.191663 0.108988 -3 9 2 
6947 6 0.361081 0.227582 0.134131 2 5 2 
5562 6 0.430072 0.179595 0.108843 2 -3 0 
5254 6 0.463535 0.200106 0.102489 3 -2 -1 
7973 5 0.609226 0.288233 0.113884 2 0 2 
8126 6 0.896637 0.163085 0.0915248 1 4 3 
7758 5 0.883226 0.19903 0.122556 2 3 4 
7314 6 0.385654 0.248488 0.0852515 3 2 -1 
5365 5 0.0758154 0.254077 0.125551 0 -4 3 
5158 6 0.6553 0.299146 0.137832 1 2 0 
8680 5 0.570921 0.312376 0.102866 -1 1 1 
5676 5 0.283175 0.367169 0.108885 -1 0 5 
8529 5 0.69711 0.356518 0.100131 1 0 0 
7008 6 0.389566 0.392919 0.0575706 2 -4 -2 
5906 5 0.472611 0.370275 0.15189 0 1 -5 
7635 6 0.633364 0.385599 0.108829 -3 0 0 
5387 6 0.268191 0.454992 0.112973 1 -1 0 
5433 6 0.332891 0.431117 0.115509 0 1 1 
5440 6 0.530681 0.431249 0.0958904 -3 -2 0 
5691 6 0.481572 0.467151 0.0881193 2 0 -5 
7504 6 0.525318 0.447311 0.144914 -4 -2 -4 
7489 5 0.847336 0.425177 0.157845 0 1 3 
5460 5 0.910545 0.484132 0.108743 2 3 4 
5057 6 0.03487 0.533069 0.147435 5 4 0 
8643 6 0.271688 0.483276 0.118765 0 1 3 
5587 5 0.357234 0.538616 0.150714 3 -2 -1 
6718 6 0.540531 0.497553 0.176049 0 0 -1 
5006 6 0.803303 0.508764 0.114976 -1 0 -1 
6576 6 0.865956 0.509984 0.105817 -2 -3 0 
6702 6 0.946691 0.492584 0.140462 0 -2 1 
5796 6 0.317571 0.572543 0.113039 1 -1 4 
7790 5 0.525207 0.551557 0.10008 0 1 -1 
8347 5 0.808587 0.54428 0.0952586 0 1 1 
8808 5 0.272032 0.541496 0.117238 -4 0 2 
6009 6 0.740174 0.554088 0.0802853 -5 3 2 
6329 6 0.939673 0.583295 0.109095 4 -1 -1 
6638 6 0.354555 0.604035 0.133042 1 0 1 
5595 6 0.745835 0.623314 0.135778 2 -3 0 
8711 6 0.0779276 0.639893 0.123673 5 1 2 
5792 5 0.590744 0.613885 0.113385 3 0 -5 
6603 5 0.777584 0.649271 0.091487 2 1 0 
5879 6 0.336217 0.65148 0.132031 2 2 3 
6001 6 0.705104 0.637007 0.135187 0 0 -4 
6487 5 0.944346 0.692574 0.0915252 -2 -2 1 
6599 6 0.17819 0.695635 0.128913 4 -2 2 
7049 5 0.318952 0.68598 0.0988748 7 5 -1 
7607 5 0.900704 0.714918 0.105284 2 -1 1 
8162 6 0.16759 0.726568 0.123388 -2 1 5 
7341 6 0.326998 0.766621 0.138081 -1 4 -1 
6633 6 0.583199 0.705772 0.125389 0 -6 -4 
7553 6 0.937706 0.762385 0.109666 -2 0 0 
7585 5 0.194279 0.795878 0.143686 2 -3 3 
5549 5 0.368333 0.795332 0.0992119 1 3 1 
6022 6 0.718413 0.784266 0.168271 -3 -1 0 
7228 5 0.938183 0.819926 0.141762 -3 0 1 
7468 5 0.511697 0.84192 0.14708 -2 -4 0 
8085 6 0.421322 0.846235 0.114297 -1 -2 3 
5055 5 0.502185 0.854828 0.140312 3 -2 0 
8548 6 0.085122 0.890091 0.174719 -2 -2 4 
7478 6 0.646164 0.893409 0.10961 -1 1 -3 
5742 6 0.462982 0.933613 0.0831922 4 -5 5 
7743 6 0.984392 0.920628 0.133704 -4 -4 -3 
5090 6 0.335001 0.00266132 0.147035 0 0 -2 
5497 6 0.974149 0.0416905 0.121419 2 -3 5 
6800 6 0.954678 0.048222 0.175145 -2 1 -4 
8243 6 0.222101 0.0855288 0.144888 4 2 2 
6586 5 0.56479 0.143346 0.132828 0 1 3 
5966 5 0.348806 0.184067 0.129963 -1 1 1 
8883 6 0.585785 0.168714 0.161082 5 5 1 
6185 6 0.386369 0.187213 0.1955 -1 5 4 
6715 5 0.510215 0.169731 0.137636 -1 2 2 
5828 6 0.484892 0.22215 0.157562 -2 0 -6 
5776 6 0.781259 0.205629 0.187626 -1 -1 0 
8906 6 0.55044 0.21672 0.166305 1 5 0 
7443 6 0.782145 0.264859 0.181286 -2 -2 2 
6846 6 0.79009 0.274247 0.160723 -1 1 1 
8350 6 0.0972694 0.279181 0.158182 -3 6 3 
7402 5 0.515099 0.280439 0.158023 -1 -3 0 
5328 6 0.904313 0.281685 0.137749 2 1 1 
8477 5 0.957414 0.31358 0.130028 0 -1 2 
8650 5 0.293199 0.328589 0.130037 4 1 0 
7487 5 0.812242 0.322094 0.140823 -1 1 2 
5125 5 0.134508 0.352713 0.160299 -3 2 -3 
5973 5 0.74749 0.399482 0.127805 -1 -1 0 
5783 6 0.388666 0.406881 0.195767 -2 0 1 
5842 6 0.606767 0.357999 0.171575 3 5 1 
7654 5 0.417656 0.409611 0.139096 4 -1 0 
7030 5 0.581133 0.489908 0.140036 2 1 -2 
6736 5 0.861363 0.435762 0.152008 -1 -4 2 
5431 6 0.904227 0.425149 0.170547 2 -1 4 
7765 6 0.572545 0.462199 0.118203 2 1 4 
6987 5 0.519987 0.517939 0.180525 -3 2 5 
5267 6 0.280795 0.5562 0.153611 -1 3 2 
8169 6 0.771445 0.514397 0.162299 5 -2 -5 
5390 5 0.232024 0.535516 0.126498 2 4 4 
8449 6 0.243526 0.517795 0.155782 4 -1 1 
5726 6 0.32951 0.521991 0.147094 -3 4 -4 
6013 5 0.853787 0.52797 0.126308 2 -6 -1 
5024 6 0.981247 0.533173 0.161333 -1 1 3 
8702 6 0.209855 0.565813 0.136272 -1 3 1 
5075 6 0.263253 0.608792 0.181401 3 -4 -5 
5759 6 0.271044 0.606523 0.15962 1 0 0 
7650 5 0.968054 0.598189 0.128618 -3 -4 -1 
7114 6 0.546494 0.638688 0.136375 1 3 0 
6932 5 0.93679 0.647572 0.164287 -3 -6 -3 
8328 6 0.259838 0.631318 0.211239 6 0 4 
6967 5 0.250225 0.658041 0.123709 0 0 -2 
7936 5 0.241106 0.673246 0.153582 4 4 1 
8736 6 0.443504 0.674149 0.138028 2 1 -3 
7621 5 0.551623 0.664357 0.156255 1 1 2 
5187 5 0.504927 0.672161 0.120828 -2 -4 -5 
5042 5 0.275836 0.766877 0.133984 3 0 1 
8467 6 0.390211 0.767494 0.186484 0 -4 -4 
7357 6 0.832979 0.734176 0.15174 1 -1 -5 
5335 6 0.681076 0.77662 0.121023 -3 -2 0 
8497 5 0.869184 0.736624 0.172454 1 -1 -2 
6062 5 0.0352865 0.7666 0.167196 0 1 0 
6345 6 0.174734 0.787698 0.15175 -4 4 1 
6703 6 0.190366 0.790538 0.180112 1 1 0 
5871 6 0.318908 0.792052 0.13364 -3 -1 -2 
6839 6 0.514474 0.773914 0.167976 -3 7 -1 
7080 5 0.678241 0.775252 0.199883 -6 -3 -1 
5088 6 0.83162 0.796987 0.145761 4 0 -4 
5979 6 0.943882 0.768586 0.150079 -4 1 -1 
6423 6 0.286254 0.842674 0.195574 3 1 4 
6886 6 0.572091 0.797766 0.152439 -2 -6 -8 
8887 6 0.280243 0.860039 0.153859 -2 -1 4 
5319 5 0.736793 0.839413 0.160846 -1 1 2 
8033 6 0.211597 0.874427 0.145137 -1 -3 1 
7268 6 0.731774 0.842014 0.136093 -2 3 3 
7469 5 0.258719 0.931039 0.185944 -2 -2 1 
5188 6 0.413563 0.922462 0.129543 -2 -1 2 
5028 6 0.71129 0.908461 0.128958 -1 2 2 
8091 6 0.677924 0.934316 0.146647 -1 0 -4 
7153 5 0.781214 0.956026 0.116505 -3 -5 1 
7600 6 0.866307 0.0100305 0.130546 1 1 -1 
7204 5 0.474559 0.00346911 0.161507 -5 -2 -2 
8334 5 0.506651 0.0103253 0.135838 4 2 0 
6954 6 0.629363 0.0137019 0.18716 1 0 1 
8259 5 0.301426 0.0126955 0.181433 -2 2 1 
5344 6 0.762796 0.0337639 0.194569 -3 -4 1 
6746 6 0.272975 0.0464108 0.16069 2 2 0 
7977 5 0.38301 0.080542 0.144133 4 0 3 
7685 6 0.532156 0.105245 0.158028 0 3 0 
8215 6 0.281821 0.0725786 0.126507 0 0 -5 
6885 5 0.37146 0.125798 0.159914 3 1 -4 
8315 6 0.838782 0.11479 0.168318 -4 3 -3 
5136 5 0.166506 0.135115 0.170089 2 -2 -2 
6684 5 0.183817 0.139108 0.184361 -3 0 1 
7928 6 0.705726 0.158524 0.183966 -1 0 2 
5683 5 0.222426 0.141275 0.169058 1 -1 -3 
7771 5 0.371013 0.161777 0.166435 -2 1 -2 
6620 6 0.441587 0.159284 0.165252 -6 -2 -1 
6025 6 0.796127 0.17621 0.168532 -1 -4 -3 
5599 5 0.110779 0.208022 0.166235 -6 0 2 
6212 5 0.741137 0.191433 0.179261 -4 3 -4 
5917 5 0.758321 0.224338 0.129253 5 1 2 
7328 6 0.146867 0.25672 0.128665 0 -2 -2 
5138 5 0.822856 0.240941 0.163278 -2 -1 5 
5002 5 0.698222 0.269809 0.167348 0 1 3 
7493 6 0.855404 0.232926 0.157445 -2 3 -2 
7117 6 0.140491 0.282221 0.189933 1 2 -2 
7159 6 0.020669 0.288278 0.206669 5 1 0 
6906 5 0.214115 0.298611 0.186072 -2 -4 -2 
8000 6 0.604105 0.310498 0.161471 -1 -5 -2 
8733 5 0.159521 0.312395 0.161992 3 1 -2 
5919 5 0.796207 0.295048 0.156293 4 1 2 
8190 6 0.929151 0.355391 0.151707 -3 7 -3 
8686 6 0.10748 0.387687 0.159729 -3 0 0 
8984 6 0.342181 0.381808 0.18848 -1 7 -4 
8661 6 0.451919 0.388295 0.190231 0 5 0 
6984 5 0.589032 0.368888 0.18592 1 2 2 
5034 5 0.588903 0.399048 0.205929 -1 1 -2 
8056 6 0.788538 0.407421 0.173096 4 -2 -1 
8470 6 0.909899 0.359068 0.183625 -2 -1 1 
5103 6 0.282053 0.362765 0.158804 2 1 3 
8846 5 0.571535 0.368247 0.183688 2 1 -3 
8973 5 0.653758 0.414365 0.168742 5 -2 3 
8146 5 0.686343 0.458281 0.141172 0 1 -3 
6707 6 0.797231 0.460145 0.170952 -1 -3 2 
8298 6 0.105593 0.43199 0.195467 -6 1 2 
8440 5 0.0725698 0.481398 0.190227 1 -2 1 
8224 5 0.141675 0.502847 0.198869 -1 1 1 
8197 5 0.942014 0.466752 0.161902 2 1 1 
8296 6 0.557777 0.517827 0.159481 -1 2 -1 
5211 6 0.0217898 0.514738 0.169216 -2 -2 0 
7599 6 0.421973 0.508767 0.157757 -1 2 4 
6047 5 0.707341 0.561461 0.191205 -4 1 -1 
5368 5 0.349982 0.56755 0.176295 -1 -1 -4 
7293 6 0.234671 0.612641 0.185874 -1 -4 -3 
5008 6 0.270692 0.554762 0.186239 1 -3 3 
8286 6 0.715042 0.622454 0.183905 -3 7 4 
5552 6 0.870247 0.617143 0.18664 -4 1 1 
7428 5 0.629317 0.632583 0.153139 0 -4 8 
7482 6 0.734336 0.659 0.22731 -1 2 -1 
8383 5 0.79181 0.65166 0.206125 -1 9 6 
8024 6 0.312824 0.698306 0.126547 0 1 3 
8750 5 0.807795 0.662499 0.177725 -2 1 -6 
7680 5 0.655963 0.746924 0.213397 -1 -2 1 
6918 6 0.176347 0.716575 0.18379 3 4 0 
5971 6 0.336162 0.839572 0.195408 -5 -1 3 
5190 6 0.13324 0.86909 0.157986 -3 1 -3 
7084 6 0.244337 0.866075 0.18066 -3 8 3 
7990 5 0.485974 0.811382 0.153316 0 1 2 
5837 6 0.101348 0.823765 0.201503 -6 1 3 
8879 6 0.113494 0.838096 0.174571 -1 1 -2 
8971 5 0.747403 0.850884 0.154401 -5 -1 0 
7766 6 0.0936012 0.883039 0.188891 3 1 3 
5864 6 0.535599 0.882357 0.191909 1 0 5 
6919 6 0.613853 0.873679 0.18279 -3 -2 1 
6155 6 0.83468 0.912932 0.212894 -5 -1 -1 
8737 5 0.154544 0.913043 0.147837 4 1 1 
5890 5 0.635714 0.896916 0.186049 -1 -2 5 
8070 6 0.248047 0.916459 0.167353 3 1 -1 
8175 5 0.0876013 0.942312 0.17502 0 0 3 
5777 6 0.732216 0.926355 0.198651 0 -3 1 
8849 5 0.857133 0.93498 0.207842 4 0 2 
6445 5 0.606658 0.957731 0.167027 -4 2 4 
7674 6 0.272558 0.00293969 0.151302 -3 -2 0 
6763 5 0.530805 0.0520723 0.185635 -1 -1 4 
6553 6 0.0299066 -0.00118561 0.239269 2 0 5 
5478 5 0.173019 0.0585964 0.158798 0 4 0 
8399 5 0.592968 0.0134473 0.239533 1 1 6 
6595 6 0.935803 0.0249337 0.214055 1 2 2 
6676 6 0.142841 0.035054 0.192412 0 -1 -5 
8203 5 0.931775 0.00603396 0.191467 -4 -1 4 
6358 6 0.121226 0.0834188 0.201875 3 3 2 
7597 6 0.443583 0.062327 0.157544 -1 4 -3 
7838 5 0.637102 0.0851206 0.179699 2 4 5 
7731 6 0.238379 0.111048 0.158026 4 -1 3 
5062 6 0.456844 0.125726 0.175164 -5 4 2 
5581 5 0.0273766 0.155408 0.184164 0 -2 5 
6199 6 0.714615 0.148632 0.178828 -6 4 -2 
6109 6 0.450329 0.210361 0.200424 0 2 0 
6733 6 0.490749 0.189964 0.192943 2 1 -1 
8256 5 0.508302 0.216915 0.209477 2 2 2 
8875 6 0.6088 0.234941 0.213237 0 0 -4 
5424 5 0.719258 0.21584 0.205597 -3 6 1 
6945 5 0.723012 0.274276 0.170478 -4 2 5 
7355 6 0.958045 0.268692 0.225535 2 2 2 
5509 6 0.207626 0.279458 0.207564 -2 4 1 
5548 6 0.75392 0.331833 0.212707 1 -5 4 
5235 5 0.973591 0.336729 0.172286 3 -5 -5 
5501 5 0.261123 0.35281 0.222913 3 3 3 
7185 5 0.380897 0.346776 0.206418 3 0 3 
8318 5 0.611304 0.377174 0.18239 0 1 7 
6938 6 0.980347 0.378529 0.17145 0 -1 -2 
6340 5 0.704773 0.370727 0.206508 0 -3 -1 
7924 5 0.787013 0.398474 0.184813 -4 4 3 
5733 5 0.98956 0.347701 0.200187 1 2 2 
8433 6 0.125181 0.403826 0.207719 -3 1 -4 
6076 5 0.663681 0.453699 0.192882 -3 6 -2 
5718 5 0.28489 0.425162 0.209117 -1 -1 1 
6913 5 0.359028 0.464267 0.15366 -1 -5 4 
8799 5 0.596354 0.437322 0.214341 3 1 -3 
5715 5 0.621721 0.502032 0.208821 -4 -3 1 
6780 5 0.112164 0.52312 0.221774 3 -1 -4 
6605 5 0.384296 0.49401 0.214538 -1 3 1 
5856 6 0.940934 0.522489 0.199012 -1 3 1 
7775 6 0.116476 0.563225 0.217763 -4 1 4 
5719 6 0.240899 0.567316 0.161918 -3 5 3 
6831 6 0.715817 0.527572 0.187297 1 8 5 
8561 6 0.228929 0.566434 0.197548 1 -5 -3 
6316 5 0.626005 0.624806 0.192386 0 1 1 
7799 6 0.696433 0.573695 0.18121 -1 1 0 
5703 6 0.779373 0.6255 0.199807 -1 -2 -2 
5066 5 0.970737 0.62212 0.189565 -4 -4 6 
6002 5 0.059565 0.600446 0.219706 2 -4 -6 
5505 5 0.292013 0.636369 0.189212 0 0 5 
5603 6 0.379354 0.668919 0.234545 -3 -3 1 
6230 5 0.641554 0.62824 0.239242 -1 -2 -4 
6930 6 0.747697 0.639998 0.165041 2 2 1 
8775 5 0.783623 0.628122 0.208507 -1 -2 2 
6735 5 0.874918 0.64559 0.190637 1 6 -1 
7395 6 0.317252 0.627411 0.143818 -4 -1 0 
6148 5 0.346482 0.689274 0.216488 5 -4 3 
8717 5 0.343094 0.653789 0.209675 -3 -4 0 
5817 6 0.311556 0.723342 0.155123 -3 -2 -1 
5939 6 0.498273 0.708187 0.182678 2 -1 0 
7322 5 0.163747 0.724076 0.176249 3 0 0 
7179 5 0.560953 0.715222 0.204669 0 2 0 
7496 5 0.358138 0.7531 0.151394 -5 -2 -1 
5320 6 0.512983 0.750358 0.20014 -5 2 0 
7729 6 0.75947 0.725517 0.205741 2 -1 1 
5785 6 0.237149 0.810723 0.16982 0 5 4 
7629 6 0.848735 0.78688 0.190742 1 -4 2 
8130 6 0.820242 0.829933 0.198765 -1 -3 0 
6012 6 0.138283 0.873004 0.207187 -1 -2 4 
8036 6 0.444487 0.874597 0.176123 -3 4 -2 
8149 6 0.491503 0.924624 0.178891 1 2 2 