ITEM: TIMESTEP
20000000
ITEM: NUMBER OF ATOMS
9000
ITEM: BOX BOUNDS pp pp pp
-75 75
-75 75
-75 75
ITEM: ATOMS id type xs ys zs ix iy iz 
7768 5 0.389213 0.0164455 0.988996 -1 2 1 
5114 6 0.366263 0.0222569 0.979815 -2 6 0 
6752 6 0.902057 0.0089676 0.00611643 -1 2 0 
8674 5 0.98097 0.00295305 0.0505279 1 2 -3 
7954 6 0.174719 0.0523783 1.00058 1 6 0 
7229 6 0.386789 0.0505147 0.992072 -1 0 0 
5124 6 0.342068 0.0315407 0.990425 1 6 0 
5739 6 0.397792 0.0455051 0.0236254 -1 5 1 
6764 5 0.442266 0.0430803 0.992918 4 -1 4 
7542 6 0.916042 0.0496319 0.998872 0 0 -6 
5723 5 0.0954476 0.107556 0.980034 0 -1 7 
5015 5 0.706966 0.117475 0.0208785 3 -1 -3 
8255 6 0.909564 0.113825 0.97771 1 -2 -2 
8001 6 0.972775 0.123535 0.980164 -5 1 9 
8201 6 0.999452 0.105797 0.0457222 4 -3 -3 
6420 5 0.298076 0.16433 0.993278 6 -4 3 
7761 5 0.792169 0.161933 0.0266795 -3 0 -1 
5595 5 0.494777 0.195228 0.0489792 3 -2 1 
8645 5 0.542174 0.184599 0.999492 1 -1 -1 
8400 5 0.833539 0.238245 0.0238294 -2 -5 -1 
6099 5 0.629936 0.258493 0.0196207 -5 -3 -3 
5083 5 0.662111 0.23205 0.0169705 -2 0 1 
5301 6 0.373502 0.239832 0.0278217 -3 -5 -3 
6704 5 0.791628 0.257833 0.988882 2 0 0 
5848 5 0.255584 0.315205 0.970337 0 2 -1 
6603 6 0.680313 0.369794 0.00249835 -2 1 -2 
8173 6 0.546156 0.35431 0.0170829 -3 3 -4 
5527 6 0.875168 0.347569 0.0335616 -4 3 4 
6344 5 0.105937 0.349137 0.0205921 -1 -2 2 
5062 5 0.55062 0.378132 0.00310505 -1 -6 -3 
7357 6 0.22148 0.388372 0.0375485 -4 0 1 
7899 6 0.584328 0.371562 0.0051817 -2 2 1 
8868 5 0.67197 0.362316 0.0170538 -2 -1 3 
5085 6 0.881131 0.422563 0.0315379 2 1 1 
7061 6 0.308207 0.43053 0.986698 3 -3 2 
7249 6 0.467532 0.384829 0.0289826 3 -4 1 
8784 5 0.525329 0.451747 0.0195029 -4 -2 2 
8423 5 0.188097 0.433769 0.0403122 -2 4 0 
7089 5 0.950706 0.470307 0.033881 -4 1 -1 
7948 6 0.235371 0.449936 0.0266966 0 -1 1 
8903 6 0.305133 0.485165 0.97418 -1 1 1 
7584 6 0.421168 0.50988 0.00329354 2 -2 -4 
7091 6 0.602322 0.500468 0.0288407 0 2 4 
7684 6 0.633832 0.462815 0.0469521 -2 0 -2 
7011 6 0.95999 0.512968 0.0063627 2 0 4 
5980 6 0.577777 0.535827 0.0289945 0 0 -1 
5157 5 0.546129 0.498476 0.0280085 2 4 3 
7828 6 0.628316 0.481849 0.0617884 -3 0 0 
5725 6 0.748917 0.563903 0.0141223 -1 1 3 
6866 5 0.970764 0.567112 0.0431958 -6 1 0 
5834 6 0.132162 0.593349 0.0240869 2 -3 -3 
6531 6 0.11372 0.58244 0.98117 0 0 0 
7385 5 0.523451 0.621369 0.00870612 -1 -5 -9 
5279 5 0.0811505 0.637251 0.980809 7 -1 -3 
7969 5 0.374895 0.646462 1.00065 -7 -3 2 
6042 5 0.741376 0.631961 0.0189521 0 4 -2 
5841 5 0.174655 0.6494 0.988233 0 1 2 
6090 6 0.40714 0.675315 0.98161 0 0 3 
7709 5 0.605916 0.670469 0.0217168 4 1 0 
5761 5 0.678811 0.651312 0.0103986 1 1 6 
8503 6 0.624905 0.668775 0.0288625 -1 -1 -3 
6998 6 0.642694 0.67368 0.0254758 -1 -2 2 
5031 5 0.808342 0.712921 0.0206516 2 -3 -2 
7347 5 0.589401 0.764288 0.0242777 -2 4 -1 
8656 6 0.807251 0.763794 0.01824 2 -1 2 
8701 6 0.864205 0.79629 0.0270606 0 -5 4 
6586 6 0.873042 0.808628 0.994172 -3 4 3 
6164 6 0.886444 0.760188 0.998772 0 -3 -7 
8334 5 0.923398 0.81276 0.0131359 0 3 -3 
6337 6 0.440111 0.837079 0.0189956 3 1 0 
6865 5 0.117343 0.850764 0.0369737 -5 2 -1 
7677 5 0.46764 0.816478 0.00119541 0 -3 -3 
6305 6 0.23039 0.933112 0.029604 1 -3 3 
5348 5 0.34518 0.924555 0.994449 4 5 2 
6902 6 0.124306 0.985032 1.00044 5 -3 3 
8139 5 0.0139644 0.996431 0.992352 -1 -5 -1 
7537 6 0.0232541 0.0102097 0.982252 3 -1 2 
6789 6 0.858256 0.00846666 0.061026 3 -1 -1 
8068 6 0.544556 0.0344886 0.0366899 1 2 -1 
8118 5 0.8948 0.0175522 0.0251037 -3 6 2 
5565 6 0.0968008 0.0549893 0.0132331 -1 3 0 
8025 6 0.0699694 0.0830261 0.0210646 2 3 -3 
5356 5 0.418828 0.0893478 0.0277616 4 1 0 
6159 6 0.981131 0.136173 0.975169 1 -5 1 
6952 6 0.396789 0.128575 0.0432585 7 -2 2 
8446 6 0.750636 0.185964 0.0560228 -2 -1 -2 
8695 5 0.0818572 0.214886 0.0246301 0 -2 1 
6039 6 0.789505 0.151068 0.0425226 2 4 3 
6011 6 0.00497504 0.210509 0.0693648 -2 -2 2 
8525 6 0.0754006 0.247813 0.0252926 -4 -4 -3 
5221 5 0.320698 0.189173 0.00617323 -1 -1 4 
5758 5 0.644032 0.258804 0.0634637 -1 -4 -2 
8471 5 0.311322 0.290193 0.0503826 -2 -1 -1 
8663 6 0.606963 0.335146 0.0486737 -4 0 3 
6809 6 0.0996293 0.292819 0.0302193 0 6 0 
6869 6 0.104446 0.295604 0.0798149 3 0 2 
6600 5 0.567653 0.328865 0.0694563 -2 -3 3 
5354 6 0.788449 0.291985 0.0239062 2 4 -1 
8932 6 0.900645 0.321095 0.0617693 3 0 0 
8727 5 0.0871448 0.340316 0.0319524 -2 3 -2 
5886 5 0.354581 0.323823 0.994464 -1 0 -2 
5791 6 0.42244 0.321507 0.0345373 -6 -2 1 
5152 5 0.752579 0.369285 0.0177427 -1 1 4 
5050 5 0.124502 0.384686 0.995398 3 1 0 
8948 5 0.573022 0.372389 0.065141 1 4 0 
6061 5 0.229862 0.378262 0.0411751 1 1 0 
6001 6 0.663052 0.417927 0.0153076 2 0 0 
7113 6 0.665939 0.373625 0.0173722 -3 0 -2 
5053 6 0.319472 0.432414 0.00811073 -3 -3 1 
6136 6 0.952755 0.431924 0.982168 1 1 -4 
7909 6 0.633465 0.445147 0.0337716 0 -5 2 
5276 6 0.86713 0.481702 0.0539421 3 2 2 
5400 5 0.151617 0.486427 0.0143309 -1 -5 -3 
6623 6 0.280556 0.514978 0.0427184 2 0 2 
5568 5 0.978413 0.492501 0.00699443 -2 4 -1 
6694 6 0.0852855 0.520548 0.0503205 0 -2 -6 
6021 6 0.907338 0.543841 0.0513277 -7 1 0 
8204 6 0.0784336 0.522502 0.0160813 3 0 -1 
7692 5 0.383346 0.577047 0.0277528 3 0 -2 
8192 5 0.685312 0.536339 0.0530696 3 -6 -4 
5294 6 0.656912 0.543997 0.055742 3 -4 -3 
8391 6 0.311872 0.664824 0.0577737 1 0 -1 
7763 5 0.664349 0.617403 0.0105141 0 -1 6 
8989 6 0.873259 0.627792 0.00341683 5 0 -3 
8417 5 0.979402 0.566943 0.0554542 0 7 1 
7284 6 0.19734 0.61441 0.0193451 0 4 0 
6062 5 0.439811 0.647795 0.0447178 -2 -3 -1 
8545 6 0.94083 0.644801 0.0534763 -2 -2 4 
5326 5 0.957446 0.633653 0.030845 -4 1 4 
6361 5 0.830526 0.667378 0.0466151 3 1 6 
5957 5 0.904359 0.623815 0.99847 1 -6 0 
8170 5 0.57609 0.672513 0.0504262 2 -1 0 
6083 5 0.656523 0.652195 0.0379399 0 -2 6 
7344 6 0.00313514 0.686359 0.0344437 4 -1 1 
7794 6 0.613969 0.730486 0.0279308 -5 0 -1 
5502 6 0.134408 0.792033 0.0409818 -4 7 4 
5964 5 0.941202 0.77254 0.00418796 4 -3 0 
6908 6 0.0281007 0.795555 0.0442956 0 -2 7 
7364 6 0.632183 0.796695 0.0235646 -1 0 4 
6299 5 0.00703676 0.822273 0.0451823 2 0 -3 
5956 5 0.253863 0.848307 0.0208492 -1 5 1 
6381 5 0.3656 0.848227 0.0252237 -6 -2 -1 
5938 6 0.430988 0.785306 0.010839 0 4 2 
7326 5 0.629595 0.871408 0.0701836 -2 -2 1 
7667 6 0.241777 0.867499 0.0614054 -2 2 -2 
8988 5 0.031494 0.903149 0.0119709 -5 0 -6 
7345 5 0.322827 0.938593 0.0258064 2 -2 -3 
7485 5 0.438751 0.894259 0.0399947 0 1 0 
8475 5 0.258952 0.956696 0.0370699 3 2 -2 
6144 6 0.758728 0.967595 0.0508923 -6 -6 -4 
5835 6 0.953277 0.936667 0.0688258 -5 -3 3 
8142 6 0.734152 0.959354 0.0646307 0 -2 -2 
5466 6 0.956302 0.997397 0.0298473 2 -3 0 
8558 6 0.255562 0.96467 0.0214539 -3 0 2 
8245 5 0.522474 0.992411 0.0526933 -2 0 1 
5789 5 0.287323 0.0614393 0.0669844 -2 1 3 
8052 6 0.579409 0.067643 0.0315374 -1 1 -3 
8424 6 0.701365 0.0852096 0.0248328 -2 5 1 
6346 5 0.27701 0.0928737 0.0210459 0 -4 -4 
5421 5 0.535904 0.116141 0.0240819 3 0 0 
7928 5 0.22895 0.135383 0.0198893 -1 0 -1 
7406 6 0.686228 0.147279 0.0550647 1 2 0 
7520 5 0.722299 0.131478 0.0705045 -2 -1 2 
5983 6 0.816976 0.121177 0.0670383 -3 -7 0 
6024 5 0.244654 0.158547 0.0728588 1 0 5 
6451 6 0.185849 0.176302 0.0728783 2 0 -2 
6362 5 0.814294 0.204336 0.0657989 2 -3 2 
8523 5 0.935881 0.196649 0.0590548 -1 2 -2 
7657 6 0.430697 0.242501 0.0295664 3 3 1 
6727 5 0.88848 0.20187 0.0630054 0 -1 3 
8444 6 0.0542183 0.257232 0.0444697 -4 5 -5 
8694 5 0.789459 0.242275 0.0515085 -1 -1 -2 
5806 5 0.329406 0.259431 0.0573929 2 -1 -1 
8573 5 0.593956 0.274476 0.0618884 -4 3 2 
8732 5 0.81557 0.244965 0.0245361 -4 2 0 
6767 6 0.234711 0.313039 0.0435999 -1 -3 1 
8741 5 0.318899 0.358251 0.0635277 7 -5 1 
5362 5 0.483461 0.319704 0.0176176 0 0 -1 
6965 5 0.0149218 0.377137 0.0519307 0 -3 2 
5703 6 0.595153 0.333561 0.0290896 3 -3 8 
6314 5 0.739403 0.332882 0.0701803 0 1 -3 
6942 5 0.0679248 0.388757 0.0632782 -2 -1 2 
5369 5 0.895246 0.391023 0.0440092 -1 -1 -2 
8869 6 0.30003 0.435183 0.0357398 -3 -2 0 
5553 5 0.746629 0.398576 0.0533086 1 -4 6 
6515 6 0.387588 0.453416 0.0579237 6 4 -6 
8395 6 0.298407 0.469728 0.0614048 -1 0 1 
6192 5 0.983693 0.505434 0.0688555 -4 0 -2 
8888 5 0.10169 0.524396 0.0760066 -8 1 1 
8894 5 0.412991 0.516411 0.0478766 1 -3 2 
8566 5 0.381488 0.525809 0.0329815 -1 -2 2 
8855 6 0.488601 0.558158 0.0450358 -5 0 -3 
7290 6 0.559675 0.530796 0.0554912 1 -1 0 
8040 5 0.377265 0.565805 0.0512405 -1 -2 4 
8022 5 0.600965 0.569498 0.040931 3 1 2 
9000 5 0.777792 0.561005 0.0808966 -2 -2 1 
5233 5 0.893354 0.578633 0.0766693 2 1 6 
8709 6 0.0588174 0.659299 0.0707576 -2 -3 2 
7353 5 0.67528 0.602529 0.0571521 -2 -2 -1 
5812 5 0.725693 0.616821 0.107815 -3 -1 3 
8751 5 0.824791 0.634477 0.0540458 1 -3 -2 
6283 5 0.187025 0.718215 0.0495061 4 -2 2 
6146 6 0.758114 0.685793 0.0186954 -4 1 0 
8539 6 0.0912561 0.728369 0.0338676 0 1 5 
5775 6 0.286996 0.774332 0.0823452 1 -2 0 
5360 6 0.94931 0.719763 0.0350678 3 9 -2 
8374 6 0.578205 0.691211 0.0584375 2 0 0 
5350 5 0.756264 0.699201 0.0771814 5 3 -1 
5102 6 0.304257 0.724086 0.0767574 7 4 2 
5236 5 0.820848 0.766845 0.0690276 0 3 9 
8416 6 0.315278 0.802321 0.0725725 0 -3 2 
7390 5 0.614869 0.782467 0.0587724 1 -4 4 
8158 6 0.629087 0.772272 0.0303363 6 -1 2 
8232 6 0.207233 0.834137 0.0758388 3 0 4 
8955 6 0.223391 0.861742 0.071085 1 -1 4 
6319 5 0.530661 0.850298 0.10489 -3 2 3 
7122 6 0.96845 0.864043 0.0701456 1 -1 6 
8102 5 0.642755 0.881079 0.0866795 -3 -4 4 
6655 6 0.145193 0.913197 0.0785513 -2 3 -3 
7915 5 0.358889 0.88697 0.0390892 0 1 -2 
7492 6 0.567157 0.896171 0.0404222 10 -1 2 
8187 6 0.129887 0.942689 0.0811604 3 4 -1 
5199 5 0.396609 0.921555 0.0695001 2 1 0 
5752 6 0.705889 0.902079 0.0763417 -1 0 0 
8261 6 0.833043 0.949027 0.0177737 0 0 0 
8798 5 0.0646199 0.946649 0.0913954 4 -2 0 
8622 5 0.473783 0.973733 0.0536851 3 1 0 
7318 5 0.502102 0.966249 0.066524 5 4 -1 
5884 5 0.59672 0.96386 0.103529 2 2 3 
5316 5 0.660923 0.952759 0.0575284 -3 4 5 
6593 6 0.0939923 0.992718 0.0624903 3 -4 -3 
5928 5 0.864042 0.0187551 0.045171 4 5 0 
8429 6 0.946014 0.985605 0.0377804 4 -4 4 
5557 5 0.149452 0.0294832 0.0796109 -3 -2 2 
8866 5 0.117033 0.0239915 0.0794886 9 2 0 
6257 6 0.441148 0.992753 0.0545024 6 0 2 
5259 5 0.8222 0.0392526 0.053589 -6 8 0 
5214 6 0.128572 0.112808 0.0504828 2 -5 1 
7371 5 0.517477 0.105405 0.105865 4 0 0 
8196 6 0.903325 0.0844202 0.0871503 1 0 -4 
7478 5 0.597054 0.142788 0.0794319 -1 8 -2 
5523 5 0.746796 0.158023 0.0905613 0 1 1 
5594 6 0.890795 0.156754 0.078719 0 1 -3 
8186 5 0.130951 0.190601 0.0717376 1 -1 -1 
6781 5 0.33366 0.169253 0.0598199 4 2 -1 
6831 6 0.679191 0.151156 0.0953069 2 1 -5 
7548 6 0.308979 0.192233 0.0827419 -3 3 3 
6330 6 0.348673 0.16107 0.0742102 1 -1 -1 
5796 6 0.26858 0.24281 0.0912042 -2 -2 2 
6676 5 0.857656 0.235899 0.0214378 -2 3 -1 
5899 5 0.918655 0.274849 0.069479 1 2 -1 
5074 6 0.687602 0.262517 0.0523493 -3 -4 0 
7137 5 0.170694 0.305004 0.048123 3 2 1 
6702 6 0.481982 0.310776 0.0633249 0 -2 -2 
8389 5 0.927912 0.303009 0.0400213 0 -3 2 
7438 6 0.130722 0.329399 0.0915336 1 -4 -2 
6957 6 0.425264 0.315657 0.0662636 -3 -3 3 
8652 5 0.574652 0.318585 0.0909167 -9 1 3 
7001 6 0.993193 0.327043 0.0881039 -1 1 2 
7187 6 0.76234 0.33085 0.0511657 -3 7 4 
5160 6 0.230701 0.403592 0.0761156 -1 -1 2 
8295 6 0.591414 0.381882 0.0825809 -1 -1 0 
6004 5 0.713822 0.408735 0.0559841 4 -1 2 
7165 6 0.688157 0.385769 0.095635 2 -3 2 
6133 5 0.435688 0.426225 0.0515259 -4 1 6 
6570 6 0.0869802 0.438912 0.0611355 -6 4 2 
6015 5 0.249778 0.456752 0.0529118 -1 0 1 
8366 5 0.616458 0.465567 0.115265 -2 0 -2 
5870 5 0.0273315 0.443884 0.1359 2 -3 -3 
7510 5 0.920454 0.458227 0.0744659 -3 1 3 
7550 6 0.148203 0.507339 0.0237485 -4 -2 0 
8514 6 0.292386 0.519032 0.0582695 -2 -2 -2 
6002 6 0.827533 0.538053 0.0782519 0 3 0 
5223 6 0.149201 0.541627 0.0567333 1 5 4 
6160 5 0.0102278 0.589143 0.100377 1 0 4 
6529 6 0.562254 0.603963 0.0795525 2 -5 3 
8904 6 0.785684 0.580652 0.0770504 -1 2 -3 
8883 5 0.312975 0.665095 0.0949812 0 -3 2 
7907 6 0.519503 0.649529 0.0747299 -2 6 -2 
6599 6 0.707519 0.622839 0.0313267 -1 1 3 
6605 6 0.932314 0.624427 0.0691325 1 1 0 
7466 5 0.959568 0.649322 0.0708511 0 0 4 
8234 6 0.268437 0.608167 0.0796295 -1 -4 2 
7360 5 0.766271 0.662333 0.0698572 -1 3 0 
6843 6 0.179459 0.711498 0.0597895 -1 1 -2 
8249 5 0.393259 0.720528 0.070595 2 -6 7 
8097 6 0.436553 0.708021 0.10029 0 -3 1 
7949 6 0.734073 0.713883 0.0210256 -2 1 -4 
7382 6 0.827636 0.672746 0.0536436 1 3 0 
5969 6 0.871596 0.739046 0.122086 -3 2 4 
5440 6 0.0980632 0.707586 0.111323 3 0 2 
8268 6 0.682579 0.72642 0.102439 -2 2 0 
6917 5 0.12412 0.79093 0.0797402 -3 -1 -4 
7467 5 0.452908 0.803 0.0303922 3 -1 -2 
5704 6 0.550083 0.809954 0.0913102 0 0 -6 
8820 6 0.639198 0.817909 0.0680088 -7 -2 -3 
5196 6 0.231937 0.806952 0.0710806 -1 -1 -1 
5504 5 0.394263 0.89159 0.0975051 -2 2 -3 
5615 5 0.858027 0.794242 0.0865638 2 -1 1 
6733 6 0.889378 0.825474 0.0811538 2 -4 3 
8875 6 0.115973 0.878329 0.0401408 1 -2 2 
7672 6 0.671302 0.890776 0.0652892 -3 -6 -2 
6347 5 0.971526 0.889791 0.0451181 1 -1 -2 
5521 5 0.999196 0.899408 0.0831277 -5 -4 2 
6943 6 0.0083004 0.924378 0.0962897 0 2 0 
5131 6 0.108932 0.903777 0.0972 2 -2 5 
5978 6 0.280193 0.95126 0.0989236 0 0 0 
8800 6 0.316081 0.90179 0.0769164 0 -2 -6 
8456 6 0.372733 0.920334 0.0323228 -5 3 2 
7280 6 0.406311 0.92764 0.0706089 -2 2 0 
8361 5 0.204782 0.958662 0.061703 -2 -5 5 
7146 5 0.552588 0.953765 0.0416461 -5 2 -7 
7583 6 0.649459 0.961635 0.0787485 -2 -2 2 
5861 6 0.768158 0.946545 0.0829836 -2 -1 -9 
8018 6 0.892821 0.976073 0.0809118 -2 0 0 
5748 5 0.824708 0.997202 0.0791541 -3 5 -1 
5192 6 0.245451 0.956646 0.0903727 -3 2 -1 
7747 6 0.80023 0.988815 0.0714975 2 1 1 
5018 5 0.865404 0.0344843 0.12319 -1 3 2 
6637 6 0.725282 0.0495948 0.0916099 0 1 -2 
8219 5 0.213305 0.0420371 0.100578 0 -1 -5 
8160 5 0.777466 0.0625386 0.073315 2 0 2 
8264 6 0.893906 0.0334296 0.116102 2 -2 2 
8572 6 0.360345 0.0461573 0.111303 -5 2 1 
5873 5 0.0132195 0.0822063 0.127653 1 -1 -1 
5044 6 0.0354832 0.123206 0.107002 2 -2 5 
7720 5 0.313543 0.109558 0.055227 0 1 4 
5089 6 0.424958 0.140137 0.107429 1 -6 1 
7389 6 0.541379 0.1037 0.131548 -2 -1 0 
6861 6 0.632114 0.159653 0.0847159 4 0 4 
6348 5 0.985629 0.179001 0.096805 -2 -1 -3 
6148 6 0.705502 0.193228 0.122622 0 3 -2 
5726 6 0.509127 0.185431 0.109919 -3 0 -4 
7048 6 0.356742 0.244157 0.141425 3 1 5 
6326 6 0.55543 0.247777 0.133419 2 4 -1 
5847 5 0.245004 0.239723 0.0999716 4 -2 -3 
7039 5 0.382265 0.268302 0.0820473 0 -1 -1 
6286 6 0.626379 0.285334 0.0993622 2 -1 1 
8368 5 0.973803 0.2772 0.106332 -3 -4 2 
5774 5 0.0955223 0.29641 0.115974 2 -1 7 
7167 6 0.0885504 0.333756 0.103956 1 1 -1 
5888 6 0.190923 0.322302 0.0688136 2 -2 2 
8205 6 0.554904 0.327535 0.0513686 -2 4 2 
7654 5 0.277078 0.337879 0.109892 4 -4 2 
5045 6 0.498843 0.337547 0.115202 -2 3 2 
5838 6 0.87752 0.369322 0.114568 -2 0 3 
5950 6 0.271999 0.383929 0.0781855 -2 4 4 
7878 6 0.0663555 0.377464 0.0426307 -1 -5 -1 
6357 5 0.440695 0.429026 0.111832 -4 3 -1 
5818 5 0.305873 0.427759 0.0987073 3 -4 0 
8305 5 0.677701 0.374551 0.0836692 -5 -2 3 
8849 5 0.197668 0.441126 0.0912271 7 -5 1 
6972 6 0.212185 0.439227 0.106258 1 3 -2 
6824 6 0.993543 0.488025 0.104062 0 -3 3 
7021 5 0.737235 0.447878 0.125976 -4 -1 6 
8660 6 0.764481 0.415697 0.114213 2 -1 -1 
6376 5 0.322221 0.491583 0.091296 -5 -2 -2 
5781 5 0.514838 0.4857 0.0897954 3 2 -2 
8231 6 0.0480807 0.52232 0.106261 3 4 -2 
5064 5 0.300075 0.528035 0.106235 -5 -1 3 
7536 5 0.47223 0.524323 0.0954416 -8 -6 -2 
6581 6 0.369408 0.540837 0.103989 -3 -5 0 
6009 6 0.571036 0.577187 0.0748889 0 -3 3 
7615 5 0.647281 0.561137 0.11462 0 1 0 
5694 6 0.847067 0.538663 0.0957374 0 -2 1 
5372 5 0.91654 0.564187 0.0943808 -1 1 5 
7028 5 0.10076 0.585257 0.0780893 3 -1 -2 
6695 6 0.271302 0.629848 0.0922343 0 0 -3 
5284 5 0.283956 0.585515 0.109134 -1 -5 1 
8699 6 0.594406 0.618519 0.0960996 -1 -5 -2 
8856 6 0.946051 0.54995 0.0935765 1 -1 -2 
6595 6 0.33006 0.638453 0.0906763 -1 3 -2 
6656 6 0.833166 0.625912 0.105152 -4 4 -1 
8149 6 0.208344 0.67747 0.119264 -1 -3 -1 
5501 5 0.538952 0.690973 0.15173 1 1 3 
5217 6 0.308396 0.64916 0.110232 -4 -3 1 
6224 5 0.841448 0.669407 0.0789071 -5 -1 3 
7393 5 0.177581 0.719238 0.0579569 -1 -4 0 
5542 6 0.501774 0.698011 0.122984 -1 -1 1 
6104 6 0.758593 0.728771 0.0827707 0 -7 -3 
6663 6 0.466771 0.725426 0.114164 -1 -1 -1 
7046 6 0.357584 0.765606 0.0887553 3 -1 3 
5618 5 0.483213 0.827474 0.0821611 -1 -3 7 
7930 6 0.981817 0.885156 0.104121 -2 -4 -2 
7958 5 0.145103 0.885725 0.109663 -1 0 -1 
5949 6 0.0879778 0.955276 0.107896 -4 -2 -1 
6120 5 0.470556 0.913069 0.0577648 -3 2 1 
7085 5 0.767688 0.94007 0.111126 -3 -4 0 
6597 6 0.381829 0.971645 0.105415 2 -1 5 
5799 6 0.448553 0.970263 0.0752224 -1 5 -4 
7901 5 0.162777 0.0566854 0.110798 -4 5 -2 
6964 5 0.863219 0.979342 0.140411 -3 -3 0 
6184 5 0.295564 0.0698832 0.10633 3 -4 0 
8367 5 0.363181 0.0793406 0.0984619 -2 3 9 
6886 5 0.587145 0.0624101 0.0912838 1 -1 1 
8877 6 0.689091 0.110309 0.110028 -1 3 0 
6516 5 0.992566 0.124194 0.12067 -2 -2 -1 
8283 5 0.596295 0.126945 0.127289 3 1 3 
5941 5 0.558333 0.108621 0.148247 2 4 5 
5817 5 0.994004 0.138695 0.146453 4 1 0 
7773 6 0.802402 0.0953629 0.116515 1 1 -1 
6594 6 0.858304 0.22677 0.0919334 -3 -1 -4 
7321 6 0.402713 0.194267 0.0981489 3 0 2 
8536 6 0.355956 0.149268 0.116119 0 -1 2 
8843 6 0.755129 0.202457 0.16175 -1 3 2 
7099 5 0.922242 0.233077 0.0852563 0 -3 5 
6576 6 0.607161 0.154705 0.124731 -4 -1 5 
8297 5 0.878912 0.206115 0.110524 -3 1 5 
6804 6 0.902812 0.215473 0.101825 -2 2 0 
8399 6 0.231169 0.236297 0.155228 2 1 2 
5863 5 0.153326 0.318634 0.141132 3 -1 0 
6180 5 0.0634341 0.323053 0.115437 1 -6 -2 
8821 6 0.0489036 0.312714 0.128347 1 3 2 
8757 6 0.307959 0.295435 0.101053 -3 -2 -2 
6108 5 0.0567878 0.342311 0.130777 0 2 1 
8480 5 0.129877 0.369539 0.147683 3 -2 2 
6718 6 0.198459 0.338716 0.10124 0 -4 3 
6220 5 0.21587 0.352332 0.133803 1 -2 -2 
7289 5 0.519274 0.354888 0.111966 -3 -2 5 
8336 5 0.520486 0.31709 0.137673 -1 4 -1 
5773 5 0.308727 0.399393 0.136987 3 -3 2 
7325 6 0.309037 0.405911 0.132519 -2 0 -2 
8770 5 0.43632 0.414277 0.115306 0 -5 -1 
6918 6 0.704461 0.348008 0.106649 2 1 1 
8324 6 0.77553 0.410266 0.115982 2 -3 5 
7053 5 0.392673 0.447663 0.113742 -3 -6 4 
8521 5 0.253695 0.427188 0.131327 0 -2 3 
5879 6 0.755249 0.44219 0.138723 3 -1 4 
8452 6 0.777175 0.420986 0.12033 2 -2 -1 
6000 5 0.976696 0.460857 0.129163 -1 1 -4 
5714 5 0.382572 0.479857 0.153735 -7 0 -2 
8373 5 0.389949 0.478417 0.131422 1 0 -1 
8976 6 0.0720897 0.464851 0.177022 1 0 0 
7728 5 0.587381 0.470913 0.132149 1 5 -1 
7735 5 0.999879 0.539025 0.101771 -2 0 3 
6666 6 0.956143 0.471307 0.122357 3 1 2 
8128 6 0.0934307 0.498396 0.0982099 -1 1 -6 
8053 5 0.213378 0.521257 0.110111 -3 0 -3 
7441 5 0.441439 0.577941 0.121029 -4 1 -1 
6796 6 0.637661 0.540486 0.140038 -4 -3 -1 
5491 5 0.481242 0.606705 0.127736 8 -3 0 
7924 6 0.422669 0.679769 0.122893 -1 1 -2 
7650 5 0.506399 0.634833 0.129943 0 0 -1 
5392 6 0.537988 0.599478 0.135812 -5 -1 -3 
8161 6 0.851218 0.62112 0.116078 -1 -2 2 
7760 6 0.0301223 0.667383 0.0860171 -2 0 -1 
7732 6 0.0713524 0.694787 0.0792736 0 -3 -1 
7069 6 0.475147 0.697617 0.14748 2 2 -1 
5953 5 0.721463 0.663997 0.135213 1 1 -1 
6138 5 0.73489 0.654038 0.107589 1 0 7 
6051 5 0.209043 0.672479 0.140357 7 3 -2 
8779 5 0.944127 0.668171 0.12088 -8 -5 6 
7987 6 0.641369 0.755451 0.11291 6 1 -2 
5743 6 0.73491 0.723677 0.115902 -1 -1 -3 
7741 5 0.226714 0.769852 0.116889 0 4 2 
8961 6 0.556276 0.805582 0.144527 -1 0 -2 
8252 6 0.41208 0.768275 0.105153 -1 4 2 
5065 5 0.79479 0.81639 0.116943 -1 1 2 
6178 6 0.827261 0.810975 0.137805 -2 4 2 
7225 5 0.0441365 0.838385 0.0980849 0 1 -1 
5297 6 0.820173 0.808017 0.103769 1 -2 -8 
7278 6 0.346405 0.889128 0.160381 -3 2 4 
6885 6 0.0503219 0.893743 0.108713 0 -4 1 
8861 5 0.494848 0.912382 0.11172 5 -2 -4 
5429 6 0.0947006 0.967308 0.114939 1 0 -4 
5011 5 0.906986 0.971863 0.106967 1 -4 -2 
8106 6 0.990865 0.938778 0.111468 -2 2 3 
7002 6 0.415894 0.966397 0.0905462 -3 0 3 
6414 6 0.551672 0.986337 0.12997 -2 -5 3 
5393 6 0.00270892 0.958949 0.142958 3 4 -2 
6201 6 0.284437 0.0150977 0.125113 -2 4 2 
6398 5 0.825571 0.058367 0.16286 -3 -2 5 
7097 6 0.915112 -0.00105289 0.162947 1 6 -1 
5828 5 0.937059 0.0139621 0.162857 0 1 1 
5414 6 0.262922 0.082745 0.198293 1 -1 -5 
6277 6 0.0983613 0.0813879 0.0937626 5 -3 3 
6342 5 0.143061 0.0577648 0.151271 3 6 5 
5614 6 0.309855 0.0706778 0.123578 6 4 -1 
6951 6 0.306818 0.0713182 0.185914 1 1 1 
5261 6 0.44275 0.112861 0.152555 0 3 0 
8801 6 0.504404 0.110276 0.171013 2 -1 5 
8910 6 0.869784 0.105889 0.185317 -6 0 3 
7116 6 0.216169 0.116249 0.192218 0 3 -5 
7407 6 0.238614 0.136082 0.134397 5 1 -1 
8631 5 0.303231 0.112867 0.186941 0 0 0 
5230 6 0.0433227 0.151021 0.141605 -2 -1 -3 
8528 6 0.145618 0.14747 0.134583 -5 1 2 
7764 6 0.183427 0.186474 0.121741 0 -1 2 
8302 5 0.401908 0.163926 0.155545 -2 2 1 
8124 6 0.969717 0.15883 0.153963 6 2 4 
7383 5 0.0994153 0.237844 0.133667 -1 0 1 
8947 6 0.119965 0.278511 0.181566 -5 1 2 
5830 6 0.337359 0.275438 0.129815 0 1 5 
5338 6 0.666717 0.248792 0.155848 1 -1 4 
5278 6 0.160863 0.290687 0.124477 1 -1 3 
5510 5 0.180968 0.284831 0.138405 0 -1 0 
6879 5 0.299094 0.295863 0.145398 -1 -3 1 
8478 5 0.169924 0.338219 0.134454 -1 -2 2 
5611 5 0.765138 0.320272 0.14329 2 5 2 
7553 5 0.533595 0.373581 0.178173 -3 5 2 
5314 5 0.758532 0.32194 0.130409 2 1 6 
5140 6 0.061852 0.35161 0.132971 1 -4 3 
7880 5 0.293196 0.395635 0.106499 -3 -1 -2 
5613 6 0.683236 0.393597 0.11915 -1 -1 3 
6038 6 0.471149 0.396772 0.156203 4 -2 2 
5007 6 0.8492 0.40535 0.136805 -1 -2 1 
7162 5 0.432376 0.452139 0.161792 2 4 3 
6519 6 0.692674 0.516709 0.134251 -1 -1 0 
6658 6 0.843927 0.498003 0.208556 0 5 2 
5887 6 0.166987 0.501675 0.145373 2 -4 0 
5982 5 0.557018 0.544874 0.156831 1 -4 0 
6732 5 0.792767 0.517171 0.163639 -6 5 2 
8087 5 0.637349 0.522216 0.164313 3 -3 3 
8045 6 0.364481 0.559669 0.14851 2 -2 -4 
8986 5 0.739567 0.563227 0.16128 0 -3 -1 
5306 5 0.973417 0.603325 0.15246 -1 -2 0 
5128 5 0.725798 0.592237 0.171765 1 0 -6 
8696 5 0.909832 0.6087 0.154968 -2 5 -5 
6568 5 0.496218 0.632897 0.168557 0 4 2 
8815 5 0.00527265 0.656723 0.187033 -1 -4 -1 
8277 5 0.177092 0.672916 0.153323 3 1 4 
7174 5 0.899454 0.655352 0.12301 0 1 7 
6608 6 0.646425 0.732399 0.12408 -2 -3 1 
5098 6 0.367329 0.753934 0.144386 0 -3 6 
5352 6 0.378302 0.77823 0.12161 7 -6 3 
5497 5 0.67836 0.786365 0.100275 1 5 1 
8079 5 0.905211 0.814219 0.104959 1 1 5 
8939 6 0.908636 0.818259 0.141191 2 -2 1 
8375 5 0.789003 0.832549 0.167372 -2 -2 3 
5522 6 0.0214752 0.897268 0.0878673 -2 1 1 
8794 5 0.728444 0.850873 0.178646 -4 -2 1 
5946 6 0.838994 0.875236 0.124983 -4 -3 0 
7647 5 0.0368481 0.901368 0.147048 3 -3 0 
8237 6 0.546487 0.939757 0.176652 -1 0 -1 
7956 6 0.183252 0.951988 0.11759 -1 -3 -4 
8764 6 0.334255 0.94165 0.165212 -1 -3 -4 
8344 6 0.476477 0.916749 0.136602 2 -4 4 
8190 6 0.298398 0.982061 0.119981 -1 -1 -2 
5172 5 0.572043 0.962046 0.143922 -1 0 -3 
5875 6 0.719292 0.974082 0.167507 0 2 -3 
6552 6 0.186438 0.0186436 0.181403 -2 3 1 
5097 6 0.203688 0.029265 0.168641 0 0 0 
8020 6 0.325782 0.0392189 0.190752 0 0 -4 
8680 5 0.626652 0.0357761 0.167227 -6 1 1 
5142 5 0.132576 0.0348961 0.143018 1 1 -1 
6927 5 0.767045 0.0415768 0.138931 3 -4 4 
5452 6 0.429049 0.00631727 0.200193 0 2 -3 
6446 6 0.47847 0.118999 0.151242 -3 2 -1 
6047 6 0.180506 0.151095 0.170751 3 7 -1 
6638 5 0.6365 0.145804 0.145457 4 1 0 
6050 5 0.734045 0.157054 0.163374 0 0 4 
5486 6 0.365099 0.162319 0.169864 -2 -3 1 
5538 6 0.463868 0.176661 0.168795 4 0 8 
6232 5 0.561871 0.185696 0.153032 -3 1 1 
5495 5 0.806412 0.226918 0.161129 -3 0 7 
6790 6 0.130471 0.249589 0.185848 1 3 3 
8982 5 0.557627 0.200137 0.175292 0 -2 1 
7678 6 0.892484 0.174449 0.151177 -3 0 5 
8450 6 0.40781 0.201203 0.184367 -1 2 -4 
6569 5 0.402611 0.224712 0.166495 2 2 -2 
7658 6 0.742454 0.232741 0.15651 0 3 -1 
6395 5 0.00838109 0.295442 0.173429 6 1 2 
8008 5 0.0939103 0.260302 0.177122 -5 2 4 
8254 6 0.654597 0.249514 0.186749 1 1 1 
8054 6 0.445643 0.297855 0.151874 3 -5 3 
5690 5 0.39045 0.294767 0.158264 -6 -3 0 
7098 5 0.804021 0.260045 0.193269 -4 0 2 
6450 5 0.910053 0.289394 0.187655 3 0 0 
6278 6 0.178502 0.308519 0.180978 -1 1 1 
7903 6 0.146171 0.332141 0.190482 1 1 1 
7173 5 0.354371 0.275966 0.190996 5 -1 3 
5111 5 0.385609 0.298905 0.176405 0 1 -3 
6214 5 0.0846449 0.312981 0.167912 3 3 2 
6712 6 0.780304 0.334821 0.180552 2 3 -1 
6217 6 0.798365 0.330713 0.184917 -3 2 2 
6142 5 0.972444 0.355503 0.153172 4 1 -2 
7031 6 0.447935 0.369363 0.228701 -3 1 2 
7236 6 0.549057 0.362436 0.1722 5 -1 -3 
7554 5 0.615425 0.399814 0.170437 2 5 1 
7605 6 0.987734 0.406824 0.191877 -5 -2 -3 
8841 6 0.489176 0.401384 0.195809 3 -2 4 
5581 5 0.212874 0.471912 0.154854 -4 0 0 
5229 6 0.0291945 0.417593 0.190815 0 2 -2 
7435 5 0.892219 0.460811 0.188833 1 -8 3 
8591 6 0.493143 0.49268 0.158377 2 -3 3 
7195 6 0.730275 0.503053 0.164766 0 -1 3 
5245 5 0.0158103 0.524473 0.16182 -1 -2 5 
6433 5 0.409014 0.473236 0.139306 4 -1 -1 
7522 6 0.570975 0.538868 0.128231 -4 3 2 
6290 5 0.883029 0.539387 0.166069 -2 1 -3 
5079 5 0.0664685 0.554523 0.174891 -1 3 4 
5029 5 0.0556062 0.598883 0.170616 2 3 3 
5925 6 0.203285 0.599642 0.193353 4 -2 -3 
7253 6 0.215046 0.551582 0.136098 0 0 -5 
8177 5 0.380956 0.57701 0.18319 0 4 4 
5669 5 0.464952 0.598782 0.158298 -2 -3 -1 
8390 6 0.635265 0.627605 0.17377 0 3 5 
5729 6 0.473715 0.599852 0.174893 2 1 -3 
5253 5 0.981716 0.668224 0.162552 1 -1 6 
5132 6 0.431986 0.6351 0.178615 1 1 1 
5815 6 0.474724 0.618725 0.140795 2 -2 -3 
6194 6 0.107787 0.68698 0.167305 1 1 0 
5990 5 0.311009 0.653986 0.168152 3 -2 0 
6351 5 0.532599 0.675417 0.137701 3 1 0 
6729 6 0.556892 0.690545 0.225508 -2 0 -5 
8829 6 0.165612 0.713281 0.155283 -1 -2 0 
6246 5 0.758233 0.696699 0.196954 -2 3 5 
6912 5 0.773337 0.690012 0.198423 1 -3 -3 
5858 5 0.572707 0.712869 0.138 -1 -1 2 
5855 5 0.68605 0.695642 0.1549 -5 -2 0 
8243 5 0.22077 0.787889 0.186773 1 -1 -1 
5228 6 0.568247 0.770822 0.106412 -2 -1 -2 
7910 6 0.888504 0.752246 0.147068 -2 -1 0 
7718 5 0.594497 0.805122 0.191372 3 1 2 
7030 5 0.208555 0.802334 0.170755 4 1 -6 
7960 5 0.455809 0.778092 0.170817 -4 3 -3 
8812 5 0.827739 0.792664 0.145474 -2 -3 -3 
8229 5 0.046261 0.833745 0.213475 4 3 -2 
5670 6 0.223793 0.804157 0.160722 1 0 -1 
8216 6 0.287752 0.877622 0.14292 0 3 1 
5520 5 0.0408529 0.913958 0.117479 2 4 0 
6934 6 0.365159 0.909373 0.193662 0 4 0 
7244 6 0.500563 0.907121 0.147408 -1 0 -4 
7563 6 0.620003 0.955297 0.140826 -3 -3 1 
6276 5 0.748745 0.90844 0.188943 1 2 0 
7038 6 0.710287 0.937653 0.157532 2 -2 3 
5947 5 0.829853 0.932257 0.194287 2 -6 -1 
8944 6 0.936435 0.942238 0.184631 2 0 3 
5388 5 0.0379072 0.0213842 0.159317 0 4 3 
6827 5 0.0954817 0.000628558 0.178241 2 -1 -1 
6422 5 0.144677 0.984396 0.192032 -2 1 -4 
7275 6 0.127354 0.999604 0.197305 1 -5 5 
5436 6 0.298088 0.027671 0.183522 2 0 -1 
6771 6 0.359247 0.0351938 0.155468 3 -1 2 
8994 5 0.849633 0.99543 0.159053 0 -2 -1 
7254 5 0.692942 0.0116796 0.201589 2 1 2 
7743 5 0.708413 0.0214316 0.175037 0 3 4 
6186 5 0.787343 0.0157738 0.193252 2 -4 -4 
7147 6 0.601937 0.0793339 0.206943 -3 0 2 
6392 6 0.918901 0.0434978 0.166945 -4 -2 -2 
5004 6 0.0720909 0.0641445 0.204675 -1 0 0 
8428 6 0.520782 0.0767822 0.18697 -1 3 0 
6698 5 0.727182 0.06433 0.22344 -2 1 2 
5630 5 0.0462259 0.116581 0.175232 -4 0 -3 
7700 5 0.137014 0.19859 0.179291 2 -4 2 
6325 5 0.592875 0.139926 0.170212 1 -1 -4 
6536 6 0.439521 0.203395 0.174507 -2 0 4 
6540 5 0.338941 0.230236 0.197685 4 -3 -1 
8168 5 0.252508 0.262833 0.152427 2 1 5 
8719 6 0.339933 0.26205 0.184294 -1 5 0 
6495 6 0.361684 0.281006 0.213184 -5 -1 3 
8518 5 0.482941 0.270284 0.194042 3 2 0 
5386 6 0.147781 0.293216 0.212049 -3 -1 1 
7136 6 0.636854 0.294137 0.221093 -1 7 3 
6003 6 0.923867 0.319864 0.190246 -2 2 2 
6762 5 0.839006 0.371487 0.195504 0 3 4 
8715 6 0.890611 0.379197 0.201368 -3 -2 1 
6837 5 0.100147 0.361906 0.198992 -2 0 3 
7471 6 0.907823 0.371526 0.167806 -9 -3 3 
5147 5 0.201813 0.428146 0.198205 -1 1 2 
5971 6 0.390554 0.404056 0.197164 -4 5 0 
6022 6 0.65222 0.406796 0.204529 -1 5 -4 
5509 5 0.996413 0.410311 0.216162 3 4 3 
7255 6 0.434999 0.425475 0.195259 -2 0 -3 
5119 6 0.456414 0.441876 0.18074 1 -1 0 
5770 6 0.200468 0.453227 0.230924 3 3 -3 
6550 5 0.151528 0.462328 0.209008 -1 -6 2 
6320 5 0.23415 0.463872 0.211462 5 -2 2 
8544 6 0.331244 0.506177 0.212459 4 1 -6 
8675 6 0.396141 0.533013 0.19051 -1 4 5 
5498 5 0.143439 0.479384 0.185595 -1 2 -2 
8966 6 0.436426 0.584155 0.193412 -1 6 -1 
6487 6 0.492208 0.535971 0.19291 0 6 0 
5156 5 0.644713 0.559753 0.205183 -4 2 2 
8693 6 0.727084 0.554858 0.199054 -1 -1 3 
8935 5 0.856537 0.554844 0.199973 -4 -4 1 
6402 6 0.914729 0.564079 0.154062 1 4 -1 
6443 5 0.489366 0.58997 0.173832 -2 0 0 
7893 5 0.975323 0.621223 0.17445 1 0 3 
5311 5 0.727655 0.646366 0.177736 1 2 2 
7103 6 0.90603 0.608683 0.255116 4 -3 -1 
5842 6 0.551935 0.661593 0.211978 1 -1 2 
6947 6 0.58294 0.6115 0.187647 3 3 1 
6371 6 0.250189 0.661485 0.18007 3 4 2 
6020 6 0.812142 0.643361 0.202476 8 -5 1 
5126 6 0.157459 0.663061 0.177852 4 -4 -1 
7577 6 0.613861 0.677023 0.16346 -2 -1 4 
7010 5 0.565562 0.679069 0.196448 1 -2 -1 
7777 6 0.930437 0.629279 0.216712 3 -1 1 
7324 6 0.990792 0.686479 0.161089 -3 -2 3 
7560 6 0.0339393 0.748525 0.181657 0 2 -1 
6930 6 0.223876 0.703548 0.165647 1 3 -4 
8789 5 0.688469 0.734918 0.19072 1 4 -2 
8397 6 0.990161 0.811937 0.193822 -3 -5 4 
6474 6 0.825983 0.770605 0.162498 -2 1 -2 
6417 5 0.309097 0.834434 0.204442 0 0 0 
7372 5 0.355734 0.825483 0.198011 7 3 4 
5481 6 0.673902 0.846162 0.223562 6 0 -3 
5965 6 0.995372 0.829725 0.149249 -2 -4 -2 
7754 6 0.986322 0.868664 0.183541 0 -2 3 