ITEM: TIMESTEP
20000000
ITEM: NUMBER OF ATOMS
9000
ITEM: BOX BOUNDS pp pp pp
-75 75
-75 75
-75 75
ITEM: ATOMS id type xs ys zs ix iy iz 
5654 6 0.703653 0.0891609 0.0051491 2 2 -6 
6887 6 0.778571 0.033515 0.987592 4 0 2 
7993 6 0.905976 0.036739 0.0160348 0 0 -7 
6119 6 0.303824 0.0237261 0.0386396 -2 -1 3 
8917 6 0.0226727 0.0615966 0.000182266 6 5 6 
5998 5 0.177293 0.021061 0.997343 0 -1 -2 
6320 6 0.798798 0.107978 0.987808 0 3 4 
8253 5 0.281766 0.0855574 0.00150249 4 6 -8 
5811 5 0.283291 0.0990032 0.0114715 2 5 -1 
5260 5 0.320771 0.11711 0.0384746 1 -4 2 
6572 6 0.991508 0.113515 0.994945 -3 2 -1 
6048 5 0.774514 0.139983 0.00233603 0 4 4 
7644 6 0.270409 0.221161 0.0110555 2 1 4 
8393 6 0.608581 0.143115 0.0195248 0 0 4 
8223 6 0.118832 0.167694 0.993123 1 5 2 
5173 6 0.639863 0.163806 0.99782 3 2 1 
5798 5 0.384157 0.199704 0.0448877 4 -3 5 
7991 6 0.810994 0.227476 0.987955 0 -3 -5 
7829 5 0.939452 0.243193 0.989874 3 5 -2 
6271 6 0.984875 0.201027 0.983247 3 -3 -1 
5024 5 0.0622203 0.269278 0.0291981 -2 -1 0 
7432 5 0.7322 0.204532 0.0060501 -2 2 -1 
8271 6 0.142645 0.261663 0.0168708 2 2 3 
6631 6 0.290642 0.252115 0.990548 0 7 0 
7260 6 0.394289 0.34911 0.0377255 0 -3 -1 
7468 5 0.199216 0.33432 0.992053 -1 -1 0 
6168 5 0.29296 0.339427 0.00800703 0 0 3 
5598 6 0.455714 0.322799 0.00274582 1 -3 4 
7505 6 0.68778 0.357357 0.0345176 -2 6 -1 
6128 5 0.967863 0.364598 0.987848 2 3 1 
7577 5 0.261641 0.423039 0.0516996 0 -1 6 
8689 5 0.280052 0.40213 0.975352 1 -2 0 
7218 6 0.282833 0.421197 0.00743383 -3 -2 0 
6149 6 0.964052 0.406788 0.99674 -2 0 0 
5561 6 0.132207 0.431724 0.00247417 1 2 5 
6608 5 0.55829 0.436368 0.0130469 -1 -1 1 
8830 5 0.50389 0.462436 0.0207019 -3 1 0 
6039 6 0.963113 0.515853 0.0021683 -5 -1 4 
5095 5 0.392249 0.50153 0.0300948 7 -2 -6 
5491 6 0.576884 0.545944 0.981687 0 -3 -1 
6023 6 0.624515 0.58014 0.032375 5 4 -3 
8409 5 0.101912 0.580225 0.0233723 -4 -3 -3 
5661 5 0.60649 0.547882 0.0156747 1 -1 5 
5346 6 0.172191 0.583882 0.958052 -6 -2 2 
7593 5 0.892782 0.583486 0.0103079 4 2 -3 
7556 5 0.707779 0.609687 0.0181937 -2 3 8 
8605 6 0.874064 0.597926 0.00796969 3 0 -2 
6476 5 0.217507 0.666786 -0.00158748 0 -3 1 
8772 5 0.235669 0.641898 0.0187162 -6 0 -1 
7852 5 0.8773 0.657511 0.944203 -1 0 -1 
5822 6 0.939828 0.61905 0.984809 2 3 -3 
6203 6 0.985047 0.659022 0.0249279 2 1 2 
5685 6 0.154613 0.655732 0.97866 4 -4 -8 
7227 6 0.625283 0.66402 0.963776 -2 2 2 
7925 5 0.742459 0.737701 0.0135276 -3 5 -2 
6526 6 0.452029 0.717783 0.997461 1 -2 -2 
7017 6 0.453004 0.758895 0.0254342 2 -2 1 
7117 6 0.834451 0.75033 1.0019 3 -1 2 
8028 6 0.528019 0.758658 0.0392864 -3 -1 4 
7059 6 0.0641985 0.814971 0.0232509 6 3 3 
5023 5 0.37902 0.871892 0.990776 0 0 -4 
8995 5 0.545508 0.850516 0.978462 1 -2 -1 
8070 5 0.68335 0.850955 0.0157817 -5 -1 3 
6512 5 0.68869 0.862623 0.0169924 4 4 -1 
7862 6 0.967159 0.880019 0.024872 0 1 4 
6308 6 0.0924951 0.899272 0.986959 -3 -3 5 
5140 5 0.208769 0.872412 0.0117778 -4 -2 -5 
5670 5 0.344225 0.891583 0.0194084 0 1 -2 
6875 6 0.466134 0.904051 0.991324 1 -4 -1 
8198 6 0.902141 0.962519 0.0248253 -2 -2 2 
7205 6 0.863349 0.907821 0.0180459 0 -2 1 
7780 5 0.158512 0.924524 0.966429 2 1 2 
6766 6 0.0453567 0.975672 0.00668088 -2 0 -3 
5369 5 0.35159 0.978233 0.0278694 -2 -6 -2 
5634 6 0.345385 0.955501 0.0120039 5 0 3 
7808 5 0.394827 0.0011488 0.99548 1 3 -2 
6817 5 0.408164 0.982223 0.00698876 -1 -2 1 
8509 6 0.566682 0.981338 0.0389329 4 1 0 
8510 6 0.388635 0.0454802 0.00388323 4 3 2 
7787 5 0.643181 0.00634573 0.0696876 -2 -1 5 
5030 6 0.975138 0.990576 0.0200275 4 -3 -3 
6952 5 0.0295893 0.0244308 1.00152 0 0 -5 
6681 6 0.0197182 0.0697643 0.0177724 1 1 -4 
5871 6 0.216245 0.0878852 0.0431616 -1 1 4 
5927 5 0.71463 0.0546532 0.016985 -4 3 0 
8351 6 0.751363 0.0677914 0.0219552 -3 -4 1 
6115 6 0.555027 0.0923089 0.0273519 -5 -2 2 
7280 6 0.751331 0.0581533 -0.00069797 3 0 2 
5883 6 0.20201 0.123885 0.0346635 1 -3 -2 
6125 6 0.406291 0.0841595 0.98712 1 3 -1 
5688 6 0.154297 0.158808 0.0293514 1 -4 2 
8752 6 0.359287 0.116964 0.029866 1 1 -1 
8871 5 0.480505 0.0856827 0.0313264 -6 3 -1 
7582 6 0.589857 0.133005 0.0554165 0 1 1 
5027 5 0.944319 0.121548 0.0515705 -5 1 0 
6489 5 0.919436 0.204268 0.073653 -1 -2 -3 
6491 5 0.181853 0.180354 0.019382 1 -4 3 
7007 6 0.298784 0.175975 0.0204158 4 1 2 
6776 6 0.508101 0.181063 0.0296922 -4 2 -3 
5011 5 0.63408 0.193177 0.99826 -2 -3 -2 
6465 5 0.962626 0.205096 0.0377897 -6 3 1 
8085 5 0.433774 0.269416 0.0656551 2 3 -3 
8404 5 0.821371 0.266664 0.0858353 -1 3 -1 
6050 6 0.849111 0.2694 0.0432179 -3 -2 3 
7599 6 0.528639 0.304792 0.0214958 -4 -2 7 
8739 6 0.805388 0.278517 0.0492341 0 3 -3 
8552 6 0.94833 0.285204 0.0311362 -1 2 -2 
6425 6 0.0486362 0.336636 0.997639 6 0 -3 
5852 5 0.128356 0.3277 0.00933994 3 1 1 
5315 6 0.983115 0.300178 0.00583844 1 3 -5 
7285 5 0.0176082 0.335888 0.011545 0 -2 -1 
5276 5 0.128118 0.309419 0.0310216 8 -2 -3 
6844 6 0.878569 0.367794 0.0314033 -1 3 3 
7106 5 0.18827 0.393564 0.995957 -4 0 0 
6395 6 0.51542 0.427801 0.0450651 3 2 -4 
7532 5 0.791425 0.355758 0.0477317 -1 0 -1 
8265 6 0.023992 0.400207 0.0525682 -3 -4 -2 
8424 6 0.296571 0.401894 0.0115361 5 -2 1 
7020 6 0.548692 0.411528 0.0259466 0 4 -1 
6224 6 0.531534 0.392158 0.0218999 -2 2 -1 
8422 5 0.571811 0.427868 0.0367304 -1 1 -1 
8897 5 0.7107 0.45628 0.0380485 -1 1 -1 
7315 5 0.00996623 0.436606 0.0488473 -3 2 -2 
6953 6 0.559984 0.427506 0.0505852 1 0 2 
7519 5 0.608273 0.453398 0.075848 -2 5 0 
7504 5 0.67558 0.445672 0.0565715 -1 -2 3 
8301 6 0.381381 0.493654 0.0426693 -3 0 -3 
8362 5 0.489178 0.492939 0.0166325 1 2 -1 
7684 6 0.541891 0.480224 0.0455301 -1 5 5 
6380 6 0.524115 0.52713 0.0179799 2 -4 -4 
8551 5 0.301873 0.513963 0.0133211 2 1 2 
6924 5 0.586497 0.592244 0.990945 0 -4 0 
5674 6 0.631246 0.551994 0.0451804 -3 -3 2 
6079 5 0.965747 0.579219 0.0359342 -3 2 0 
5329 6 0.666755 0.585281 0.0331219 -1 2 4 
5076 5 0.812414 0.579113 0.0315649 -4 3 -5 
8001 6 0.98494 0.619163 0.0541893 -2 -2 2 
5144 6 0.366907 0.622173 0.0479289 -1 -1 0 
5267 6 0.905227 0.606405 0.0710206 1 -2 1 
6876 5 0.0329081 0.663712 0.0189747 -1 2 3 
5503 5 0.369226 0.62096 0.0301499 -2 7 2 
7691 6 0.180234 0.693871 0.0060112 3 -1 1 
7333 6 0.686825 0.692296 0.0306899 -2 -2 -2 
6315 6 0.630423 0.672597 0.0355679 3 -5 -3 
7801 5 0.425468 0.71036 0.035375 -1 -2 -2 
6257 5 0.774329 0.742566 0.0593328 1 0 4 
5499 5 0.0809859 0.699291 0.0212903 3 -3 3 
8901 5 0.209015 0.734268 0.0360861 -1 0 5 
8573 6 0.392116 0.761703 0.986329 1 2 2 
8990 5 0.303438 0.817814 0.996325 1 2 0 
7463 6 0.336036 0.782935 0.0801525 1 -4 2 
8604 6 0.3782 0.744277 0.0589979 -3 6 3 
7466 5 0.669244 0.781429 0.0100206 0 3 -1 
7729 5 0.0774795 0.784212 0.0226781 0 6 1 
5885 6 0.222665 0.846139 0.0220178 3 0 3 
5821 5 0.312065 0.823372 0.0197617 2 1 4 
5753 6 0.522305 0.828302 1.00045 -2 2 9 
7529 6 0.73336 0.829139 0.0350067 -2 -2 3 
6298 5 0.750973 0.873883 0.0420888 -4 -3 0 
7727 6 0.0882569 0.847292 0.0321528 -1 5 1 
5474 5 0.319183 0.882185 0.0243286 -3 0 -2 
6790 5 0.61335 0.908989 0.0388865 -2 -7 2 
8598 6 0.999869 0.855083 0.0466121 -1 0 0 
8471 5 0.118476 0.875353 0.0247348 -1 -3 -2 
6290 6 0.31056 0.885035 0.0445947 -2 -2 -4 
7168 5 0.510406 0.865742 0.0316522 -4 0 0 
7890 5 0.520212 0.953371 0.0127184 -1 -3 2 
6649 6 0.817741 0.896132 0.0576825 0 2 0 
8437 5 0.00707192 0.912332 0.0264495 -3 4 2 
8611 5 0.088103 0.937787 0.0393009 -4 -1 0 
6698 5 0.538945 0.954753 0.0269349 -5 1 2 
5869 6 0.721358 0.889252 0.0785169 3 -4 0 
7334 6 0.768661 0.944936 0.0524945 1 2 -3 
8613 5 0.21928 0.971865 0.0628147 0 -3 1 
7291 6 0.298023 0.969288 0.0364287 -1 0 4 
6046 6 0.461902 0.00531687 0.05635 6 3 1 
7464 5 0.54918 0.951175 0.0297811 -2 -5 0 
7101 5 0.507977 0.98226 0.0258805 3 -1 0 
8219 6 0.498446 0.00280096 0.0352925 -1 1 3 
8936 6 0.136663 0.0661231 0.0268243 0 3 3 
8819 5 0.233755 0.0198684 0.0793027 5 2 1 
8013 5 0.767398 0.0404884 0.0448452 4 0 4 
8027 6 0.929307 0.104262 0.0614063 -2 0 3 
7347 6 0.28184 0.142444 0.0581917 0 0 -3 
8782 6 0.428861 0.137484 0.035611 1 1 0 
8616 6 0.634765 0.128372 0.0611241 -1 6 -2 
8082 6 0.836425 0.123584 0.0566457 2 3 1 
7873 6 0.111493 0.186242 0.0635002 1 -1 3 
6171 6 0.118205 0.140285 0.0851092 0 4 -4 
8395 5 0.863428 0.165571 0.0975189 -2 5 -5 
8971 5 0.332292 0.164977 0.0629247 -1 3 4 
5786 6 0.136163 0.203191 0.0352023 0 2 3 
5358 5 0.582406 0.225076 0.0592942 0 -2 0 
6914 6 0.127822 0.242989 0.0558294 1 4 -5 
8765 6 0.14599 0.253544 0.0682057 2 2 2 
5677 6 0.397121 0.256525 0.0574797 -1 2 0 
8712 6 0.881563 0.192296 0.0324564 3 5 2 
8556 6 0.247094 0.227092 0.0551509 1 3 -2 
6097 6 0.511313 0.277132 0.0593502 -1 -2 -1 
8637 6 0.835493 0.241801 0.0346927 -2 2 3 
8148 5 0.152623 0.344897 0.0452937 0 0 0 
7606 6 0.183168 0.332291 0.0516411 -5 -4 -1 
7046 6 0.504575 0.347374 0.0144271 0 5 2 
6517 6 0.379286 0.367617 0.072663 5 -6 -3 
8111 5 0.227316 0.374046 0.0738565 0 3 -3 
8433 6 0.372604 0.406476 0.0869448 2 -5 -3 
6716 5 0.241707 0.450573 0.0554364 2 0 0 
6368 6 0.616457 0.48595 0.0511002 -4 -2 -1 
5142 5 0.72046 0.419221 0.0348523 -3 1 4 
8041 5 0.651154 0.454297 0.0641248 6 -1 0 
6056 6 0.960123 0.463081 0.0500302 0 1 -1 
6922 5 0.0665459 0.483517 0.0531704 -1 -4 5 
6055 5 0.0357038 0.497488 0.0357427 2 -1 2 
6804 6 0.0793478 0.444128 0.0428311 3 -3 -6 
7945 5 0.751189 0.487268 0.0295496 3 1 -1 
5867 5 0.959546 0.519702 0.0945521 -4 -5 2 
7209 6 0.378099 0.478217 0.0677192 0 4 -2 
5619 6 0.150614 0.605374 0.0647207 -3 0 3 
7788 6 0.799018 0.62914 0.0769578 -4 0 3 
7831 6 0.923342 0.657113 0.038692 -4 7 -1 
5014 5 0.43319 0.679147 0.0210907 1 -2 4 
6245 6 0.0430088 0.680585 0.0331599 -1 0 -1 
7521 5 0.195906 0.685964 0.0542298 1 0 -5 
7526 5 0.312378 0.694169 0.093371 1 -3 -2 
7072 5 0.927924 0.658258 0.111472 3 -1 2 
5035 5 0.278569 0.723929 0.0453951 3 -5 -3 
6749 6 0.332202 0.712175 0.0700142 2 -1 -4 
8678 5 0.7161 0.670884 0.0664705 1 2 2 
7356 5 0.998337 0.73604 0.0728008 -4 -1 5 
5018 5 0.23609 0.731628 0.0314516 2 -3 1 
8478 5 0.395052 0.783761 0.0724645 -1 -2 -1 
8118 6 0.909383 0.748698 0.0367154 -1 0 0 
6354 6 0.345495 0.790087 0.0551829 5 5 -1 
8385 6 0.00903936 0.813838 0.0834927 1 -2 4 
6272 5 0.130359 0.877174 0.0359011 2 2 4 
5510 6 0.0267128 0.892091 0.0709414 4 -2 1 
5333 6 0.261747 0.879877 0.0414738 3 -1 0 
7125 5 0.619086 0.888754 0.0407059 3 1 3 
7100 5 0.304128 0.899075 0.0649167 -3 0 -7 
6269 5 0.184534 0.0433247 0.998539 2 -1 0 
7454 5 0.885383 0.985101 0.0627271 -1 -1 -2 
8472 6 0.339568 0.968678 0.0221708 1 1 2 
7108 6 0.541006 -0.00106048 0.111979 2 3 7 
5387 6 0.929864 0.00625186 0.0960926 -3 1 3 
7958 6 0.817608 0.0642736 0.0665965 3 -2 -2 
6893 5 0.759531 0.0797794 0.0600905 4 5 3 
5641 5 0.296116 0.129152 0.0824257 -2 -4 1 
5684 6 0.248955 0.131332 0.0808629 -1 1 -4 
7922 6 0.0963474 0.243542 0.0784513 -2 -1 2 
5574 6 0.710264 0.260623 0.0445299 5 3 0 
5865 5 0.897362 0.29337 0.0961128 0 2 -2 
7880 6 0.447225 0.311807 0.0486265 0 2 2 
7518 6 0.473407 0.415274 0.105435 -7 -3 1 
8431 5 0.982299 0.379518 0.110893 1 -2 1 
7403 5 0.964764 0.395268 0.097664 2 -4 2 
5967 6 0.443422 0.418381 0.0969761 1 4 1 
6314 6 0.591116 0.434599 0.0649109 2 -1 2 
6365 6 0.338281 0.416758 0.103313 -1 -4 -5 
5242 6 0.687749 0.468238 0.100845 2 4 0 
5853 6 0.74853 0.413575 0.0808931 -7 2 4 
7084 6 0.937883 0.450659 0.0569032 -2 -3 0 
5683 6 0.320653 0.455057 0.0826427 -4 2 -1 
5252 6 0.298259 0.509584 0.0817663 7 0 3 
7589 6 0.921124 0.46252 0.0761371 -1 0 -1 
6818 5 0.168108 0.501255 0.108423 -6 3 3 
6668 5 0.491395 0.486837 0.0850164 -4 -1 1 
7513 6 0.648939 0.517316 0.0912882 0 3 3 
8072 6 0.689286 0.501676 0.0691376 2 0 -3 
6915 5 0.463104 0.578764 0.11057 -1 4 4 
7143 6 0.625484 0.577791 0.0743294 -5 -2 0 
7014 5 0.226174 0.613326 0.0737706 3 3 2 
7633 5 0.59377 0.618752 0.086955 3 -3 2 
5226 5 0.964098 0.607353 0.0326352 1 1 -1 
6826 6 0.333649 0.650979 0.0842549 -3 1 -2 
8149 6 0.432796 0.684797 0.0711655 0 0 -1 
7409 6 0.40731 0.75222 0.0764261 -4 -1 0 
6656 6 0.486278 0.678229 0.0844342 0 -5 5 
5288 5 0.939025 0.724759 0.0539136 -2 1 -2 
8399 5 0.0304744 0.705613 0.0816035 6 3 -1 
5790 5 0.529402 0.749448 0.0523145 -1 1 0 
5627 5 0.0523715 0.784492 0.135669 -1 -3 -2 
7557 5 0.0812385 0.786444 0.0849169 2 2 5 
7680 6 0.263545 0.791224 0.111296 4 0 4 
6528 6 0.100429 0.800252 0.111436 -2 1 4 
5669 6 0.437377 0.816089 0.0872177 -4 -4 3 
8521 5 0.450298 0.776293 0.10293 -6 3 3 
8985 6 0.517794 0.797026 0.0401254 -3 -1 -4 
5056 6 0.696221 0.809811 0.0992455 2 -2 -2 
7204 6 0.0209205 0.813958 0.0586294 5 2 4 
7773 5 0.128581 0.832372 0.112632 -2 2 1 
6742 6 0.697795 0.803122 0.0546747 -3 -4 2 
6712 6 0.89772 0.833603 0.0939638 -5 2 2 
5416 5 0.156187 0.847366 0.084374 0 2 -2 
5783 6 0.230956 0.844728 0.0787916 1 -2 2 
8706 5 0.931714 0.863476 0.0703243 1 -3 -5 
6744 6 0.399872 0.835616 0.0951602 1 0 0 
6787 6 0.942313 0.896032 0.0719147 1 -5 -2 
5472 6 0.972817 0.866536 0.104081 0 5 1 
5995 5 0.680549 0.919468 0.0924002 1 0 4 
6077 5 0.319507 0.953149 0.0834008 0 -6 0 
7742 6 0.349845 0.955629 0.104346 -4 -1 -2 
5175 6 0.351707 0.00653844 0.073909 0 0 1 
8218 5 0.443254 0.0451374 0.110521 4 0 2 
8764 5 0.0648525 0.0217295 0.110116 7 1 0 
5413 6 0.512888 0.0335482 0.0961249 2 2 1 
7972 5 0.823069 0.0477364 0.111751 1 -4 5 
5778 5 0.885417 0.0292238 0.139227 -1 1 2 
8954 6 0.323542 0.100468 0.112548 4 2 -6 
7622 5 0.982074 0.0733737 0.126524 -2 5 -1 
5635 5 0.972639 0.0878526 0.138986 6 4 2 
8380 6 0.165189 0.059034 0.0867627 2 7 -2 
7375 6 0.456669 0.0920116 0.0563827 -5 -1 -1 
6426 5 0.666173 0.0859923 0.117174 3 -2 -1 
6700 5 0.782321 0.113122 0.0959745 -6 2 -3 
8292 5 0.866882 0.0853113 0.123594 1 -2 -3 
8740 5 0.369611 0.14541 0.0962272 -2 4 0 
6285 6 0.341997 0.153957 0.123515 0 6 0 
5772 6 0.736718 0.121849 0.0702484 1 2 3 
7614 5 0.0135528 0.107454 0.125876 -1 4 5 
5660 6 0.12601 0.126224 0.0915622 0 7 -2 
5541 5 0.00943175 0.180003 0.135848 2 3 -2 
7778 6 0.281662 0.225738 0.0832902 3 1 5 
7180 5 0.417606 0.18739 0.118812 1 3 0 
7800 5 0.436315 0.207241 0.13395 -1 5 -1 
7251 5 0.208896 0.240097 0.128281 6 -4 0 
7070 6 0.259699 0.248868 0.101075 4 -4 0 
5689 5 0.136951 0.29238 0.128395 5 0 0 
6861 5 0.195358 0.304423 0.107064 -1 -2 0 
8999 6 0.584329 0.26612 0.0716431 0 4 5 
8196 6 0.870366 0.293159 0.0998924 -5 5 -3 
6984 6 0.142129 0.277771 0.106032 0 -2 4 
7643 6 0.307984 0.310566 0.100527 0 1 -1 
6141 6 0.746725 0.315868 0.112776 1 1 -1 
5799 5 0.914736 0.287371 0.143701 0 -1 3 
6340 6 0.0303034 0.357583 0.126195 4 -4 -2 
8864 5 0.111166 0.356596 0.130676 1 5 1 
8681 6 0.549349 0.394942 0.098161 1 -1 -5 
8349 5 0.217904 0.471398 0.131285 1 6 2 
6901 5 0.385339 0.489723 0.0891733 0 -2 -1 
7706 5 0.59083 0.508654 0.101492 2 -3 1 
8859 5 0.930797 0.495382 0.102557 -1 1 1 
8951 5 0.172572 0.523163 0.135519 4 2 3 
6841 5 0.329739 0.574336 0.110099 -1 0 -1 
6234 6 0.623944 0.527012 0.11526 1 -3 -3 
8530 5 0.60991 0.545527 0.105966 -1 -2 5 
7581 6 0.0411331 0.543124 0.0973914 1 4 1 
5325 6 0.365238 0.556336 0.0837488 -5 5 -3 
5188 6 0.934746 0.57063 0.0930703 1 1 3 
5321 6 0.284481 0.599162 0.0955988 0 4 3 
5937 5 0.431098 0.578282 0.103051 -2 -2 4 
5975 6 0.532965 0.599256 0.0932979 -2 1 -3 
7172 6 0.0478621 0.582981 0.0964591 2 -2 0 
6059 6 0.16691 0.600205 0.150871 -1 -2 3 
7898 5 0.37321 0.632178 0.0788208 0 1 -3 
6930 5 0.267287 0.619079 0.108952 -5 6 2 
5748 6 0.245011 0.636679 0.142656 1 3 1 
5764 5 0.506361 0.619057 0.079298 2 1 -3 
5050 6 0.572456 0.611982 0.11105 2 1 -1 
8583 6 0.0340763 0.615262 0.105394 5 -1 -5 
5527 6 0.0585311 0.605354 0.0883736 -2 -2 2 
8697 6 0.266215 0.638041 0.139752 1 3 1 
5523 6 0.503341 0.657044 0.12962 2 0 -1 
5789 5 0.711768 0.662723 0.106285 2 1 1 
5657 6 0.715209 0.605871 0.0966704 1 1 -1 
6213 6 0.203842 0.650148 0.0958301 0 2 1 
7379 6 0.607888 0.673679 0.111565 1 -4 1 
5345 5 0.835611 0.659074 0.0782596 -1 -2 -3 
6307 6 0.921017 0.667384 0.123197 -3 3 -6 
7351 6 0.69475 0.714353 0.0777964 -2 -1 2 
6629 6 0.982637 0.72434 0.10043 -3 0 2 
8988 5 0.222318 0.695167 0.0941632 2 0 4 
5820 5 0.384126 0.699346 0.12496 1 3 0 
7475 5 0.45007 0.737353 0.115316 -1 2 -3 
5354 6 0.920743 0.715416 0.137177 -1 1 4 
8403 6 0.365008 0.769275 0.0992348 -1 -5 6 
6019 5 0.344526 0.767436 0.130386 4 -4 -2 
6837 6 0.372265 0.750656 0.0963878 -2 1 -1 
8578 6 0.470992 0.705662 0.121415 -1 -4 0 
8146 6 0.336911 0.802344 0.118291 1 0 3 
8568 6 0.411646 0.830163 0.0832629 -2 -1 0 
7793 5 0.453582 0.824794 0.0911677 -1 1 3 
7716 5 0.732806 0.821171 0.106819 5 -1 -8 
6496 6 0.474733 0.82645 0.091725 1 -3 3 
5373 5 0.575628 0.761067 0.0930486 -3 3 0 
7754 5 0.832773 0.822606 0.0806085 -1 2 -4 
6599 6 0.243113 0.833774 0.100874 -1 0 2 
6374 6 0.430554 0.884882 0.0826208 7 1 4 
8998 6 0.982868 0.823445 0.129282 -1 0 9 
8629 5 0.0508471 0.856768 0.089835 -4 2 2 
6859 5 0.350716 0.867676 0.0927849 0 0 0 
5752 5 0.957603 0.896845 0.121027 -2 0 -2 
8003 6 0.437573 0.908988 0.103378 -2 -6 -3 
6590 6 0.509744 0.954602 0.0966967 -1 -6 1 
7161 6 0.77522 0.885461 0.125109 2 0 -3 
5284 6 0.506577 0.941357 0.119462 -2 -1 0 
6051 6 0.277625 0.981863 0.139037 0 4 1 
5465 6 0.734096 0.00658674 0.0809826 -1 -2 4 
8411 5 0.164665 0.988046 0.0953437 1 -2 0 
7480 6 0.248851 0.978996 0.122943 -1 -3 3 
5287 5 0.802311 0.00534372 0.118244 -3 -4 -1 
6671 6 0.392871 0.0289522 0.0954831 1 4 -2 
7292 6 0.502284 0.0297268 0.139763 -7 3 1 
8979 5 0.250587 0.0729189 0.1414 -2 0 -6 
7363 5 0.345528 0.0955777 0.123749 -3 -5 2 
6637 6 0.480195 0.0651206 0.132668 7 3 0 
6985 5 0.509396 0.0767892 0.160303 1 1 1 
7717 6 0.575131 0.0976305 0.0777099 -1 0 -5 
5451 6 0.879249 0.0694813 0.0943252 -3 -1 -5 
6860 5 0.438522 0.101024 0.129482 3 0 4 
8834 6 0.0287104 0.104516 0.14109 -5 -3 -2 
7512 6 0.390496 0.12004 0.131697 1 2 0 
8227 5 0.586598 0.127277 0.125462 5 1 4 
8946 5 0.580208 0.160994 0.116488 -1 2 4 
5128 5 0.156403 0.171078 0.0671612 2 -1 0 
6765 6 0.196858 0.232299 0.119809 1 -1 -2 
8676 5 0.350305 0.19912 0.16528 2 1 -3 
6707 5 0.473994 0.180165 0.0739635 3 -2 0 
5681 6 0.572008 0.212915 0.12257 2 -3 3 
5115 5 0.617845 0.168032 0.0759387 0 2 -1 
8097 6 0.879043 0.226408 0.0876828 0 4 -3 
5797 5 0.911263 0.201451 0.148504 -3 -2 -4 
8800 6 0.66839 0.22143 0.10273 -1 -1 -5 
6382 6 0.0866412 0.25657 0.103006 1 -2 4 
8908 6 0.350709 0.251672 0.104277 2 3 0 
7232 5 0.0114468 0.267746 0.143136 -1 1 -1 
8563 6 0.358781 0.254808 0.0932451 -2 3 1 
8664 6 0.736355 0.279183 0.125133 -1 -3 2 
8833 6 0.810649 0.253038 0.154611 2 0 0 
8168 6 0.716032 0.28759 0.156488 0 1 -2 
8969 6 0.0512183 0.322139 0.16374 3 0 -3 
6643 6 0.691357 0.295125 0.125996 2 5 -1 
6840 5 0.140721 0.306636 0.0647057 0 3 0 
8388 6 0.272444 0.351408 0.133174 1 1 -2 
7539 6 0.00402403 0.344808 0.0928229 3 -1 5 
6246 6 0.101351 0.336484 0.0892755 -1 -3 2 
7365 5 0.127972 0.339172 0.114004 3 0 -8 
7546 6 0.337908 0.391533 0.13096 -1 2 3 
6524 6 0.581746 0.461919 0.144436 3 1 3 
7008 6 0.199724 0.478055 0.144256 -2 3 0 
8903 6 0.274752 0.451686 0.103349 0 1 1 
6786 5 0.468546 0.399601 0.159387 0 -3 4 
5838 5 0.597025 0.510659 0.141534 4 4 3 
6533 5 0.95017 0.481789 0.121705 0 -6 1 
6232 6 0.797365 0.51578 0.0808133 1 1 2 
8840 5 0.553889 0.530631 0.119364 6 2 -1 
7576 6 0.833386 0.514831 0.110912 0 0 -3 
7390 6 0.186837 0.548482 0.127754 3 -1 3 
8846 5 0.521097 0.556395 0.11357 -4 3 -2 
7139 5 0.520514 0.55475 0.127797 1 -1 -3 
5650 6 0.807021 0.535447 0.126473 1 -1 -1 
8034 6 0.550653 0.618588 0.097678 -2 1 1 
6849 5 0.780066 0.598968 0.106563 2 -3 -1 
7999 5 0.955798 0.614581 0.125036 -3 -1 1 
7293 6 0.0510663 0.577797 0.131897 3 -3 -1 
7856 6 0.22012 0.707257 0.121468 -4 -4 -2 
6063 6 0.360146 0.650629 0.146893 1 1 -1 
5899 6 0.741437 0.645475 0.117148 -4 2 5 
6444 5 0.554562 0.691037 0.159534 -1 -1 -4 
6233 5 0.737804 0.718325 0.0939414 -2 -3 1 
5099 6 0.234151 0.751144 0.132782 3 -2 -2 
5994 5 0.0611487 0.78775 0.118648 -1 -2 1 
6894 6 0.308784 0.769243 0.109538 -1 3 -2 
8931 6 0.45866 0.762313 0.12439 -2 -3 4 
7459 5 0.219779 0.810042 0.100893 -1 2 0 
6726 6 0.744549 0.819928 0.118736 -1 -1 -2 
8308 5 0.183853 0.819845 0.109476 3 -2 3 
7541 6 0.484714 0.847179 0.154771 0 -3 1 
6878 5 0.597081 0.772343 0.112293 -2 -1 1 
8645 5 0.688424 0.836888 0.12831 -1 0 -3 
6222 5 0.388962 0.82834 0.0888777 1 -5 3 
5390 6 0.853885 0.870048 0.124333 -3 -3 -1 
7175 5 0.354681 0.924973 0.176044 1 -2 0 
6388 5 0.597499 0.855494 0.125863 -4 3 -5 
7806 5 0.68476 0.905036 0.122323 -3 0 10 
5229 5 0.770166 0.92894 0.124811 -1 -2 2 
8272 6 0.432067 0.00383497 0.112248 2 0 -2 
7912 6 0.610586 0.973209 0.120973 2 3 0 
7737 6 0.24408 0.963151 0.132486 8 -1 -3 
5841 5 0.392195 0.00802898 0.125562 1 3 0 
6327 5 0.446055 0.98544 0.135316 4 0 -7 
8575 6 0.526782 0.00212068 0.0864744 0 0 -1 
5068 6 0.806775 0.997103 0.0969928 -3 3 -1 
6562 5 0.841045 0.0236871 0.15388 2 -2 -4 
8560 5 0.984898 0.0236907 0.148169 -1 1 -1 
6124 5 0.0406315 0.0690201 0.156756 0 7 0 
8460 6 0.192626 0.0361889 0.170836 0 -3 7 
7696 6 0.0968178 0.14035 0.123245 7 -3 4 
5805 6 0.219435 0.0927845 0.132003 0 1 -1 
5010 6 0.317943 0.130314 0.158829 3 3 0 
6109 6 0.528416 0.141501 0.163891 2 -1 -2 
6185 6 0.561471 0.0879108 0.145277 1 -3 3 
8796 5 0.140805 0.166938 0.114424 0 0 4 
5665 6 0.235018 0.151224 0.138719 -2 0 -1 
7887 5 0.769461 0.143809 0.168425 -1 2 2 
8436 5 0.323401 0.18641 0.158617 4 -2 7 
8608 5 0.624086 0.219014 0.135258 -1 -1 5 
8236 6 0.880565 0.187211 0.152134 1 0 5 
5560 5 0.633791 0.244304 0.174689 -4 3 1 
7915 5 0.141426 0.242269 0.147891 -2 -2 0 
5231 6 0.200006 0.236097 0.158367 -3 1 1 
5991 5 0.462205 0.269151 0.153329 5 -3 -3 
8160 5 0.708968 0.249988 0.156308 -1 -1 -1 
6897 6 0.0563453 0.260501 0.13671 2 2 0 
5170 6 0.20591 0.278714 0.169883 -3 -1 -3 
8643 5 0.251094 0.275579 0.130258 6 7 1 
8893 5 0.799973 0.301613 0.114426 -4 2 1 
7566 6 0.302289 0.279543 0.187816 2 -2 -2 
5847 6 0.0379663 0.353178 0.16355 4 -1 0 
6870 6 0.506235 0.35705 0.166971 -3 2 1 
8477 6 0.990719 0.33044 0.151221 0 -2 -7 
8368 6 0.0546237 0.405593 0.11403 -3 1 1 
6708 5 0.11526 0.421015 0.129889 2 1 -3 
8623 6 0.198782 0.378558 0.154669 0 1 2 
7653 6 0.659142 0.416505 0.112612 2 0 0 
8922 6 0.36094 0.433719 0.132041 -1 -1 0 
7740 5 0.0851055 0.420746 0.131602 -1 2 0 
6156 6 0.249417 0.438101 0.14631 2 2 0 
7330 6 0.645746 0.496571 0.153422 0 2 1 
8392 5 0.021359 0.518446 0.167905 3 2 2 
8022 6 0.47868 0.477923 0.18389 1 -1 -1 
7146 6 0.688993 0.527383 0.144703 -3 2 5 
8303 5 0.0163983 0.540631 0.139376 2 -2 0 
6035 6 0.447483 0.545269 0.2126 -2 0 3 
6614 6 0.679481 0.514975 0.154473 2 0 0 
6190 6 0.760102 0.571776 0.13477 0 -1 4 
5396 6 0.077706 0.626755 0.147618 -2 -4 2 
6507 5 0.802557 0.608175 0.17117 -8 -1 -1 
6038 6 0.812466 0.599402 0.15021 4 0 -1 
8184 6 0.324426 0.623977 0.142776 -2 -2 1 
7058 5 0.684541 0.592235 0.195999 -1 0 -3 
8132 5 0.717863 0.640973 0.174292 -1 -6 -2 
6409 6 0.689292 0.625816 0.183796 1 -2 -1 
6236 6 0.798954 0.609603 0.124539 -5 -1 1 
5909 5 0.522121 0.681217 0.146057 1 0 4 
7667 6 0.70427 0.685791 0.119734 2 0 0 
6334 6 0.0932614 0.711907 0.15288 -2 3 2 
8831 5 0.271913 0.71081 0.114396 1 6 -1 
8964 6 0.336641 0.702505 0.189431 -3 0 -7 
5508 6 0.346001 0.715593 0.171548 -4 -2 1 
7244 6 0.568816 0.693955 0.177067 -2 -5 1 
7728 5 0.682611 0.71172 0.168406 -3 0 0 
7489 6 0.330715 0.747088 0.142574 -4 3 3 
8650 6 0.504892 0.71893 0.127868 -1 0 -5 
7492 5 0.707354 0.740492 0.154658 -3 5 -1 
5986 6 0.753455 0.773764 0.126803 -7 -1 2 
5906 5 0.179661 0.775063 0.134215 -2 0 5 
7223 5 0.386105 0.72589 0.137808 -2 -1 5 
7869 5 0.868543 0.794236 0.19416 -5 -1 0 
5082 6 0.916505 0.818722 0.111605 3 -7 2 
5086 6 0.462942 0.812585 0.111561 3 2 -1 
7057 6 0.834964 0.833249 0.153903 -2 1 2 
6021 5 0.904023 0.913558 0.176761 -6 1 3 
5839 6 0.897746 0.872845 0.156075 -2 2 -7 
5435 6 0.643114 0.944292 0.142978 1 0 -4 
5057 5 0.0122161 0.973184 0.153031 3 -2 1 
6013 5 0.433761 0.954593 0.151885 1 1 2 
5497 5 0.67899 0.042238 0.186103 -1 0 -1 
8935 5 0.36244 0.0513881 0.13984 -2 1 2 
8274 5 0.534991 0.991996 0.153773 0 -2 -1 
6834 6 0.894007 0.0322439 0.135196 2 3 2 
7875 6 0.0434014 0.0945156 0.147043 2 -1 0 
8691 5 0.0512275 0.077939 0.131879 1 0 -1 
8098 6 0.769705 0.0903104 0.168271 -1 -1 -3 
8384 6 0.0679871 0.134485 0.194399 6 -2 0 
6273 6 0.414325 0.0854775 0.171558 4 -3 1 
6074 6 0.513436 0.117028 0.177307 0 -4 4 
7746 6 0.881719 0.100126 0.155637 -3 -2 2 
9000 5 0.474585 0.0798372 0.18949 0 1 3 
5361 5 0.286315 0.144279 0.180486 -1 2 -1 
6989 6 0.550518 0.16161 0.152753 1 -2 2 
7381 6 0.972222 0.134583 0.199062 -2 0 1 
6216 5 0.275805 0.175581 0.183369 -3 1 -4 
5733 5 0.484977 0.197904 0.192146 -4 2 0 
5348 5 0.548957 0.162187 0.163655 2 2 -2 
7277 5 0.30188 0.221858 0.177122 3 -1 0 
5708 5 0.428773 0.211227 0.187027 3 -1 2 
7250 6 0.437621 0.238192 0.212573 0 1 3 
7408 5 0.97254 0.187238 0.168731 0 -1 3 
7036 6 0.510384 0.224121 0.218694 3 1 4 
8434 6 0.533546 0.336088 0.131587 -3 -2 1 
7588 6 0.334032 0.338762 0.139453 0 4 2 
7870 5 0.645683 0.328614 0.200141 -2 0 -2 
8641 6 0.787831 0.336829 0.180923 6 -1 -3 
6086 5 0.198544 0.377515 0.220379 2 -5 -5 
7150 5 0.518237 0.327593 0.162167 -1 -3 1 
8294 6 0.568065 0.349685 0.153732 0 1 2 
5693 5 0.129525 0.333367 0.195612 -3 0 -1 
7320 6 0.799685 0.406512 0.1785 1 -3 1 
8012 5 0.996173 0.431277 0.183231 -5 -1 -3 
8503 6 0.0225598 0.482351 0.171831 -2 -4 10 
6539 6 0.385865 0.521384 0.172069 0 0 1 
8670 5 0.0293326 0.598265 0.149308 2 5 2 
5992 6 0.348935 0.525017 0.189174 -2 0 3 
8850 6 0.809905 0.556349 0.153205 5 -3 -1 
6518 6 0.856182 0.59243 0.181911 -4 2 -2 
6174 6 0.26755 0.640071 0.179909 2 0 1 
5349 6 0.0994259 0.65842 0.183453 4 4 2 
7306 6 0.237565 0.630499 0.182769 -1 -2 0 
6431 6 0.225982 0.631612 0.187394 0 -5 0 
5256 6 0.258001 0.645072 0.180395 0 3 1 
8185 5 0.494276 0.637689 0.141075 4 -4 1 
6373 5 0.754082 0.639641 0.195423 -3 3 1 
5614 5 0.473268 0.697241 0.145461 -1 -4 -4 
6247 5 0.162958 0.723113 0.169126 6 0 -3 
7943 6 0.442716 0.711043 0.125398 -2 -2 -3 
6384 5 0.24011 0.759015 0.15419 9 0 -4 
6800 6 0.451041 0.739472 0.160086 3 -5 3 
8571 5 0.539213 0.727252 0.192037 -5 0 1 
8336 5 0.0472594 0.806402 0.148002 3 -2 1 
8465 5 0.80152 0.760799 0.197317 2 -3 -1 
7961 5 0.257487 0.852978 0.196351 2 -1 -4 
6510 5 0.753346 0.820289 0.15187 -2 0 2 
7540 6 0.0884891 0.830546 0.200725 -4 0 3 
8589 6 0.183667 0.92122 0.185431 2 -1 -3 
6697 5 0.687221 0.889911 0.179704 1 5 3 
7981 6 0.182143 0.933791 0.177013 -5 2 0 
7199 5 0.30346 0.961763 0.165801 -1 -1 5 
8296 5 0.296785 0.929425 0.169275 -7 -4 2 
8187 6 0.452392 0.925194 0.177801 1 -5 6 
5961 5 0.618082 0.941428 0.188389 -1 2 3 
5156 6 0.991089 0.947449 0.149312 4 -1 -2 
6691 6 0.101864 0.978588 0.217195 0 -2 -5 
6250 5 0.087976 0.979494 0.15017 -1 -4 -4 
5389 6 0.121985 0.00725997 0.188598 -2 1 -1 
5088 6 0.233676 0.949894 0.178611 -5 -7 0 
7052 6 0.33466 0.00826849 0.197536 0 -1 2 
6487 6 0.44418 0.92924 0.18571 -4 1 0 
5125 5 0.625934 0.969342 0.162768 0 -3 -1 
6873 5 0.643469 0.993073 0.211054 -4 -2 2 
8635 5 0.164576 0.0106555 0.208405 -4 3 2 
6540 6 0.30933 0.0577039 0.192417 3 0 0 
6103 5 0.469477 0.0506265 0.21987 -3 4 -4 
6328 6 0.547858 0.0475976 0.193292 -2 2 4 
5904 5 0.953406 0.0440819 0.217456 6 6 3 
8334 5 0.808395 0.0823353 0.192335 3 -2 5 
8177 6 0.278239 0.117034 0.195522 -5 4 0 
8174 5 0.473105 0.092988 0.208382 2 0 0 
8481 6 0.23647 0.119842 0.205815 -3 2 -1 
7666 5 0.235125 0.107343 0.160822 -3 4 -1 
8585 6 0.315136 0.178532 0.183562 -1 1 3 
7123 6 0.33996 0.142093 0.186667 -2 4 -5 
8974 6 0.839649 0.125283 0.224691 6 1 3 
7154 5 0.5215 0.159247 0.178736 1 -4 0 
5152 6 0.665697 0.157502 0.1925 -1 3 -1 
6239 6 0.175334 0.156521 0.157448 2 -2 -3 
6975 6 0.658914 0.228914 0.189771 1 -3 2 
6359 5 0.613692 0.183503 0.182297 5 4 -3 
6319 5 0.859939 0.190776 0.213366 5 1 3 
6407 5 0.87912 0.197339 0.238694 3 -3 2 
6553 6 0.734138 0.22577 0.189902 3 -1 1 
8837 6 0.790259 0.258682 0.165309 4 -4 2 
7414 6 0.301514 0.291944 0.21222 0 7 1 
7476 5 0.587202 0.325546 0.196174 5 3 0 
8448 6 0.714861 0.310396 0.189502 -1 2 -8 
7220 6 0.12051 0.311406 0.166182 2 -3 -1 
7254 5 0.681568 0.325344 0.186404 0 -6 6 
5043 6 0.697598 0.325674 0.205705 0 3 3 
7455 6 0.836938 0.319663 0.177718 3 2 4 
6505 6 0.0110088 0.349374 0.191829 -3 -2 -2 
8959 5 0.177071 0.3628 0.223312 -4 3 -2 
7995 6 0.75365 0.380099 0.195349 -5 -1 2 
6299 6 0.0405311 0.369714 0.16854 0 3 -6 
5477 6 0.851303 0.357692 0.15331 -1 2 5 
5117 5 0.845205 0.389229 0.237132 0 -2 -5 
7813 5 0.0674044 0.365359 0.189666 3 -1 1 
6898 6 0.744016 0.386386 0.188536 -3 3 -2 
8823 5 0.313537 0.407325 0.221242 -2 0 3 
8869 5 0.327581 0.422455 0.208849 3 2 2 
6711 5 0.562804 0.415918 0.195563 1 -2 -1 
5330 5 0.903996 0.424718 0.183715 -6 2 -5 
5250 5 0.139428 0.490046 0.149335 4 -3 1 
6127 6 0.3264 0.502287 0.180967 6 1 2 
5549 6 0.742928 0.457091 0.178518 0 -3 4 
5463 6 0.540322 0.46091 0.175205 -2 0 0 
7719 6 0.797221 0.500449 0.190909 2 -2 0 
7843 5 0.26893 0.520115 0.203638 -4 2 0 
7538 5 0.874944 0.49532 0.191154 0 -4 4 
7477 6 0.99654 0.55909 0.191829 5 0 3 
8193 6 0.323492 0.538077 0.213672 2 2 -1 
8983 5 0.428134 0.515324 0.200872 -1 -2 5 
7976 5 0.716307 0.568641 0.218276 -1 3 -3 
6405 5 0.546179 0.566965 0.215818 0 2 -5 
6746 5 0.696192 0.58191 0.188761 -8 -3 5 
8438 6 0.019708 0.590047 0.251223 2 0 1 
8162 5 0.293296 0.570413 0.155362 3 3 -2 
6759 6 0.446571 0.601432 0.196421 8 1 0 
7747 6 0.48562 0.554754 0.186628 -1 3 2 
8075 5 0.716881 0.657894 0.234076 2 -1 -1 
8542 6 0.743269 0.621842 0.189823 -2 -1 1 
8888 5 0.171332 0.637796 0.183155 -2 -4 -6 
7713 6 0.333949 0.701204 0.236297 3 -1 3 
5694 5 0.482453 0.711497 0.236324 5 -5 -1 
8687 5 0.602435 0.700451 0.211019 2 0 -2 
5739 6 0.731933 0.755151 0.177649 -4 0 0 
5864 5 0.259334 0.768013 0.209751 3 2 -3 
6763 6 0.256139 0.833465 0.176192 3 3 5 
7332 6 0.754502 0.81738 0.185913 1 -5 0 
8473 6 0.5421 0.837586 0.200359 2 1 -4 
6083 5 0.611986 0.81991 0.175756 -2 -1 3 
8279 6 0.991848 0.842481 0.212641 0 -1 -3 
8579 5 0.272107 0.893941 0.210714 4 1 2 