ITEM: TIMESTEP
20000000
ITEM: NUMBER OF ATOMS
9000
ITEM: BOX BOUNDS pp pp pp
-75 75
-75 75
-75 75
ITEM: ATOMS id type xs ys zs ix iy iz 
8626 6 0.842326 0.0265396 0.00203262 3 -1 2 
8355 6 0.51288 0.0582026 0.0185056 -3 -3 -6 
6762 6 0.807768 0.0328626 0.00783061 -2 3 3 
8535 5 0.265975 0.102659 0.00959874 -5 4 -1 
7661 6 0.67816 0.076079 0.00895712 -2 1 4 
5621 5 0.786265 0.0441302 0.021366 -2 2 -1 
5426 5 0.170064 0.151705 0.0262869 2 1 -1 
7651 5 0.457227 0.115651 0.0155272 3 -1 2 
8357 5 0.809255 0.110713 0.977034 4 -2 -3 
7402 6 0.691316 0.10967 0.00328492 1 4 -5 
5047 6 0.366402 0.167049 0.0288227 3 0 -2 
5955 6 0.807507 0.189249 0.0132519 -1 -5 4 
6367 5 0.870333 0.134058 0.0182237 2 4 5 
7959 6 0.940034 0.154625 0.0076255 4 0 4 
7324 5 0.0950931 0.157443 0.019274 -2 4 0 
7204 6 0.280911 0.173188 0.0333609 -3 -2 -4 
8569 5 0.662306 0.184298 0.00825087 6 0 1 
8976 6 0.312448 0.204947 0.00038548 2 1 -4 
8839 6 0.375941 0.236297 0.984223 0 -2 -4 
5822 5 0.783601 0.194744 0.995626 1 -2 0 
7936 5 0.319732 0.213504 0.0134625 -6 -1 2 
8897 5 0.620268 0.24482 0.0213327 -3 3 0 
7302 5 0.335754 0.250196 0.00199735 0 4 -3 
8529 6 0.61694 0.253651 0.00049641 1 2 1 
6056 6 0.995247 0.255665 0.0263178 3 0 1 
7472 6 0.0466316 0.268979 0.987999 1 -6 1 
7396 5 0.0801515 0.271107 0.98819 3 -1 2 
5715 5 0.287729 0.303273 0.0419188 3 -4 5 
6914 6 0.588359 0.28295 0.0184515 2 -3 0 
7064 6 0.0174355 0.34373 0.975858 -1 2 0 
7372 6 0.306793 0.366374 0.0189434 -1 -4 1 
8109 6 0.417197 0.402417 0.03442 -6 1 -1 
8415 5 0.653792 0.386079 0.00333356 -2 -4 1 
7497 6 0.724575 0.416906 0.98828 5 6 2 
6173 6 0.85825 0.359908 0.0155428 -1 4 2 
6199 5 0.141788 0.466769 0.989536 1 4 -2 
5978 5 0.299375 0.502743 -6.71609e-05 -6 -4 -2 
8386 5 0.68916 0.500502 0.00523121 3 0 2 
6278 5 0.762213 0.450016 0.0353189 2 0 2 
8912 6 0.0427988 0.488618 0.982023 2 -2 -2 
7276 5 0.131749 0.520092 0.00674303 5 3 -2 
7887 6 0.582413 0.494337 0.0201894 -6 4 2 
6177 6 0.706223 0.495571 0.970948 4 0 -2 
7037 6 0.844063 0.528379 0.0722688 4 7 3 
7518 6 0.314565 0.585738 0.0197226 2 1 2 
6967 6 0.722773 0.556528 0.0148039 0 -3 9 
6032 6 0.774591 0.554913 0.00133094 -5 -7 3 
6549 6 0.874907 0.600194 0.00396244 -5 -6 -2 
8184 6 0.390491 0.62914 0.0225933 4 6 -5 
8119 6 0.459026 0.649993 0.0276808 2 -2 2 
7715 5 0.710443 0.607489 0.0175433 -2 5 -1 
8502 6 0.00490324 0.635504 0.978254 -3 -5 2 
8328 5 0.140246 0.667707 0.0360128 -3 -1 2 
6723 5 0.619377 0.675969 0.0230744 3 -4 -1 
7124 5 0.761625 0.657143 0.0207779 0 1 0 
5320 5 0.822872 0.637899 0.0497176 -1 2 1 
8250 5 0.995765 0.699891 0.99154 0 0 -2 
5516 6 0.205563 0.742889 0.00927165 4 2 0 
6971 6 0.507895 0.703069 0.0366675 -2 -8 2 
8089 5 0.948276 0.705702 0.995265 -2 -4 -3 
8540 5 0.899669 0.780511 0.0280851 -2 -7 -1 
8524 5 0.930136 0.809725 0.981881 1 -3 -2 
7564 6 0.183694 0.806643 0.0323966 -5 -3 0 
7920 6 0.780697 0.778066 0.0668985 -3 -5 2 
8855 6 0.995354 0.824261 0.0487064 -3 -6 -3 
5443 6 0.123657 0.866742 0.983339 0 -2 -1 
8706 6 0.333811 0.797136 0.975295 0 -4 -2 
8458 6 0.289353 0.821982 0.029128 2 -1 8 
6159 5 0.0379022 0.875025 0.994402 1 -3 -1 
5396 5 0.436739 0.858611 0.025398 -2 -2 -3 
8989 5 0.0565035 0.889788 0.982785 3 1 -1 
7120 5 0.140176 0.881633 0.0509871 -1 1 3 
8668 6 0.382891 0.926802 0.990708 5 3 -5 
7331 5 0.498871 0.879093 0.00579143 -5 -2 -1 
6600 6 0.908078 0.893807 0.0429408 0 1 -1 
5916 5 0.549882 0.879886 0.0164633 -1 -1 -1 
8340 6 0.506163 0.954387 0.0195687 4 -1 2 
6705 6 0.694015 0.955889 0.0223688 1 3 1 
7465 5 0.53198 0.973728 0.0260458 5 4 4 
7356 6 0.611657 0.979751 0.00898754 -4 -2 -5 
7417 6 0.659002 0.00614175 0.997188 1 -3 -1 
5625 5 0.491492 0.0296566 0.0597617 -2 3 2 
6226 6 0.88286 0.0241746 0.0298467 0 0 5 
7604 5 0.376946 0.0626018 0.0429383 -2 -4 2 
7365 5 0.0745018 0.0734786 0.0328203 3 1 -1 
6673 6 0.438702 0.0331186 0.0826687 -1 6 1 
6180 6 0.523995 0.0817366 0.0518779 -1 2 -1 
6465 5 0.560792 0.0741895 0.997449 -3 7 -6 
8560 6 0.272107 0.102912 0.0716665 -3 4 3 
8042 6 0.286544 0.0945277 0.016492 1 -3 -1 
7627 5 0.445692 0.160958 0.0210002 0 -4 2 
8566 5 0.123646 0.207763 0.00778632 6 -2 0 
7553 6 0.826112 0.153395 0.0457474 -1 -2 -2 
7716 6 0.847943 0.187665 0.031214 0 -4 -4 
6842 6 0.152309 0.196743 0.0495479 -1 -1 4 
8049 6 0.188436 0.259532 0.0307504 2 -3 3 
8651 5 0.519435 0.215296 0.040855 -1 0 1 
7505 6 0.273233 0.248051 0.069019 7 -2 1 
6210 6 0.877877 0.25133 0.0600976 0 0 0 
7400 6 0.972815 0.283884 0.0278801 2 -5 3 
5219 6 0.134759 0.295533 0.0439927 -2 -1 3 
8424 5 0.628384 0.315919 0.0622131 1 4 -3 
7502 6 0.635428 0.278403 0.0430919 0 -2 3 
5522 6 0.0173593 0.296801 0.0265146 5 1 1 
5178 5 0.52382 0.3093 0.0341348 -10 4 1 
8025 6 0.942597 0.324806 0.0668052 -1 4 3 
7083 5 0.575282 0.358828 0.0451831 2 1 -3 
5562 6 0.226126 0.338311 0.0232674 -1 -3 -3 
8164 5 0.318811 0.375056 0.0299465 3 -4 5 
5006 6 0.299362 0.420633 0.0230901 1 0 -2 
5379 5 0.0269378 0.443577 0.0850758 -2 -4 2 
5820 6 0.147054 0.426604 0.0537846 -1 -1 6 
5123 6 0.651903 0.438818 0.0268525 -1 -1 0 
6219 6 0.777998 0.428427 0.0252752 1 0 -3 
5785 5 0.196658 0.440963 0.0203991 -3 -1 7 
8013 5 0.32416 0.476467 0.0485895 2 -3 -3 
7143 6 0.354807 0.462681 0.0313809 3 -4 1 
7022 5 0.708879 0.481449 0.0269942 1 2 5 
6743 6 0.796195 0.519354 0.0346684 -5 -5 1 
8134 5 0.062326 0.491108 0.0277369 3 -4 6 
7905 6 0.101599 0.542768 0.0537485 2 -1 0 
6023 5 0.68268 0.511836 0.0172702 1 1 2 
7178 6 0.0823436 0.527367 0.0715978 0 -4 0 
5357 5 0.787451 0.531646 0.000864926 3 1 0 
6349 6 0.907766 0.526783 0.00852682 -5 3 -1 
8481 5 0.113144 0.522635 0.0543841 -2 -1 -2 
7232 5 0.587022 0.574318 0.987883 -3 1 0 
7897 6 0.116053 0.643201 0.0174383 -4 3 3 
8246 6 0.505039 0.605474 0.0530745 -6 2 -4 
6394 6 0.761464 0.624604 0.0119993 -6 -2 3 
6773 6 0.98984 0.608138 0.00130894 -3 2 5 
5243 5 0.868086 0.636176 0.0353498 2 0 -2 
5983 5 0.963695 0.642277 0.0527075 2 4 1 
5221 6 0.28223 0.638689 0.0670874 0 4 -1 
5833 6 0.79451 0.640851 0.0492837 -1 3 2 
6478 5 0.116896 0.667583 0.0277545 3 -2 1 
5234 6 0.413465 0.663375 0.0188316 -1 -3 5 
8484 5 0.915212 0.661361 0.0146232 -4 -2 2 
8221 5 0.0663421 0.677559 0.0264479 9 -3 3 
7488 6 0.143484 0.715983 0.0343248 -4 3 -2 
6990 5 0.589638 0.699567 0.058426 0 -3 -5 
6123 5 0.674625 0.719158 0.0476826 1 -3 -2 
6956 5 0.780213 0.719927 0.0167606 0 4 4 
6196 6 0.0374802 0.749367 0.0488359 2 -1 1 
6289 6 0.154293 0.694104 0.0570566 -2 0 3 
5382 6 0.300748 0.746315 0.024288 1 -2 0 
6230 6 0.525276 0.759541 0.0208252 -3 -1 2 
7166 6 0.299597 0.781928 0.0625196 0 -5 3 
6022 6 0.552621 0.789353 0.0444307 1 3 -1 
7626 6 0.589631 0.783137 0.0682991 -1 -5 -5 
8880 5 0.718929 0.820856 0.98362 1 -3 7 
8111 6 0.541393 0.863092 0.0376754 0 6 1 
6722 5 0.803912 0.852323 0.0358775 0 -2 1 
5040 6 0.184352 0.861139 0.0440707 0 1 -3 
6928 6 0.790408 0.858568 0.00961285 -4 0 4 
5644 6 0.191623 0.92742 0.0326075 0 -1 5 
8472 6 0.41282 0.940858 0.0233632 6 -2 -2 
7720 5 0.429784 0.930869 0.0151282 0 -1 0 
7305 6 0.160093 0.927195 0.0482813 -4 -5 0 
7835 5 0.906374 0.96444 0.0969469 0 -2 1 
5977 6 0.746127 0.971292 0.0279682 0 -2 -3 
7537 6 0.451946 0.0402298 0.0240246 0 -2 0 
5295 6 0.539164 0.0149775 0.0688126 8 1 3 
8748 6 0.957536 0.0228398 0.0577817 6 1 3 
8271 5 0.185585 0.0560166 0.0406165 2 0 3 
8764 5 0.790482 0.0740873 0.0741136 -1 2 -4 
6331 5 0.123801 0.0896113 0.0362557 2 2 2 
5873 6 0.414229 0.0567884 0.0743683 -3 3 3 
8346 6 0.444761 0.0647888 0.0851291 -2 -1 1 
6943 6 0.594566 0.0873889 0.0602876 -3 3 1 
5948 6 0.874042 0.0895284 0.0258588 -2 3 0 
5274 6 0.278857 0.133783 0.0448057 -3 2 3 
5757 5 0.420273 0.137389 0.0713345 -1 3 -1 
6524 6 0.879761 0.105892 0.059636 0 -2 0 
6784 5 0.276167 0.200485 0.0297745 3 6 0 
8059 6 0.0940995 0.169239 0.0131084 -1 -3 -3 
8640 6 0.0799456 0.190118 0.0344129 0 1 1 
6154 5 0.415682 0.215021 0.0418929 6 -1 -1 
5102 5 0.666575 0.262875 0.0328459 -2 4 1 
6190 5 0.692821 0.235292 0.045407 4 -1 1 
7590 6 0.997448 0.285273 0.0368969 0 1 -3 
5288 6 0.874091 0.263311 0.0357347 0 3 0 
5140 6 0.119908 0.334969 0.018386 -6 0 2 
8729 6 0.728509 0.355324 0.0502979 -4 -3 0 
6449 5 0.240507 0.388595 0.0449191 2 -2 -4 
8205 6 0.31383 0.415115 0.0444228 -2 0 4 
6699 6 0.450073 0.412292 0.0790863 -6 1 0 
5413 6 0.599039 0.378079 0.0664815 -2 3 0 
7060 5 0.0263554 0.430918 0.0985755 -1 2 -5 
8964 6 0.441591 0.468043 0.0712383 -2 1 2 
8416 6 0.737806 0.455889 0.0458371 4 1 -1 
6273 6 0.837848 0.467407 0.0741031 1 5 1 
8071 6 0.029362 0.459364 0.0597862 1 -4 2 
5126 5 0.609008 0.504069 0.0829984 0 1 -1 
6257 5 0.675862 0.461828 0.0680256 2 0 2 
8140 5 0.648192 0.540218 0.0122928 -3 -2 -2 
7478 6 0.470184 0.487704 0.0248484 2 -2 -1 
5095 6 0.824259 0.528598 0.123556 -1 -2 -4 
6054 6 0.120283 0.56218 0.0373209 -2 2 -2 
8866 6 0.878871 0.493093 0.00810557 -6 -1 -2 
7259 5 0.0833824 0.537477 0.0892128 2 1 0 
8966 6 0.157397 0.546529 0.0398269 -3 0 0 
6611 6 0.191427 0.531428 0.0263671 0 -1 0 
8070 6 0.768822 0.563621 0.0603503 -5 3 2 
7364 5 0.0293222 0.582188 0.0562161 -5 2 2 
6663 5 0.453058 0.617143 0.0782297 2 -4 -4 
6021 5 0.945785 0.635559 0.0528798 -1 2 2 
8306 6 0.353415 0.642365 0.0423997 -1 2 -1 
6166 6 0.748635 0.608898 0.0611797 3 2 -6 
8944 5 0.0666003 0.60717 0.0149418 3 -1 -2 
5918 6 0.180277 0.681523 0.0538344 -2 -1 1 
5373 6 0.387613 0.64864 0.0902394 -2 2 -2 
5744 6 0.268333 0.699186 0.0541997 3 1 1 
8921 6 0.55833 0.678323 0.0503489 -3 0 3 
6922 6 0.171356 0.682266 0.0520975 -4 3 -3 
8609 5 0.235605 0.719505 0.0423968 -1 -3 3 
5255 6 0.562 0.729196 0.0672848 -4 -2 4 
7846 6 0.897563 0.732296 0.0885666 4 5 2 
5890 6 0.195298 0.734727 0.0602535 3 -2 -3 
6184 6 0.949659 0.737402 0.0510883 -4 0 1 
8445 5 0.1215 0.791523 0.0273527 0 3 0 
5549 6 0.357345 0.801327 0.0282275 1 -1 4 
6412 5 0.194591 0.767237 0.0859885 -1 4 2 
8531 5 0.668509 0.794928 0.0757864 3 0 -4 
8422 6 0.288354 0.851051 0.0572564 1 1 2 
6209 6 0.339762 0.830794 0.0859003 -5 2 5 
6324 5 0.475299 0.802739 0.0600665 -1 2 0 
7219 6 0.816136 0.766429 0.0586781 3 3 6 
8009 6 0.05522 0.836589 0.102817 -6 -8 2 
5427 5 0.982588 0.878602 0.0678145 1 4 -6 
6421 6 0.0978235 0.899969 0.0943494 4 2 -2 
6811 6 0.381044 0.898709 0.0797917 0 -2 4 
5686 6 0.284332 0.990176 0.0622756 2 1 1 
8832 6 0.387719 0.908334 0.0488189 2 2 0 
8230 5 0.0596245 0.931594 0.000211001 9 -2 -1 
6197 6 0.965792 0.981658 0.051334 2 4 -2 
6805 6 0.475287 0.944571 0.101518 1 2 -2 
8788 6 0.552014 0.00672571 0.0685622 6 0 -3 
5378 6 0.704768 0.00404042 0.0907792 0 3 3 
6782 5 0.344656 0.0368422 0.113557 -1 -4 -1 
5244 6 0.74465 0.0287533 0.120544 2 0 0 
5962 6 0.431057 0.0253218 0.0512826 5 2 4 
8776 6 0.30302 0.084541 0.111775 -1 5 6 
6333 5 0.53655 0.0330308 0.0633906 -4 5 1 
5343 5 0.192737 0.0854542 0.0631982 3 2 4 
7845 6 0.557537 0.112539 0.0679408 3 5 -3 
7588 6 0.549075 0.152219 0.0890527 1 1 -1 
5284 5 0.0861779 0.124429 0.0708401 1 0 3 
8544 5 0.119835 0.10217 0.0921179 0 -1 -1 
7383 6 0.390285 0.139266 0.0689275 -5 -1 2 
7056 6 0.304787 0.192282 0.0453403 3 -3 5 
7857 6 0.539985 0.235216 0.0665274 3 -2 2 
7974 6 0.326078 0.242849 0.116737 3 8 1 
8656 5 0.639795 0.29758 0.0608445 6 -2 1 
8436 6 0.533428 0.297767 0.0584594 -3 3 2 
7301 6 0.379355 0.306026 0.0564529 0 4 -2 
7201 6 0.664027 0.319997 0.0680738 2 1 0 
6999 5 0.238494 0.3119 0.0992765 2 -3 0 
8746 5 0.33609 0.328559 0.0601644 -4 -3 2 
5950 5 0.0558033 0.343665 0.103437 -1 -7 0 
8048 5 0.295196 0.313719 0.0413774 5 -6 5 
5665 5 0.376192 0.364953 0.0235447 -4 -1 1 
7205 6 0.572451 0.36707 0.0977739 1 -3 2 
6890 5 0.893809 0.340716 0.0943664 2 -3 2 
6831 5 0.428228 0.388458 0.0964343 -1 -1 -1 
6936 5 0.546927 0.366788 0.0741945 -2 3 2 
8551 6 0.84798 0.397319 0.0384742 0 -2 -1 
7711 6 0.257617 0.426657 0.0620472 -2 -2 1 
5194 6 0.307132 0.425872 0.0888425 2 -2 1 
7958 6 0.207358 0.414343 0.0813299 0 -3 -1 
7421 6 0.92962 0.43924 0.0449877 5 -4 -1 
6450 5 0.0437343 0.425118 0.0929821 -6 4 5 
8490 6 0.297579 0.442663 0.100939 3 4 1 
5060 6 0.329866 0.439882 0.113044 6 0 4 
6419 5 0.517685 0.477142 0.0544806 2 6 4 
5931 6 0.622191 0.436098 0.1212 -1 1 -1 
5390 6 0.998379 0.491394 0.119378 2 6 6 
6672 5 0.288431 0.49485 0.108328 -3 4 1 
5190 6 0.95105 0.493616 0.0955916 2 -1 -1 
7825 5 0.00706876 0.484524 0.122087 1 -2 -3 
6234 5 0.0725622 0.510254 0.0408925 -2 1 -2 
5028 6 0.509037 0.514245 0.0564352 4 3 0 
8721 6 0.988396 0.574892 0.0557074 8 1 2 
6259 6 0.611232 0.567813 0.0663252 2 -4 4 
7658 5 0.907018 0.547023 0.0794935 6 2 6 
6683 6 0.0738573 0.59121 0.0751094 0 -4 2 
6590 5 0.0575051 0.635916 0.0558128 8 4 1 
5030 6 0.305278 0.593555 0.0647593 6 0 3 
6377 6 0.626478 0.619341 0.108092 -7 2 3 
8612 5 0.360798 0.645318 0.111906 -3 0 -3 
5167 5 0.807142 0.624106 0.0752425 -3 1 3 
5004 5 0.20894 0.663614 0.057776 2 -1 2 
7404 5 0.551831 0.67674 0.0951132 -1 -1 4 
6707 6 0.445735 0.686285 0.0796526 3 0 6 
8878 6 0.584566 0.695979 0.0757346 1 2 0 
5214 5 0.18044 0.739721 0.0755596 6 5 0 
5332 5 0.748562 0.744907 0.0935421 2 3 4 
8124 5 0.989524 0.778338 0.0704882 -1 5 4 
7516 5 0.10802 0.775488 0.0749367 2 -1 -5 
5315 6 0.212437 0.786827 0.0744344 -2 0 3 
8145 5 0.983435 0.771883 0.105738 -2 0 -1 
5540 5 0.00982733 0.856695 0.0710735 1 -2 -1 
5267 5 0.454678 0.770604 0.0889752 1 1 -1 
7100 5 0.745947 0.788576 0.0635095 -2 3 1 
8249 6 0.962545 0.850145 0.0820564 4 1 -5 
5334 5 0.101356 0.822164 0.0821362 5 -7 0 
7961 5 0.719496 0.853884 0.0751028 4 -3 2 
6545 6 0.974429 0.794214 0.0738563 -6 2 -1 
5287 5 0.248219 0.853959 0.0529274 -2 -3 3 
7077 6 0.271671 0.864725 0.102572 3 -2 3 
6076 6 0.549254 0.828711 0.0651967 0 -4 -1 
5104 6 0.261515 0.923723 0.0931357 2 -2 0 
6654 6 0.320335 0.879223 0.0820801 0 -1 -3 
8987 6 0.701697 0.873161 0.121927 5 0 2 
7975 5 0.469744 0.929187 0.0797579 0 6 -1 
7432 5 0.818048 0.900872 0.128337 0 -4 -5 
6264 5 0.0336485 0.94021 0.0652041 0 1 3 
8463 6 0.158005 0.930248 0.0701508 -1 -4 1 
5445 5 0.262113 0.938097 0.0859522 5 2 -4 
5093 5 0.581467 0.964409 0.0893522 4 3 2 
6246 6 0.665511 0.0132524 0.101969 1 -4 -2 
8161 6 0.793346 0.0385695 0.112254 -2 -1 2 
6348 6 0.163789 0.038389 0.10302 5 -7 -2 
5959 6 0.648339 0.992159 0.0896655 -3 -3 -2 
7012 6 0.147469 0.0670504 0.0999947 2 -1 4 
6317 6 0.939549 0.0766549 0.0971075 0 -4 3 
7170 6 0.00801159 0.0701652 0.103479 6 -3 2 
5988 6 0.257152 0.184067 0.104901 3 1 2 
5098 5 0.967334 0.166229 0.0978086 -5 0 -4 
8475 6 0.36194 0.245999 0.0581334 -5 2 -1 
7110 6 0.68077 0.212497 0.0872191 1 0 2 
8522 6 0.156723 0.314806 0.115724 -3 -1 1 
8576 6 0.260322 0.291597 0.0777942 1 -1 0 
6336 5 0.988996 0.309153 0.0975124 -1 2 0 
5496 5 0.14065 0.307249 0.0855787 1 0 2 
5437 6 0.154629 0.332048 0.124665 1 -3 -1 
5436 6 0.490001 0.367652 0.187373 -8 -1 -1 
8073 6 0.439343 0.396394 0.133365 3 0 -1 
6168 6 0.492554 0.380721 0.154004 1 4 -2 
5841 5 0.654196 0.369477 0.108499 1 5 -2 
5971 6 0.183577 0.432941 0.12932 3 1 -1 
8968 6 0.266438 0.440194 0.115174 -1 0 1 
8227 5 0.51721 0.427357 0.0977148 -2 1 5 
7677 6 0.785823 0.405109 0.0961467 -1 1 3 
8805 6 0.28366 0.460606 0.141745 1 2 0 
6563 5 0.41103 0.472384 0.0819805 4 -2 -1 
8758 6 0.995885 0.407954 0.129211 0 5 -1 
6147 6 0.900399 0.469398 0.115084 2 -1 -2 
5186 5 0.511209 0.490304 0.133537 1 1 5 
8014 5 0.774978 0.480834 0.0867923 -5 -4 4 
6718 5 0.152064 0.521085 0.117241 -4 -3 -2 
7808 6 0.243116 0.49341 0.104166 6 1 -7 
5762 5 0.760762 0.550467 0.0656064 2 -1 -4 
8762 5 0.654181 0.551289 0.123776 2 4 -4 
6678 5 0.330097 0.627784 0.0794149 -6 -3 0 
7603 6 0.87747 0.617799 0.0904371 -3 -1 3 
6320 5 0.922511 0.606678 0.100393 -5 1 -3 
7880 5 0.121603 0.644684 0.125767 4 -1 -4 
7053 6 0.622797 0.668259 0.108789 4 -1 -1 
8098 5 0.724414 0.676544 0.120482 1 2 -4 
7703 5 0.976094 0.646192 0.124544 -4 -2 2 
7136 6 0.717818 0.663124 0.0782852 -2 -3 -2 
8905 5 0.800704 0.631085 0.11433 -5 -3 4 
8858 5 0.91188 0.665737 0.118208 -2 -1 4 
6579 5 0.152332 0.708937 0.0945082 4 0 0 
5314 5 0.5368 0.68829 0.102902 -1 -8 0 
8307 5 0.506754 0.705332 0.147664 -2 1 3 
5100 6 0.13104 0.726963 0.102436 4 -1 1 
8169 5 0.752838 0.719141 0.0731442 0 -3 2 
5524 6 0.787503 0.724494 0.0834121 -2 3 -1 
6666 5 0.439729 0.781471 0.163179 -3 -1 -1 
5958 5 0.175221 0.790443 0.109858 3 -2 -2 
5754 5 0.628436 0.80895 0.0988391 -2 0 4 
7967 6 0.154992 0.818902 0.094862 1 5 1 
5612 6 0.877738 0.815335 0.0976964 -2 -1 4 
7921 5 0.592398 0.848414 0.0837275 -1 -2 4 
6728 5 0.78929 0.920504 0.114328 -3 -1 5 
7832 5 0.97169 0.905443 0.143118 1 1 2 
8925 6 0.277092 0.919585 0.151636 3 -5 3 
6821 6 0.945458 0.933508 0.0944023 -2 -2 1 
8078 6 0.663142 0.982116 0.0909228 4 2 2 
5996 6 0.386954 0.969333 0.0614854 -5 -1 -1 
5398 5 0.858651 0.954418 0.0782351 4 -2 3 
7801 6 0.517745 0.022047 0.124827 0 -3 2 
8950 5 0.952057 0.00251459 0.109233 1 0 2 
6871 5 0.172845 0.997721 0.1336 4 -3 3 
6315 5 0.178107 0.0438805 0.116068 1 4 -3 
7097 5 0.311462 0.0432364 0.158979 -1 -3 4 
5111 5 0.519334 0.0485984 0.15248 0 1 4 
5154 6 0.626379 0.0579281 0.140849 -1 1 0 
6286 6 0.899146 0.0476089 0.107636 -2 1 1 
6921 6 0.263197 0.075482 0.11358 0 -1 -1 
5260 5 0.736154 0.075917 0.123496 -1 0 1 
8173 5 0.762496 0.0940587 0.0844288 -1 6 2 
8982 5 0.992464 0.095092 0.124704 -6 0 -1 
6593 6 0.00464025 0.121796 0.110105 6 -1 2 
7981 6 0.0422627 0.134324 0.138004 -1 -3 -2 
6904 5 0.225723 0.132989 0.164752 2 0 5 
6727 6 0.527855 0.107729 0.11692 1 1 -1 
5041 5 0.605778 0.142268 0.111787 -1 1 0 
8066 5 0.630387 0.138849 0.121633 0 4 -3 
7985 6 0.268471 0.18614 0.145625 4 5 3 
8465 5 0.298261 0.175518 0.124164 1 0 0 
8012 5 0.991042 0.183717 0.0760631 1 0 -2 
6908 6 0.282305 0.2178 0.103055 -5 0 5 
6236 5 0.343269 0.195333 0.159062 -3 -3 -4 
8268 6 0.441658 0.245743 0.119163 -4 0 0 
5911 5 0.726394 0.192118 0.10943 2 3 0 
7469 5 0.76453 0.210314 0.117552 -2 7 7 
5411 5 0.604262 0.254716 0.109424 -4 2 2 
5136 6 0.628754 0.235208 0.102625 -4 2 1 
7464 6 0.0949863 0.304412 0.115287 4 0 -2 
6274 6 0.33436 0.307432 0.120667 -3 2 -3 
7149 5 0.541331 0.323662 0.120755 1 -2 1 
5090 5 0.828789 0.30903 0.128787 1 -1 0 
5866 6 0.900443 0.298002 0.148633 7 -2 2 
6283 5 0.642157 0.334712 0.123017 -2 -2 -3 
7229 6 0.27048 0.351603 0.10767 -5 -7 -6 
5607 5 0.417253 0.348357 0.142744 3 -1 -3 
6409 6 0.518173 0.349929 0.109736 2 0 1 
5276 5 0.938828 0.379641 0.108991 -3 2 0 
5837 5 0.912718 0.366206 0.114521 -4 -1 6 
5860 5 0.186325 0.407292 0.142691 -3 -2 0 
6107 5 0.762347 0.443217 0.119363 -1 4 1 
6820 6 0.876279 0.367309 0.111715 4 3 -2 
6946 5 0.905274 0.458459 0.12583 3 3 1 
8272 6 0.233064 0.462721 0.116342 1 -2 -4 
6669 6 0.760413 0.465275 0.140399 5 -2 3 
7151 6 0.196395 0.525032 0.167962 -1 -2 0 
6064 5 0.741808 0.520126 0.177228 0 -7 2 
7265 6 0.881527 0.460745 0.121669 0 2 -1 
6989 6 0.192435 0.530941 0.127772 -1 -1 2 
8701 6 0.26289 0.531024 0.114037 0 1 -3 
8116 5 0.622336 0.533446 0.162058 -4 -3 -6 
8690 6 0.839283 0.549695 0.126604 0 0 3 
7494 5 0.834752 0.542468 0.123881 1 3 -2 
7568 5 0.0848113 0.537412 0.143566 -2 -1 -7 
6326 5 0.124928 0.51878 0.0721144 3 1 0 
7737 6 0.248565 0.561237 0.123599 2 0 0 
7131 6 0.397717 0.553409 0.105516 -3 -2 7 
8986 6 0.539041 0.545001 0.117667 -1 -6 2 
5474 5 0.827142 0.546007 0.0993849 3 1 3 
8879 5 0.735746 0.566917 0.114006 2 -3 4 
7580 6 0.751407 0.595991 0.113115 1 -3 1 
5492 6 0.84296 0.546897 0.161417 4 -2 -4 
5778 6 0.948457 0.593328 0.0886139 1 2 2 
7513 6 0.966018 0.606212 0.148116 0 -9 2 
5430 5 0.812287 0.643921 0.131289 -11 -5 -1 
7699 6 0.511271 0.636781 0.150351 -2 0 4 
8441 6 0.106776 0.639267 0.148027 5 3 -5 
7414 6 0.262065 0.668359 0.18043 4 5 -1 
6927 6 0.491448 0.641711 0.116487 -1 3 -2 
6277 5 0.0780134 0.701895 0.175623 -5 4 3 
8155 6 0.261951 0.668764 0.114293 1 -3 -1 
6527 6 0.998698 0.686868 0.129475 -6 -1 1 
5985 6 0.0281399 0.707017 0.178445 -1 1 -2 
6734 5 0.436193 0.732056 0.113895 -2 -2 -2 
7736 5 0.480522 0.689465 0.127738 0 2 -2 
5483 5 0.109583 0.775835 0.157682 1 4 2 
7477 5 0.524841 0.757029 0.123513 -1 3 7 
5231 5 0.798031 0.737417 0.152877 2 1 -2 
8999 5 0.135752 0.75428 0.132638 -2 2 -4 
5242 6 0.485902 0.811723 0.0909369 -3 2 1 
5588 6 0.109335 0.838169 0.134333 1 1 -1 
5656 6 0.771806 0.860408 0.130293 -2 0 2 
6634 5 0.412098 0.886504 0.120586 -1 -6 2 
6874 5 0.454041 0.896624 0.117545 -6 -1 -1 
7434 5 0.715302 0.824351 0.140329 0 -4 -2 
8630 6 0.155539 0.913354 0.115603 2 4 4 
8500 5 0.513886 0.92433 0.130452 -3 2 2 
8709 5 0.794586 0.901198 0.170821 0 2 0 
8011 5 0.982106 0.908586 0.111544 -4 -2 2 
5613 5 0.244435 0.90903 0.166364 2 -5 -2 
8170 5 0.387358 0.954167 0.132527 0 -5 2 
8468 6 0.439116 0.966455 0.129892 3 -1 3 
6136 6 0.515256 0.99434 0.16811 5 -9 8 
8770 6 0.637883 0.0174818 0.110471 3 -2 -1 
8464 5 0.194656 0.027708 0.18178 -2 4 1 
6293 5 0.435942 0.0655867 0.150647 1 -3 0 
6589 6 0.57139 0.0852518 0.14617 4 -5 -1 
5109 6 0.554155 0.07099 0.154615 3 1 3 
6253 5 0.922094 0.0701268 0.149845 -2 5 2 
5751 5 0.10586 0.092783 0.175433 1 1 3 
5164 5 0.0553821 0.123982 0.166614 3 4 -1 
8738 6 0.314542 0.0869533 0.152408 -3 1 0 
5922 6 0.820851 0.0792555 0.166545 -2 -3 -1 
6016 6 0.871922 0.123775 0.149667 -2 -2 -4 
5323 5 0.276575 0.162568 0.159796 0 2 -1 
6218 5 0.446999 0.14795 0.127485 0 -1 3 
7621 5 0.629312 0.109911 0.123387 1 2 1 
8503 6 0.75034 0.143168 0.123812 -5 1 0 
8390 5 0.955886 0.229599 0.131625 0 2 4 
8945 6 0.626588 0.26247 0.147528 0 -4 3 
7886 5 0.190205 0.289137 0.118296 -4 6 -8 
6102 6 0.583936 0.361575 0.163975 -3 2 1 
5923 6 0.0174407 0.369635 0.143345 1 -3 -5 
6250 5 0.115673 0.322421 0.140032 2 0 -6 
5291 5 0.342639 0.402288 0.128793 4 -3 0 
8697 5 0.372729 0.36781 0.136988 1 1 -1 
5867 6 0.289934 0.393368 0.162117 1 3 2 
5825 5 0.584132 0.408285 0.17854 4 2 0 
6400 5 0.00762456 0.404972 0.145945 1 -2 -3 
7303 5 0.456287 0.436606 0.182424 3 4 0 
8740 5 0.849467 0.427986 0.162197 -2 1 4 
8641 6 0.549263 0.440251 0.138147 4 -3 -1 
8237 6 0.547542 0.464379 0.13277 -6 5 5 
8742 5 0.693841 0.456987 0.123631 -4 1 6 
5668 5 0.68781 0.486691 0.182353 0 -3 4 
7466 5 0.834154 0.493246 0.148813 1 4 -2 
5256 5 0.894143 0.483116 0.171713 0 3 -2 
8901 5 0.969015 0.510292 0.16052 -2 -1 -2 
5949 5 0.0732658 0.547701 0.154339 3 -1 -2 
8808 6 0.265939 0.557208 0.173632 0 -3 -2 
6372 5 0.293779 0.535476 0.162785 -1 -1 -3 
8677 5 0.616304 0.539481 0.150324 -6 1 -4 
7470 6 0.133881 0.560706 0.147185 2 -3 0 
7586 6 0.79962 0.54683 0.151144 1 0 -3 
6109 6 0.485353 0.548293 0.119844 2 3 -4 
5468 5 0.257502 0.619835 0.200447 -3 -3 0 
6441 6 0.580702 0.587069 0.156408 -2 -1 -4 
6693 6 0.668844 0.617601 0.116087 -1 -4 -2 
6867 6 0.11754 0.681362 0.186998 3 -1 2 
5115 6 0.453139 0.694334 0.160404 0 -1 2 
6003 5 0.260403 0.684843 0.159914 3 5 -4 
6858 5 0.642755 0.68367 0.175118 -6 -1 2 
5984 5 0.753157 0.671403 0.109518 1 2 3 
5285 6 0.12258 0.694076 0.135913 -1 -1 0 
7509 5 0.540384 0.679738 0.146116 4 -3 -1 
5979 6 0.577864 0.707469 0.117339 -1 -1 1 
5793 5 0.664791 0.701681 0.163089 0 -1 -2 
7297 6 0.722786 0.693929 0.171413 1 2 0 
5795 5 0.766356 0.663198 0.115037 -1 0 3 
6988 6 0.552037 0.731953 0.130978 -2 3 0 
5331 5 0.610502 0.72218 0.122708 -2 3 -1 
6036 5 0.851838 0.734446 0.12459 2 -2 1 
8848 6 0.912781 0.737936 0.190366 3 4 1 
6860 6 0.142517 0.771919 0.147568 1 -3 4 
7197 5 0.476138 0.775471 0.15714 -1 -2 2 
5933 6 0.600704 0.724958 0.16592 2 3 2 
8888 5 0.657807 0.736468 0.139468 2 -2 3 
7642 5 0.37271 0.766468 0.152791 0 -3 -1 
7987 5 0.94218 0.790057 0.135278 -3 5 -5 
7635 6 0.114537 0.802114 0.0899284 0 -3 4 
7059 6 0.336932 0.843049 0.153771 2 0 -2 
8837 5 0.119426 0.825074 0.151523 1 2 2 
6339 6 0.239594 0.827221 0.155243 5 -4 2 
7361 6 0.50123 0.822667 0.129456 1 -5 3 
8937 6 0.645446 0.842044 0.126969 1 -5 4 
6869 5 0.929818 0.833037 0.155953 0 0 -5 
7382 6 0.457887 0.878579 0.181337 -2 -3 2 
8456 5 0.492887 0.814637 0.128877 -7 5 2 
5973 5 0.719607 0.833816 0.116971 2 -2 2 
8564 5 0.897962 0.814091 0.141741 0 -6 -3 
7039 5 0.0730003 0.925001 0.129156 4 0 2 
7746 6 0.313384 0.917553 0.104311 1 -4 3 
6894 5 0.319488 0.892548 0.175234 -1 5 0 
6833 6 0.973256 0.895276 0.167659 2 3 3 
5171 5 0.532213 0.90293 0.146186 4 1 -3 
8829 6 0.665906 0.915564 0.129805 3 0 2 
7189 5 0.187172 0.966149 0.165159 1 5 -2 
5480 6 0.284211 0.992232 0.155651 0 -2 4 
7261 5 0.054736 0.919725 0.139399 5 -3 0 
6378 6 0.492746 0.0176774 0.194165 1 5 0 
8814 5 0.501016 0.0630717 0.183008 -1 1 -2 
8517 5 0.527821 0.0617217 0.194294 5 0 -3 
7322 6 0.285386 0.0827781 0.160363 3 -1 1 
8311 6 0.690169 0.0884022 0.176923 2 -3 1 
7415 5 0.114255 0.0951744 0.165184 2 -3 -1 
6898 6 0.416908 0.126885 0.198445 -1 -1 0 
5765 5 0.119354 0.158001 0.168101 -2 -4 -5 
7455 5 0.958402 0.158503 0.173451 -4 -2 -2 
7445 5 0.00923866 0.185076 0.147924 -1 2 -4 
8426 5 0.459952 0.173069 0.198828 2 -1 1 
7358 6 0.0746339 0.182612 0.133409 1 -1 1 
7853 6 0.306183 0.187481 0.19703 0 -7 -1 
5493 5 0.381725 0.189609 0.191613 0 -2 0 
6099 5 0.694375 0.184575 0.175118 -3 2 -2 
5859 5 0.469798 0.227207 0.182414 -4 -1 -4 
5250 5 0.875877 0.226854 0.204555 3 -4 -2 
5297 6 0.173739 0.246731 0.198854 4 2 3 
6745 5 0.245842 0.270055 0.152658 8 3 -3 
7406 6 0.742564 0.251329 0.18058 -1 -3 -3 
7440 6 0.971729 0.293239 0.162629 -2 3 -2 
6504 5 0.0402245 0.281885 0.204039 0 -3 0 
7140 5 0.327448 0.255085 0.160803 3 1 6 
7245 5 0.395721 0.295614 0.189949 0 -2 2 
7962 6 0.504358 0.276556 0.198949 2 5 2 
7946 5 0.649469 0.279742 0.162393 -1 -4 2 
8482 5 0.666768 0.293691 0.18603 -2 4 2 
8300 5 0.355578 0.327016 0.159476 -1 0 2 
6381 5 0.414111 0.278771 0.181887 4 3 -3 
8672 6 0.233361 0.32678 0.154264 0 -2 2 
6913 6 0.427685 0.371276 0.192986 1 1 -1 
7194 5 0.951903 0.372621 0.178621 -10 0 -1 
7323 5 0.970754 0.401113 0.186809 3 -2 2 
5519 5 0.090886 0.428147 0.166176 2 0 2 
6650 5 0.34976 0.346659 0.173707 -4 2 -4 
6334 6 0.12942 0.372981 0.146984 -3 -5 2 
7183 6 0.130207 0.394878 0.186878 1 1 1 
7924 6 0.587458 0.389636 0.158596 4 -2 0 
8240 5 0.160309 0.407218 0.180391 2 -4 -4 
5486 5 0.449548 0.436291 0.128558 3 0 0 
5460 6 0.573393 0.419145 0.143543 0 6 -4 
7673 6 0.692226 0.470642 0.199164 1 0 2 
5415 6 0.489477 0.446464 0.155415 -4 -2 -5 
7653 5 0.664355 0.495218 0.125377 1 -3 2 
6133 6 0.122931 0.464059 0.13777 2 0 0 
8543 6 0.700102 0.502744 0.173275 -3 0 -1 
7347 6 0.893915 0.497284 0.156721 5 -1 3 
7762 5 0.415475 0.489223 0.186516 2 -1 3 
5936 5 0.325094 0.53882 0.149393 1 -1 -2 
5646 5 0.951955 0.52987 0.141481 -3 2 -4 
6086 5 0.643737 0.572864 0.176037 3 6 -1 
8106 6 0.147827 0.588347 0.132843 3 0 3 
5528 6 0.41448 0.610042 0.158785 -3 1 0 
8418 5 0.45627 0.605685 0.143222 5 3 3 
6169 6 0.846314 0.626743 0.162889 -3 -3 1 
7267 6 0.898797 0.604104 0.18121 2 4 3 
5819 5 0.235218 0.670023 0.14504 1 0 2 
6017 6 0.303832 0.645556 0.130576 1 2 2 
7019 6 0.922346 0.673673 0.155484 -1 1 4 
6134 6 0.641996 0.669434 0.192415 6 0 -4 
7085 6 0.0108827 0.686604 0.173484 3 4 2 
7879 6 0.493748 0.712967 0.161117 -2 -1 2 
8613 6 0.678005 0.715496 0.158267 -2 3 0 
7765 5 0.0634924 0.770801 0.182866 1 -3 1 
6533 5 0.258867 0.746445 0.182159 3 2 0 
7354 6 0.724045 0.737084 0.161591 -2 1 0 
6392 6 0.0621685 0.76636 0.16318 4 6 -3 
5580 6 0.120314 0.79178 0.174096 -3 -1 -1 
7735 6 0.537507 0.750518 0.208418 3 -5 8 
6070 5 0.643452 0.76857 0.16946 2 4 2 
5404 6 0.155056 0.804822 0.187862 0 5 -4 
8082 6 0.824645 0.802732 0.233423 -2 3 3 
7496 6 0.19923 0.810512 0.151317 -3 0 1 
7605 5 0.33467 0.834324 0.143132 4 -1 0 
7644 5 0.631952 0.830691 0.189113 -6 -4 3 
5893 5 0.640532 0.853481 0.201877 0 5 -1 
6899 5 0.132697 0.865403 0.164614 3 -2 2 
8045 5 0.299419 0.904108 0.157622 1 -3 -1 
8509 6 0.57065 0.84138 0.19749 -1 -1 -3 
8856 5 0.728127 0.840745 0.151406 0 1 1 
8594 6 0.504562 0.903844 0.153955 2 -2 0 
7567 6 0.881639 0.87855 0.226135 -2 -1 0 
8611 6 0.0852671 0.937105 0.191879 1 1 -4 
8724 6 0.22933 0.910882 0.172671 3 3 0 
5965 6 0.585728 0.936213 0.139868 0 2 -1 
7192 6 0.86557 0.87534 0.138297 2 -1 -1 
5678 5 0.465546 0.930956 0.131489 1 0 8 
5663 6 0.581989 0.913535 0.17898 3 -3 3 
5318 6 0.552862 0.982634 0.176659 2 -1 1 
7837 5 0.488276 0.959653 0.20685 -2 2 -1 
8648 5 0.594558 0.0222325 0.170862 2 -3 0 
6078 6 0.900956 0.981389 0.199872 3 0 3 
8372 5 0.211275 0.0260772 0.175521 -4 -3 4 
6818 5 0.658955 0.0189231 0.175746 0 5 -1 
6918 5 0.362609 0.0322226 0.158034 -1 -3 0 
5397 5 0.711525 0.0962511 0.175341 -3 -2 2 
8965 6 0.25668 0.0832961 0.174333 -2 0 0 
5736 5 0.387824 0.0801789 0.167896 -1 -2 -1 
7649 6 0.433123 0.0486927 0.18341 0 -4 1 
7712 5 0.248155 0.0877747 0.205288 -1 1 2 
6387 5 0.363949 0.143435 0.17658 3 -2 4 
8103 6 0.387201 0.166929 0.192714 -4 -3 -1 
6660 5 0.798268 0.135817 0.167302 -2 4 -6 
5423 6 0.650385 0.143623 0.213175 -3 5 1 
7964 5 0.64281 0.154237 0.201118 -2 -1 -3 
8366 6 0.370797 0.169605 0.173205 3 2 -6 
6604 5 0.379549 0.187859 0.205429 -2 0 -1 
5547 5 0.672622 0.21729 0.189693 0 -3 -4 
8657 6 0.710665 0.156412 0.171189 -1 -3 1 
5169 6 0.252457 0.224611 0.179611 2 2 4 
8831 6 0.642 0.206492 0.185241 -2 4 4 
5901 6 0.12402 0.232495 0.188423 7 4 -1 
8479 5 0.759 0.235243 0.239396 -1 5 -1 
6131 6 0.783846 0.233463 0.161846 -3 -1 6 
7498 5 0.395623 0.23696 0.201888 -4 -1 0 
7787 6 0.646654 0.243475 0.168984 0 1 1 
6164 5 0.682139 0.274902 0.221928 3 1 1 
8666 6 0.700816 0.231084 0.16145 -1 1 -1 
5531 5 0.424825 0.294307 0.16399 2 -4 -2 
8293 6 0.477429 0.280248 0.156037 0 3 0 
7685 5 0.714284 0.289061 0.206382 3 0 -3 
6657 5 0.0620179 0.368456 0.229678 1 -4 -1 
7917 5 0.288174 0.332453 0.171643 -3 4 3 
6122 6 0.365478 0.311935 0.214615 1 3 -4 
5189 5 0.397506 0.317273 0.224915 5 2 1 
8317 5 0.668186 0.335055 0.206103 -2 1 2 
8091 6 0.143256 0.36143 0.14597 2 -5 -2 
6651 6 0.743433 0.367983 0.164938 -1 1 4 
8062 6 0.13009 0.355486 0.184912 2 3 -2 
8953 5 0.184467 0.323853 0.20198 -6 1 1 
7061 6 0.570861 0.383599 0.180893 2 1 -1 
5199 5 0.630962 0.366946 0.182429 5 1 -1 
8113 6 0.746538 0.373312 0.19511 -9 -1 0 
7919 5 0.917312 0.413597 0.212561 -4 2 -2 
6100 6 0.937979 0.417094 0.165647 1 2 4 
8802 6 0.992985 0.397618 0.19025 1 3 1 
8718 6 0.470898 0.408799 0.232201 1 2 0 
8341 5 0.316194 0.430203 0.192753 1 0 1 