ITEM: TIMESTEP
20000000
ITEM: NUMBER OF ATOMS
9000
ITEM: BOX BOUNDS pp pp pp
-75 75
-75 75
-75 75
ITEM: ATOMS id type xs ys zs ix iy iz 
8433 5 0.240834 0.0414674 1.0059 1 3 0 
5664 5 0.641823 0.997403 0.0245184 -2 -2 0 
6940 6 0.989235 0.0345844 0.0280264 -4 -1 1 
6548 6 0.0124332 4.61862e-05 0.0366392 2 1 -3 
7355 5 0.37003 0.0509611 0.0132823 2 2 0 
8981 5 0.535709 0.0375347 0.0432836 0 0 -2 
5485 6 0.25119 0.0895442 0.0122022 -1 -3 1 
6028 6 0.938765 0.0656774 0.00442618 0 0 1 
8509 6 0.944352 0.0489359 0.00284921 -5 1 2 
7805 6 0.558025 0.0680704 0.98506 0 -3 -3 
7507 5 0.844917 0.0720338 0.0143301 1 0 -1 
6780 6 0.0301585 0.0800251 0.0119976 1 -1 -1 
7417 5 0.059485 0.13241 0.022106 0 -3 2 
8202 6 0.112497 0.0784005 0.0233234 1 1 -2 
6518 5 0.401021 0.121386 0.0084657 -1 -1 1 
6198 6 0.00449173 0.125669 0.999988 -1 1 -3 
5139 6 0.811112 0.107163 0.00800172 0 -2 0 
7026 5 0.887396 0.156918 0.977581 3 3 2 
6552 5 0.069355 0.10347 0.0661669 0 2 2 
6777 6 0.87195 0.158522 0.023844 -4 4 5 
5004 6 0.894946 0.182343 0.0213876 -3 2 2 
7216 6 0.957973 0.152636 0.0288018 1 -6 2 
7986 5 0.514923 0.193368 0.00817584 7 -3 -2 
8643 6 0.558946 0.144874 0.0304225 0 4 1 
6755 5 0.0856379 0.21069 0.978302 0 2 2 
8363 5 0.551355 0.23128 0.990387 0 1 -1 
7100 5 0.434216 0.258374 0.0103867 2 0 3 
5375 6 0.00592179 0.285393 0.0473605 2 -2 1 
7520 5 0.996944 0.273733 0.0352745 -1 -7 0 
5672 5 0.213914 0.299959 0.0272812 5 1 0 
8341 6 0.415943 0.274755 0.0351541 -3 7 2 
8822 6 0.758449 0.290049 0.997449 0 1 -2 
6982 6 0.119167 0.310574 0.0223079 2 5 0 
8625 6 0.270091 0.330598 0.987228 0 1 0 
8620 6 0.260341 0.289411 0.0387951 -5 -1 0 
8325 5 0.231545 0.350959 0.0234136 0 1 1 
6617 6 0.593957 0.332147 0.014036 -3 5 -6 
7521 6 0.625971 0.339338 0.999524 -1 -6 -1 
5127 5 0.543165 0.322076 0.0406307 3 3 4 
6185 5 0.559394 0.356217 0.0284532 -1 0 -4 
8681 5 0.628579 0.363876 0.99373 -1 -7 2 
6874 5 0.67475 0.351128 0.99323 5 -3 2 
7393 5 0.712929 0.375159 0.0107568 -1 2 -4 
8556 5 0.825388 0.405606 0.997634 4 -2 0 
8199 6 0.943624 0.38838 0.0315413 -3 3 2 
7407 6 0.528549 0.484864 0.987838 -3 7 -5 
6200 6 0.982168 0.417435 0.0263047 -3 -1 -2 
8860 5 0.429974 0.48609 0.013596 -5 4 0 
5223 6 0.267341 0.487104 0.0214387 2 5 1 
8020 5 0.244611 0.485495 0.00177782 0 1 -3 
8570 6 0.801313 0.538692 0.998265 4 3 2 
5790 6 0.133137 0.550081 0.9926 4 3 -1 
8864 6 0.653129 0.520349 0.0045005 1 -1 1 
7508 5 0.955972 0.533415 0.0260046 -1 -3 4 
8109 6 0.238507 0.590952 0.0261961 0 -2 1 
5581 5 0.747241 0.57558 0.0612545 -4 -6 -1 
8707 5 0.00743073 0.609534 0.996664 3 -4 -2 
5529 5 0.217417 0.607239 0.0355266 -3 1 2 
5047 6 0.364483 0.587703 0.00950756 5 0 -5 
7980 6 0.306093 0.657211 0.973238 11 5 6 
5891 5 0.892576 0.659999 0.992117 8 4 -3 
5315 5 0.989447 0.670689 0.0219692 -1 0 0 
7611 5 0.294906 0.672053 0.99299 -1 1 -2 
6559 5 0.669109 0.67208 0.998686 1 2 4 
8508 6 0.134526 0.685374 0.996774 3 3 -6 
8485 5 0.173676 0.698248 0.988989 3 3 -4 
7000 5 0.319453 0.701363 0.984309 3 2 -7 
5206 5 0.618234 0.693674 0.974014 -5 0 2 
6082 5 0.468392 0.727832 0.988924 3 0 0 
7746 6 0.682057 0.757156 0.00706106 3 -2 -2 
8610 5 0.876013 0.699366 0.993325 -2 1 -8 
5948 5 0.0791928 0.776992 0.977792 2 3 -1 
8827 5 0.655254 0.799 0.0247207 -4 3 -3 
5275 5 0.311299 0.772786 0.0262674 -2 -1 -2 
6305 5 0.984559 0.854599 0.0315098 -1 6 7 
6687 5 0.522458 0.820758 0.97729 2 -1 -5 
5717 6 0.192139 0.828265 0.996794 1 -4 -4 
6918 5 0.461787 0.83277 0.0238108 0 2 0 
8534 5 0.645222 0.860773 0.988191 -4 0 -1 
8248 5 0.919992 0.835519 0.0590733 1 -1 1 
8589 6 0.964951 0.851798 1.00326 -2 4 5 
6298 5 0.329663 0.870548 0.0377157 2 -1 -2 
7045 6 0.542848 0.845215 0.00838711 -10 -6 0 
7256 5 0.519477 0.953425 0.997968 -2 3 4 
5534 6 0.251942 0.972283 0.00486987 2 1 0 
6356 5 0.350266 0.97062 0.00677343 4 -1 1 
5845 6 0.844992 0.984763 0.049313 2 4 -1 
7882 5 0.120537 0.995707 0.028391 3 -1 -1 
6880 5 0.872624 0.992273 0.0238775 -3 1 0 
7764 6 0.948603 0.996548 0.0285739 -5 0 -1 
6417 6 0.514462 0.130486 0.0161917 -1 5 -2 
5912 5 0.423217 0.14901 0.0760117 -1 0 1 
8847 5 0.580728 0.143705 0.0332406 1 2 5 
8592 5 0.39317 0.155288 0.0145851 -2 -2 3 
8679 6 0.169502 0.204806 0.0491817 2 -5 -1 
5494 6 0.433422 0.200446 0.990356 -1 -2 -3 
7612 5 0.554323 0.20227 0.00780634 2 -3 4 
7421 5 0.135698 0.267881 0.0518752 5 -3 -3 
7320 6 0.249777 0.262635 0.0248142 -2 -3 0 
8353 5 0.517332 0.239163 0.039741 -2 0 1 
6187 6 0.302523 0.276962 0.0393478 -1 -2 1 
7339 6 0.312452 0.282933 0.0443421 -3 -2 1 
7236 5 0.658702 0.280328 0.0117746 -1 3 3 
6109 5 0.238583 0.310783 0.001802 -2 1 2 
6463 6 0.783239 0.28076 0.0530464 2 -1 1 
5455 5 0.671631 0.33706 0.0282881 0 0 5 
8428 5 0.718705 0.261479 0.0666587 -2 -2 1 
8766 6 0.884505 0.303144 0.0172168 -4 -5 5 
8613 5 0.551968 0.382117 0.0238081 2 0 -3 
8632 5 0.95029 0.37992 0.993213 6 1 -4 
7083 5 0.0402242 0.391242 0.0253149 1 2 4 
5026 6 0.336204 0.354808 0.0212698 2 3 1 
7708 5 0.331237 0.358429 0.00665576 2 -3 -4 
6371 5 0.350452 0.37203 0.0684166 4 5 1 
6045 6 0.532074 0.412415 0.0440394 3 -5 -2 
8179 5 0.789423 0.424292 0.0550267 -5 -2 4 
7470 6 0.840943 0.419766 0.0188232 -2 1 -3 
8081 6 0.0557435 0.4624 0.038547 -1 2 0 
7946 6 0.323003 0.450502 0.00765962 -4 1 -2 
7623 5 0.659649 0.477042 1.00087 1 -2 -1 
6672 5 0.714636 0.447321 0.0147804 0 6 -1 
7280 5 0.773593 0.415407 0.0352392 1 -3 -1 
8339 5 0.0218055 0.423119 0.0355105 1 1 1 
5246 5 0.0535559 0.494864 0.00900792 -1 1 1 
5067 5 0.173209 0.49929 0.0369248 5 -3 2 
5691 6 0.646519 0.440292 0.0527072 -1 -3 2 
8313 5 0.874035 0.491571 -0.000465559 1 2 0 
8195 6 0.115169 0.498827 0.0316494 1 -1 4 
6686 6 0.0279642 0.513117 0.0855382 1 2 -1 
6770 6 0.324147 0.536484 0.0754356 5 -2 -1 
7961 5 0.0539647 0.556911 0.0613782 10 -1 4 
8217 6 0.193281 0.567532 -0.00211706 4 -3 10 
6536 5 0.377098 0.541331 0.0344536 3 3 -2 
8226 6 0.548692 0.594208 0.0239279 -4 -2 -4 
7338 5 0.742999 0.576621 0.041815 3 1 9 
8608 6 0.839575 0.573347 0.035974 2 -4 2 
5349 6 0.922094 0.518788 0.0184728 -4 -1 1 
6276 5 0.0471613 0.583308 0.0323973 -2 4 -1 
6804 5 0.968664 0.608305 0.0621667 2 0 -4 
5365 6 0.192313 0.615424 0.0109707 -1 -3 -3 
5373 5 0.406003 0.568518 0.993145 0 0 0 
8234 6 0.494631 0.602429 0.0398428 -2 0 6 
6709 5 0.333487 0.653798 0.0489781 -1 -3 -1 
6648 6 0.345972 0.688878 0.0169043 3 5 -3 
8300 5 0.605215 0.650146 0.0350454 -2 -3 0 
7902 5 0.145606 0.710808 0.00621873 4 -4 1 
6933 5 0.244233 0.704274 0.0310933 2 3 3 
7442 5 0.317915 0.673777 0.0204793 -1 2 1 
7810 6 0.768101 0.691871 0.00792098 -4 -1 7 
5540 6 0.0613118 0.729112 0.029623 2 -4 0 
7228 5 0.608345 0.730945 0.0118714 3 -1 4 
5769 5 0.124034 0.789585 0.00256433 1 -1 -1 
6681 6 0.770827 0.796917 0.0375927 2 0 5 
6182 5 0.133775 0.869807 0.0200483 -3 -3 2 
5069 5 0.552663 0.890501 0.986763 1 3 -4 
6660 5 0.0430764 0.90913 0.0209002 0 -1 0 
7172 6 0.660644 0.903256 0.0707868 3 1 0 
7375 6 0.904307 0.920416 0.0146688 -2 -2 -3 
5763 6 0.0281216 0.932516 0.0472953 0 5 1 
6017 5 0.112454 0.974697 0.0466705 1 -3 4 
5064 5 0.727217 0.956679 0.0211817 -1 4 4 
6076 5 0.70361 0.94069 0.0426935 -3 -2 3 
7296 5 0.769417 0.00731068 0.0568857 1 -2 -1 
6171 5 0.514555 0.989271 0.00952473 0 -1 2 
7171 6 0.603765 0.983268 0.0487119 -1 -3 0 
7766 5 0.968939 0.987914 0.0384455 -4 3 1 
7376 5 0.56999 0.0156331 0.0285837 1 -1 0 
6598 5 0.983852 0.984065 0.0480202 0 -1 4 
8470 5 0.875172 0.0267551 0.0596715 0 3 -3 
5082 5 0.394971 0.0307894 0.0345497 -4 3 2 
5882 6 0.711869 0.0529242 0.0670092 -1 0 -2 
7765 6 0.808855 0.0136137 0.0325719 -7 6 -2 
5964 6 0.556672 0.103324 0.015225 0 1 1 
5945 6 0.241399 0.0979785 0.0691575 -2 -2 0 
5894 6 0.127146 0.113888 0.0533716 1 -2 -2 
6456 5 0.796088 0.130894 0.080835 2 0 -1 
7075 6 0.272403 0.146081 0.0860054 2 0 -1 
7594 6 0.338837 0.133317 0.066146 -1 1 1 
8634 5 0.0774762 0.192012 0.0369841 3 -3 0 
5633 5 0.148379 0.219945 0.0633101 -1 1 2 
7359 6 0.0394688 0.238024 0.0846767 -3 3 3 
5777 6 0.53308 0.272163 0.987977 1 -3 -2 
7475 6 0.76384 0.238626 0.0640132 -1 1 -2 
8196 6 0.423248 0.26884 0.0527983 -1 -3 -1 
6348 6 0.32327 0.29964 0.0369383 -2 7 -2 
5452 6 0.735525 0.311445 0.0780877 -7 -5 -2 
6613 5 0.0264831 0.370745 0.0697494 1 0 2 
7099 5 0.567605 0.311596 0.0464172 1 1 -1 
8734 6 0.957064 0.326198 0.135373 2 2 0 
5943 5 0.798147 0.349164 0.0688252 -2 -3 -3 
7651 5 0.704052 0.362833 0.0818414 5 1 -1 
5949 6 0.133541 0.373113 0.0516314 1 -2 2 
7465 6 0.719624 0.388269 0.0690533 1 -2 1 
7525 6 0.794685 0.409286 0.0856122 -4 -3 0 
8048 5 0.209031 0.44147 0.047411 4 -2 -2 
5459 5 0.304082 0.451122 0.0635879 2 5 0 
7743 5 0.581717 0.428776 0.036988 3 2 0 
5557 6 0.940949 0.458104 0.0381315 -3 -5 1 
5973 5 0.252084 0.492006 0.0710144 3 -1 1 
6157 5 0.239787 0.530943 0.0327145 0 2 1 
6924 5 0.334777 0.470108 0.0531278 0 0 -1 
6788 6 0.100418 0.55316 0.0618389 2 5 1 
5073 6 0.323754 0.542568 0.0692925 3 1 -1 
7345 5 0.352254 0.554681 0.0357539 -4 1 1 
7958 5 0.666759 0.602835 0.0444028 -1 7 -2 
6693 5 0.103237 0.603979 0.0293533 -2 0 -1 
6449 5 0.431971 0.590942 0.0705414 -1 -2 3 
6747 6 0.786766 0.642358 0.0490016 -1 -1 5 
7085 6 0.151443 0.609748 0.0335691 3 -2 -2 
7684 6 0.279717 0.576078 0.0647136 7 -3 1 
8145 5 0.439266 0.634081 0.0633893 -2 1 2 
6607 5 0.566756 0.626167 0.0376933 -2 1 0 
6158 5 0.280454 0.641411 0.0584437 0 0 5 
5710 5 0.313009 0.71039 0.0470692 6 3 0 
7607 6 0.424061 0.713372 0.0268386 5 2 -1 
6575 6 0.659559 0.66946 0.0356653 -2 0 1 
5546 6 0.079989 0.679817 0.0646297 -4 1 0 
6816 5 0.48412 0.724599 0.048798 -2 1 1 
5896 6 0.551312 0.757962 0.0450591 1 5 -3 
8584 5 0.0142408 0.786238 0.0491427 1 3 -1 
6372 6 0.194013 0.809703 0.0633349 5 3 4 
5665 5 0.534105 0.740441 0.0496879 1 -5 3 
7406 5 0.595133 0.764081 0.0260576 1 1 2 
6849 5 0.0366802 0.804768 0.0538016 -3 -3 1 
5673 5 0.459446 0.794564 0.0293603 2 -5 1 
8582 5 0.574728 0.779024 0.0352409 -2 -3 -1 
5033 6 0.595631 0.807285 0.0219829 -2 -1 -2 
5111 6 0.372543 0.82661 0.0828388 3 3 1 
8182 5 0.738763 0.829333 0.0544127 -2 -3 -1 
5159 6 0.873343 0.879266 0.0681133 -4 4 -4 
5890 6 0.958703 0.862955 0.0326848 -5 -3 -4 
8187 6 0.640556 0.862716 0.0468875 -5 0 -3 
8130 6 0.207594 0.92568 0.0529457 1 -6 0 
6447 6 0.447073 0.956647 0.0137377 -1 -4 -1 
8781 5 0.241526 0.0312669 0.0366414 2 -2 3 
5598 5 0.521613 0.993495 0.0742881 3 4 -3 
5542 6 0.0229427 0.00582719 0.0712678 1 1 6 
7474 6 0.28645 0.0093532 0.0664044 -3 0 -5 
8930 6 0.619379 0.00371218 0.129751 -1 4 -2 
7492 5 0.949432 0.0495399 0.0692737 1 2 -1 
5435 6 0.628203 0.0506527 0.10684 -3 3 2 
5931 5 0.686099 0.0305247 0.0962781 -1 0 4 
8459 5 0.979307 0.0449508 0.0775419 -1 0 3 
7836 5 0.284078 0.0369096 0.0659396 1 1 0 
6281 6 0.625717 0.12143 0.0816756 -1 -1 -2 
8080 6 0.698041 0.100009 0.0911041 1 -4 -3 
5046 6 0.731757 0.0851953 0.108041 0 0 -5 
6483 5 0.835994 0.136312 0.0724319 -4 2 6 
7817 6 0.653894 0.182233 0.12996 -1 4 -2 
7330 5 0.00106743 0.200836 0.0984914 -4 -2 0 
7701 5 0.364814 0.177688 0.078017 0 -1 4 
6669 5 0.547872 0.188731 0.0766992 1 1 5 
5936 6 0.336567 0.182335 0.063453 7 1 3 
5574 6 0.0769457 0.249062 0.0458146 -2 -3 5 
5921 5 0.981858 0.200349 0.101687 -2 4 2 
8782 6 0.397376 0.305227 0.0605835 2 -4 1 
6527 6 0.720797 0.341866 0.0785404 -3 1 -1 
8065 6 0.915903 0.307281 0.0921625 0 5 -1 
6611 6 0.492438 0.352642 0.0959998 2 0 -3 
6668 6 0.712453 0.310412 0.0848864 0 1 5 
8772 6 0.938799 0.324892 0.0999893 -3 -1 3 
5253 6 0.808368 0.374485 0.0750955 3 -3 4 
8480 6 0.888058 0.355397 0.0999022 0 4 2 
8876 5 0.130585 0.368604 0.092765 -2 -3 2 
6501 6 0.262486 0.370652 0.0665802 -3 2 -1 
7086 6 0.772485 0.394828 0.068414 -4 -2 4 
5178 5 0.43762 0.410361 0.077362 9 -1 -5 
5643 5 0.612266 0.375934 0.066252 0 5 -3 
7534 6 0.923994 0.394515 0.10299 -1 -4 2 
5855 6 0.186072 0.427933 0.102034 4 1 4 
7381 6 0.120743 0.460448 0.0679946 2 3 1 
6827 6 0.844179 0.460749 0.079998 3 5 0 
6758 6 0.175244 0.479087 0.116006 -2 -2 -3 
6965 6 0.323051 0.457878 0.0763719 3 0 3 
5704 6 0.539711 0.483904 0.0739558 -3 0 2 
6623 5 0.825539 0.486452 0.0926058 5 1 -1 
7140 6 0.833766 0.470723 0.0403134 -3 -2 0 
5742 5 0.230778 0.443953 0.0709655 4 5 2 
7308 5 0.876952 0.52491 0.0340144 -3 3 2 
7285 6 0.351619 0.502458 0.0702803 -1 -2 -1 
7689 6 0.94441 0.52767 0.0903593 -1 7 0 
6151 6 0.962914 0.510175 0.0541699 -7 2 7 
5088 6 0.226224 0.511275 0.0862943 2 1 -2 
5801 5 0.312372 0.563184 0.0710586 -1 -3 0 
8491 6 0.370947 0.513399 0.0956009 1 0 9 
8471 5 0.420545 0.526799 0.0833003 1 5 2 
6386 5 0.906093 0.563053 0.0692702 1 0 -2 
5707 6 0.288841 0.532134 0.0888692 3 1 2 
6993 5 0.38969 0.541678 0.111241 -1 4 1 
6502 6 0.0655868 0.545762 0.0860075 0 -2 5 
5022 6 0.0576461 0.584408 0.101618 3 3 6 
7380 5 0.140862 0.576374 0.0652438 4 1 -3 
7431 5 0.985771 0.586034 0.0702177 -3 2 3 
8421 5 0.00448964 0.609463 0.0791275 -6 -2 -2 
5595 5 0.0705881 0.587312 0.0901596 0 6 1 
5583 6 0.659151 0.561417 0.0844028 4 2 0 
8051 6 0.16584 0.643266 0.0821261 0 2 2 
7131 6 0.638758 0.636075 0.0720864 1 2 3 
8237 5 0.699765 0.687998 0.0712557 -1 -1 2 
7561 6 0.895065 0.613836 0.115605 -1 -2 -2 
8335 5 0.422147 0.670739 0.0754105 4 -5 5 
8449 6 0.392034 0.677342 0.107348 -1 -2 -1 
7088 6 0.841162 0.745067 0.0663811 3 -4 -1 
8077 5 0.12791 0.757149 0.0683024 -2 -2 0 
7468 5 0.235111 0.722802 0.0793103 -2 4 -2 
5799 6 0.0120131 0.792721 0.0701846 -4 0 -1 
8976 6 0.405404 0.731831 0.0694067 -2 -1 -2 
6473 6 0.47512 0.740963 0.0679952 -1 1 2 
5500 5 0.954633 0.787771 0.0446827 4 3 2 
8615 6 0.492339 0.791765 0.0813631 -2 1 -3 
6833 6 0.13747 0.78862 0.0434422 -2 -3 -1 
6829 6 0.52067 0.83548 0.0923142 -3 -4 3 
5244 5 0.827779 0.774471 0.066575 -1 -2 3 
5957 5 0.290829 0.854392 0.0447484 5 -1 -3 
8371 5 0.417152 0.874934 0.0403297 -1 0 4 
7703 5 0.493993 0.832418 0.0625921 -1 4 2 
7927 6 0.438082 0.8467 0.0553554 -2 2 0 
7830 5 0.546298 0.820976 0.0828793 -2 -1 -3 
7234 6 0.560138 0.884389 0.0883719 0 -1 -8 
7144 6 0.248851 0.848894 0.0775004 -2 -2 -2 
6882 6 0.375245 0.886899 0.0847759 8 -2 -3 
7721 6 0.811899 0.805019 0.0493303 1 1 -1 
6167 5 0.0970724 0.896819 0.0714463 -1 2 7 
5928 5 0.460253 0.871471 0.0882095 5 3 3 
6685 5 0.634866 0.893663 0.064026 -3 0 -2 
6424 5 0.039279 0.93488 0.0749245 -1 1 1 
6319 6 0.457491 0.923794 0.104038 1 2 -2 
5248 5 0.180644 0.950017 0.0227177 -4 0 -3 
8851 5 0.297193 0.958199 0.091466 -2 -3 -1 
7639 6 0.269358 0.937342 0.0873974 -1 3 -3 
5461 6 0.277131 0.956115 0.0888134 0 -4 3 
7847 6 0.585497 0.930565 0.0900266 3 0 7 
6479 5 0.742292 1.0004 0.0600634 -4 4 3 
6838 6 0.979336 0.971289 0.0357303 -2 -4 3 
6800 6 0.207546 0.0523707 0.108901 -4 9 -6 
7436 6 0.221388 0.0551205 0.0994509 0 -4 3 
5269 6 0.20478 0.0293413 0.0887352 -1 0 -3 
8588 5 0.0552329 0.0695615 0.130335 -5 4 0 
7047 6 0.0627282 0.095794 0.0562411 1 -2 4 
5040 5 0.789299 0.127876 0.0960151 0 2 2 
5436 5 0.202994 0.0971556 0.101603 -1 1 3 
8255 6 0.805558 0.138284 0.0984623 -8 -3 -6 
5999 5 0.501373 0.140175 0.0929222 -1 -2 -1 
5357 6 0.85909 0.169648 0.10036 5 5 -2 
8420 5 0.209694 0.163259 0.0970135 0 -2 4 
8432 6 0.583464 0.158242 0.110858 -1 7 6 
7220 5 0.764588 0.142207 0.124351 -1 5 -4 
7209 5 0.084318 0.199672 0.121354 -3 2 1 
5783 5 0.275177 0.229683 0.0736892 -2 -5 -5 
7018 6 0.314917 0.215043 0.0946512 4 3 4 
7065 6 0.666434 0.225923 0.0959334 4 -2 -4 
7372 5 0.875816 0.249982 0.0878566 1 -2 -1 
5607 6 0.340966 0.237173 0.116964 -1 0 1 
7627 6 0.938339 0.208852 0.11772 6 0 5 
7319 6 0.346881 0.262996 0.111925 -2 0 -2 
7906 6 0.431621 0.278367 0.109411 -2 -2 5 
6336 6 0.203488 0.313419 0.0857073 -1 -3 -2 
8144 6 0.348959 0.275584 0.102806 2 0 0 
6594 6 0.421243 0.309799 0.156604 0 -1 4 
5872 5 0.260564 0.370046 0.130059 0 -1 -3 
8807 5 0.0759553 0.378089 0.0919104 4 2 4 
8839 5 0.299128 0.416167 0.103496 -1 2 3 
6844 6 0.53911 0.343845 0.114775 -3 0 2 
8351 6 0.22625 0.379303 0.131475 -2 2 4 
7706 5 0.689228 0.405291 0.110813 -3 -3 -1 
8235 5 0.0317508 0.414757 0.126249 1 1 0 
7532 5 0.252282 0.41451 0.112689 -4 -2 1 
6035 6 0.921682 0.407954 0.0927404 5 1 6 
5031 6 0.265551 0.439102 0.0924778 0 -3 0 
8519 6 0.571425 0.436572 0.116857 -1 -2 3 
7137 5 0.950922 0.400311 0.108314 -3 0 -1 
5775 6 0.0797185 0.477427 0.130564 3 1 0 
6807 5 0.0889044 0.429128 0.116899 0 0 2 
7247 5 0.159317 0.556824 0.106729 -1 0 -2 
5317 6 0.975625 0.567342 0.108991 5 -1 6 
8703 5 0.401462 0.565283 0.0403808 -4 -1 -3 
8153 6 0.588518 0.58578 0.0927758 -2 1 0 
6511 5 0.316889 0.565064 0.0974077 -3 -2 1 
8940 6 0.349253 0.58664 0.109521 -1 3 3 
5048 5 0.847319 0.589667 0.0793823 -6 1 2 
7654 6 0.117273 0.611128 0.0504324 -5 -9 5 
7341 5 0.0758356 0.603468 0.124525 0 3 0 
6973 6 0.223046 0.623975 0.083811 0 0 1 
7055 5 0.300071 0.683816 0.11602 3 1 6 
8877 6 0.547199 0.69626 0.0950984 0 2 3 
5510 5 0.981427 0.68278 0.0875528 -3 0 1 
5837 6 0.645296 0.669419 0.0827155 5 -2 0 
7935 6 0.958077 0.681423 0.115451 -5 -2 3 
5521 6 -0.000692312 0.707954 0.103503 -1 1 0 
5302 5 0.480169 0.733412 0.120216 2 -1 4 
6195 5 0.604965 0.72369 0.0871621 -1 0 -3 
7265 5 0.686021 0.740376 0.109405 -1 2 3 
6697 5 0.344764 0.771739 0.128258 2 -11 -2 
8084 6 0.411948 0.749421 0.114495 -3 -2 0 
7648 5 0.826668 0.72677 0.081741 -3 -4 -2 
7574 5 0.204202 0.775386 0.113282 -1 -3 2 
8168 5 0.107801 0.856825 0.105709 3 -1 3 
8487 6 0.0234693 0.817402 0.104995 -2 -2 5 
7801 6 0.584298 0.82605 0.125197 -2 -3 -1 
5568 5 0.606916 0.839438 0.130209 0 -1 2 
7460 6 0.799988 0.878435 0.104111 3 1 0 
5994 5 0.105387 0.878368 0.0993568 3 0 4 
7453 6 0.960012 0.887069 0.0810414 3 -5 0 
6768 6 0.14182 0.934778 0.127634 5 2 2 
8879 5 0.480784 0.915559 0.0876317 -1 -1 -2 
6145 6 0.805929 0.907267 0.0997607 0 4 2 
5148 5 0.342461 0.972258 0.110153 -1 -3 -4 
8011 5 0.43894 0.949121 0.138981 3 -1 5 
7538 5 0.461605 0.988178 0.0660939 -5 1 1 
8730 6 0.559752 0.978022 0.121515 -4 5 -7 
8197 5 0.969549 0.992058 0.104135 -1 -1 4 
6773 6 0.0103599 0.0235345 0.124524 1 -3 -5 
5575 6 0.493988 0.970447 0.116166 -3 0 -2 
7846 5 0.8564 0.975269 0.0869815 -1 -3 2 
7390 6 0.788117 0.0286306 0.102973 -2 -5 0 
7897 6 0.17009 0.101286 0.148351 0 1 3 
5817 6 0.0245118 0.0461182 0.128256 -2 -1 -1 
7413 5 0.274978 0.0624594 0.109709 -2 5 -2 
7271 5 0.647743 0.101157 0.145769 2 3 3 
5636 6 0.801258 0.0785958 0.0950066 -2 -1 5 
7978 5 0.776009 0.105381 0.125364 2 3 1 
5039 5 0.361058 0.131201 0.148764 -1 0 0 
6633 6 0.25392 0.156834 0.122786 3 -2 -3 
7749 6 0.87405 0.152107 0.0797182 -2 0 -2 
6842 6 0.149858 0.203671 0.114057 -6 0 -2 
7193 5 0.709721 0.210685 0.120241 -2 -1 0 
5442 6 0.0651348 0.271623 0.159754 5 -6 1 
5476 6 0.661278 0.253386 0.118518 -3 2 3 
5813 5 0.805965 0.257132 0.109838 -3 -5 -1 
5554 6 0.671918 0.31981 0.0897997 -4 -1 2 
6469 5 0.885013 0.281154 0.133221 -3 1 -1 
6901 5 0.0434063 0.278107 0.139257 9 -5 5 
6324 6 0.612828 0.316708 0.119435 1 -2 -5 
6361 6 0.691016 0.30519 0.120576 0 1 0 
8403 5 0.780602 0.278821 0.0921883 -2 0 1 
5981 6 0.8583 0.292157 0.172199 0 -1 -1 
5782 6 0.371971 0.290963 0.120135 -2 -1 -3 
7223 5 0.762922 0.316401 0.163332 -3 -3 2 
5731 5 0.804625 0.289757 0.114724 2 -2 -1 
8333 5 0.1632 0.312516 0.144977 2 1 -1 
7739 5 0.418265 0.363593 0.12413 3 2 -2 
8712 6 0.650114 0.350515 0.0979859 1 2 -2 
7972 6 0.862045 0.357755 0.139226 -1 1 -1 
5475 5 0.670096 0.353537 0.11656 -1 -1 0 
8309 5 0.714232 0.37209 0.138408 1 -2 -4 
7901 5 0.30975 0.396335 0.12657 4 2 -2 
8945 6 0.916882 0.428831 0.138736 -4 2 -2 
7955 5 0.823285 0.40462 0.149553 3 5 2 
8085 6 0.877458 0.426362 0.185958 -1 -1 -2 
5645 5 0.97811 0.453261 0.120404 -3 -3 0 
7130 6 0.79408 0.484086 0.130016 3 1 2 
7347 6 0.576364 0.476669 0.132818 -2 0 1 
8352 6 0.561444 0.463591 0.147478 -4 1 0 
8685 5 0.604791 0.493934 0.150494 6 0 6 
8135 5 0.368624 0.56063 0.107263 1 1 6 
8507 5 0.134414 0.591703 0.126288 -5 1 -3 
7867 5 0.0750442 0.606507 0.13983 2 0 -3 
7769 5 0.132303 0.614558 0.116715 0 -2 2 
6495 5 0.161285 0.615411 0.12451 0 -5 0 
7686 5 0.509436 0.61205 0.127218 -4 4 1 
7262 5 0.346706 0.667705 0.141359 4 -2 -1 
8223 5 0.140485 0.641437 0.0935937 -5 -3 1 
7323 5 0.673282 0.678979 0.0817661 2 1 2 
6069 6 0.84034 0.670385 0.11188 1 1 0 
5489 5 0.989394 0.689898 0.0865384 -1 2 0 
5378 6 0.289029 0.719222 0.13973 -3 0 0 
8755 6 0.662605 0.728373 0.137415 2 2 2 
7252 5 0.85707 0.734846 0.163224 1 3 -2 
6778 6 0.220974 0.740503 0.134207 -3 -3 -2 
7792 5 0.787605 0.782448 0.105053 -1 4 0 
5599 6 0.55088 0.756693 0.140127 0 2 0 
8808 5 0.800662 0.803083 0.140086 2 0 -1 
8419 6 0.0814662 0.825503 0.129342 2 1 1 
5192 6 0.613368 0.774556 0.118752 2 3 1 
8413 6 0.581861 0.798658 0.176528 -2 1 2 
8683 6 0.874543 0.814525 0.138297 0 -3 -2 
6591 5 -0.00401974 0.762458 0.152304 -2 1 3 
5261 5 0.990256 0.814796 0.152033 -6 0 2 
6649 5 0.489988 0.821509 0.109994 -2 -3 3 
5929 5 0.703463 0.828436 0.109072 -1 -4 4 
8134 6 0.273108 0.82066 0.111309 -5 3 2 
8500 5 0.817123 0.818413 0.114407 5 3 -4 
7482 6 0.843919 0.883352 0.107848 -2 -2 2 
5191 6 0.800004 0.882807 0.137732 -5 1 1 
7911 6 0.0584152 0.963894 0.117365 -2 4 -1 
5257 5 0.313663 0.897598 0.150987 4 -1 4 
7932 5 0.435917 0.933001 0.126883 -3 0 0 
6230 5 0.548053 0.913162 0.108266 4 6 -2 
5773 5 0.938227 0.938486 0.141416 1 -1 1 
5252 5 0.771269 0.953398 0.125694 2 0 2 
6931 6 0.387247 0.968642 0.132953 -7 -1 0 
8938 6 0.640454 0.951751 0.129515 -1 1 -1 
5797 6 0.819818 0.983963 0.107994 0 -1 2 
8338 6 0.142445 0.0102642 0.119757 -2 6 -1 
6943 5 0.894549 0.990939 0.187943 -2 3 -1 
6116 6 0.532477 0.0650816 0.149435 4 1 0 
7454 6 0.57128 0.0218284 0.13691 0 -2 -1 
6961 6 0.883809 0.0549929 0.140131 -1 -2 0 
8046 6 0.149673 0.0416588 0.129295 3 4 -2 
6351 6 0.796628 0.0930962 0.131912 3 -2 4 
6929 6 0.694512 0.0621174 0.149633 3 4 1 
8504 6 0.888969 0.0947714 0.179034 -8 2 -3 
7515 6 0.228851 0.139932 0.113425 0 3 5 
6622 6 0.776997 0.0973427 0.138149 4 0 2 
8122 5 0.824117 0.147704 0.161009 -1 -2 -1 
7191 5 0.496799 0.153089 0.157623 -3 2 -1 
5671 6 0.688844 0.1571 0.148023 1 0 -2 
5735 5 0.0622764 0.158466 0.161175 5 -3 -3 
5848 6 0.209824 0.126086 0.135593 0 -3 1 
6863 6 0.306954 0.169861 0.125624 -1 -5 1 
6508 6 0.366965 0.18122 0.16018 6 1 1 
7638 5 0.0382204 0.16309 0.10878 2 3 -1 
5133 6 0.319499 0.208844 0.184394 -2 2 2 
8124 6 0.32832 0.225301 0.115737 1 -4 3 
8597 5 0.415164 0.204364 0.168835 -6 3 -2 
8245 6 0.480885 0.200769 0.146946 3 5 -1 
8697 6 0.722444 0.23202 0.147174 -2 -2 -3 
7821 5 0.0483632 0.243121 0.171267 4 1 -4 
8304 6 0.348231 0.26172 0.136815 1 2 1 
8492 5 0.539984 0.235726 0.146166 0 -2 5 
7283 6 0.513876 0.237407 0.150395 1 -4 -1 
8088 6 0.785986 0.25457 0.166263 -1 -1 0 
6083 6 0.915528 0.307816 0.154482 -1 2 0 
5984 6 0.109419 0.363945 0.160255 2 2 0 
6798 5 0.506784 0.306846 0.130788 2 0 4 
7258 5 0.979928 0.294545 0.143986 2 -4 1 
8802 5 0.352982 0.292196 0.128333 1 -1 -1 
7871 6 0.834423 0.303257 0.136297 -2 2 2 
6042 5 0.9244 0.327315 0.156277 -2 3 2 
5228 6 0.389873 0.351504 0.135122 2 5 -2 
6872 6 0.328045 0.371713 0.164308 -2 0 2 
7051 5 0.87263 0.402249 0.15755 4 0 -3 
7740 6 0.562932 0.419412 0.134405 5 2 3 
8600 6 0.81157 0.40852 0.135883 -1 2 -3 
7183 5 0.680815 0.423796 0.121339 -2 -2 -1 
7361 6 0.343076 0.458917 0.129209 -3 -1 -2 
8268 6 0.75371 0.447559 0.13604 4 -1 -2 
7205 6 0.782885 0.498478 0.148523 4 2 -5 
6134 6 0.432554 0.501467 0.170583 -4 3 -2 
7738 6 0.843015 0.526051 0.15362 -4 0 0 
8221 5 0.873711 0.502892 0.16359 1 4 -1 
8159 6 0.160678 0.519026 0.142283 2 -1 2 
8303 6 0.506193 0.493328 0.138675 6 4 -1 
6366 6 0.287417 0.56674 0.0905765 -1 0 1 
7915 5 0.79556 0.591712 0.12451 3 1 2 
6689 6 0.67412 0.542402 0.173503 2 -4 -2 
8498 5 0.443286 0.557909 0.158262 2 -3 1 
8349 5 0.680999 0.599519 0.13468 3 2 -1 
7530 5 0.873218 0.651045 0.174186 -1 1 2 
6029 6 0.464377 0.690064 0.145655 2 0 1 
7884 6 0.201773 0.674808 0.128531 -1 1 -6 
8043 5 0.31296 0.701315 0.150959 1 1 3 
5359 6 0.360859 0.689183 0.163982 5 -2 1 
8920 5 0.363128 0.693215 0.146949 1 -5 -2 
5850 5 0.870459 0.699105 0.150696 6 1 1 
7857 5 0.363118 0.733761 0.193549 3 1 2 
5810 6 0.519574 0.75269 0.163187 8 -1 -3 
7297 5 0.771052 0.788874 0.134612 -3 -2 -3 
8481 5 0.018795 0.838848 0.175143 -7 -2 -4 
5644 5 0.780054 0.890491 0.17015 3 0 -3 
7551 6 0.942199 0.797369 0.160853 0 -4 -3 
5284 5 0.0944456 0.850835 0.124902 2 0 1 
8568 5 0.222996 0.894044 0.15403 -1 4 -5 
5019 6 0.382615 0.936067 0.149093 -5 2 -3 
7533 5 0.873991 0.894854 0.144782 3 -1 -1 
8985 6 0.0150885 0.917027 0.151325 2 -4 0 
6796 6 0.764797 0.897417 0.130755 3 0 -5 
7887 6 0.404467 0.998427 0.183745 -1 -3 -5 
6485 5 0.691317 0.00658994 0.130388 0 2 0 
6296 5 0.863198 0.98189 0.138025 3 -2 -1 
5765 6 0.469722 0.03181 0.123438 -2 -3 -1 
7316 6 0.100808 0.0523921 0.148441 8 2 -1 
7666 5 0.62093 0.0616952 0.160755 -3 1 -3 
6698 5 0.13144 0.0879401 0.185271 1 5 -1 
8058 6 0.573635 0.0527998 0.160332 0 -5 -1 
8436 5 0.399894 0.104194 0.162282 3 4 2 
5722 5 0.388297 0.099702 0.200679 1 2 5 
5770 5 0.469622 0.107305 0.18424 0 -1 0 
8049 6 0.892565 0.131787 0.130177 3 -2 4 
8263 5 0.831939 0.113461 0.144921 -3 7 1 
5170 6 0.138163 0.133446 0.180236 2 1 -1 
5105 5 0.197348 0.137639 0.175598 -1 -4 2 
6926 6 0.255904 0.120722 0.171199 2 8 0 
7102 5 0.338523 0.133679 0.150443 2 0 3 
8157 5 0.224526 0.139778 0.157503 0 6 2 
5572 5 0.268753 0.135712 0.186956 0 -2 -2 
6596 6 0.836957 0.140245 0.171181 2 -6 -2 
7763 6 0.887926 0.1647 0.201161 -5 -3 -1 
8541 5 0.0148879 0.159586 0.178113 4 0 3 
7439 5 0.15068 0.164574 0.170616 0 0 3 
7539 5 0.199518 0.188711 0.192889 4 -1 0 
6674 6 0.392872 0.172559 0.160247 0 2 -2 
6551 6 0.57196 0.168952 0.164779 -3 3 -3 
5125 6 0.582743 0.166121 0.155849 -1 1 -1 
5379 5 0.294496 0.169504 0.181253 -4 1 1 
5495 6 0.81963 0.185451 0.18282 -2 0 0 
8846 6 0.886962 0.167823 0.127698 -1 5 -1 
7570 5 0.925905 0.16311 0.144738 0 -3 2 
5750 6 0.671879 0.221853 0.148247 -1 1 -2 
8779 6 0.840315 0.209602 0.177647 0 2 5 
7683 5 0.412098 0.230015 0.208023 2 2 0 
5095 5 0.569612 0.230434 0.181372 2 -3 -2 
6051 6 0.657847 0.217017 0.132234 -2 4 0 
7606 6 0.866767 0.25236 0.163106 -4 2 4 
6664 5 0.958882 0.256682 0.155324 2 -6 0 
6507 5 0.103572 0.303317 0.175405 -2 2 4 
6741 6 0.351959 0.33384 0.200318 -4 1 5 
7428 5 0.712399 0.317778 0.174177 1 -2 2 
7757 6 0.562034 0.379475 0.172494 3 -3 4 
6277 6 0.682165 0.320167 0.173634 0 4 2 
6785 6 0.194975 0.334381 0.164327 3 -1 4 
8346 6 0.795725 0.377775 0.142786 -5 -1 1 
5226 5 0.296206 0.409091 0.176267 4 -6 4 
6911 5 0.817131 0.358767 0.190224 3 0 -1 
5897 5 0.147727 0.426495 0.170003 1 -2 -2 
5025 6 0.400569 0.421818 0.142186 1 3 -4 
8332 5 0.870586 0.423536 0.159771 6 4 0 
6868 6 0.261453 0.414456 0.173111 6 -3 -1 
8493 6 0.857636 0.434305 0.172881 -4 -5 3 
5256 6 0.0203221 0.456606 0.164698 -3 -3 4 
6707 6 0.121428 0.459507 0.157585 -4 -2 0 
6027 5 0.463479 0.490977 0.128621 -1 -1 -4 
5988 6 0.940006 0.498148 0.196231 -4 -2 2 
6996 5 0.567149 0.511461 0.171953 -1 -2 0 
7929 6 0.113253 0.513316 0.156151 4 -3 1 
7681 5 0.136389 0.542257 0.127268 -1 3 0 
5930 6 0.456315 0.560613 0.203024 -5 -2 -1 
8174 5 0.516716 0.58482 0.163513 -4 0 3 
8684 6 0.742246 0.575024 0.175389 -3 -1 5 
7554 6 0.938762 0.592432 0.159522 -5 0 4 
5169 5 0.104455 0.61186 0.164452 2 -5 1 
6367 5 0.127058 0.688187 0.204486 0 0 2 
7820 6 0.0505593 0.689704 0.215625 4 -3 -1 
5618 5 0.051326 0.700901 0.175555 -1 6 0 
8900 6 0.0897318 0.750828 0.176255 -5 -1 -5 
6547 5 0.725672 0.75158 0.220649 -1 0 2 
7169 6 0.0483485 0.7888 0.137676 4 2 -3 
7451 5 0.140114 0.763773 0.177137 7 2 -1 
5539 5 0.86589 0.801914 0.172389 0 3 1 
5786 6 0.541028 0.817738 0.178246 5 -4 3 
8824 6 0.589087 0.835377 0.152961 -1 3 -2 
5445 6 0.691248 0.799765 0.179021 -1 -3 3 
7107 5 0.864432 0.82368 0.176093 -1 1 2 
8527 6 0.186773 0.827953 0.169956 2 3 0 
8644 6 0.28153 0.827546 0.148414 6 -2 -3 
5032 5 0.588327 0.860126 0.184702 5 -1 0 
7564 6 0.652033 0.822958 0.17098 2 -1 1 
8609 6 0.701946 0.815916 0.175889 -1 2 -2 
5285 5 0.126768 0.85756 0.182729 4 -2 -2 
5280 6 0.192655 0.835514 0.157814 5 -3 -2 
7670 6 0.777115 0.88743 0.137478 -3 3 3 
8647 6 0.63045 0.897339 0.13764 2 -10 0 
6670 5 0.539418 0.923226 0.177018 5 3 -5 
8044 6 0.459723 0.955577 0.150867 -9 1 -4 
5509 5 0.778821 0.974505 0.164621 -7 1 3 
8161 5 0.109748 0.00957399 0.197732 3 2 -4 
5356 6 0.288138 0.0180239 0.185739 3 1 -2 
6754 6 0.421422 0.0113301 0.222608 1 0 5 
5914 6 0.518233 0.991198 0.184896 2 -1 5 
6910 5 0.992196 0.993739 0.212136 -4 2 -2 
8928 5 0.50719 0.0374726 0.181286 -1 0 -2 
7354 5 0.235212 0.021752 0.163191 -3 5 6 
7637 6 0.777231 0.07189 0.162026 -5 0 0 
8927 5 0.113328 0.0723598 0.220694 1 -1 3 
7358 5 0.25945 0.0712098 0.179207 2 -3 2 
6347 6 0.239759 0.0948549 0.180303 -1 0 -3 
6219 5 0.50126 0.0822084 0.14716 1 3 -2 
7414 6 0.659428 0.0915693 0.154963 -2 0 2 
7827 5 0.890105 0.0921292 0.194463 5 -3 -2 
6956 6 0.143788 0.115546 0.252105 5 4 1 
7866 5 0.151874 0.169706 0.18182 0 2 -4 
5348 5 0.743725 0.153945 0.210203 -1 1 0 
5991 6 0.761018 0.111653 0.191451 -3 0 2 
8250 6 0.631178 0.177104 0.221261 2 -5 -3 
5996 6 0.719136 0.21596 0.21677 -1 -4 1 
6238 6 0.272115 0.190473 0.191636 2 -4 -2 
6866 5 0.337655 0.223643 0.166745 -5 9 3 
6349 6 0.491991 0.22269 0.202056 7 -2 1 
6280 5 0.00890051 0.240996 0.198955 4 -1 3 
5028 5 0.432834 0.252892 0.2118 3 -3 -4 
7257 6 0.678037 0.208451 0.196848 1 1 1 
8261 6 0.6709 0.209188 0.172745 0 2 4 
6850 5 0.851628 0.24989 0.175266 -8 -6 -5 
6257 5 0.632947 0.26116 0.199473 3 4 1 
5313 6 0.0861246 0.312268 0.179035 -1 -1 3 
5747 5 0.854887 0.366224 0.19274 -3 -5 2 
6273 5 0.0366022 0.347393 0.224184 2 2 2 
7591 5 0.886115 0.373415 0.153894 -6 2 4 
6636 6 0.300834 0.433829 0.183059 -1 0 4 
5586 6 0.329334 0.407195 0.162276 5 8 1 
7109 6 0.798049 0.421552 0.230462 -1 1 -2 
5879 5 0.603642 0.479769 0.21606 4 -1 2 
8438 5 0.77594 0.401785 0.198563 -1 -6 -3 
6545 6 0.172092 0.469526 0.199002 5 -4 -1 
8646 6 0.699966 0.509041 0.167791 -4 -6 -6 
8555 5 0.352284 0.490384 0.165248 2 1 1 
5185 5 0.526349 0.530039 0.173438 -1 -1 2 
7905 6 0.661834 0.508219 0.190307 -5 -4 1 
5443 6 1.00171 0.509596 0.152254 -2 1 -2 
6992 5 0.55208 0.583373 0.177169 1 0 1 