ITEM: TIMESTEP
20000000
ITEM: NUMBER OF ATOMS
9000
ITEM: BOX BOUNDS pp pp pp
-75 75
-75 75
-75 75
ITEM: ATOMS id type xs ys zs ix iy iz 
8148 6 0.237902 0.0478811 0.0110268 1 -2 1 
7609 5 0.151649 0.0848068 0.00827499 0 -3 7 
8995 6 0.752556 0.0549688 0.0290979 4 1 -3 
8323 6 0.796481 0.123177 0.993691 -3 -2 -2 
5111 6 0.868989 0.079986 0.0205151 1 -1 0 
6508 5 0.1479 0.0644761 0.99374 -6 1 -3 
5791 5 0.343357 0.08501 0.0351519 -1 0 -1 
5432 6 0.447231 0.117007 0.00168856 -5 1 2 
8833 5 0.417696 0.0726185 0.0116074 0 -1 -3 
7959 5 0.266804 0.126001 0.00634361 1 4 -2 
7052 6 0.360966 0.118948 0.989767 5 7 -2 
7961 6 0.156465 0.178506 0.040429 4 4 0 
5312 5 0.25156 0.263252 0.00942232 2 2 -2 
7856 6 0.485781 0.200791 0.989258 1 2 -3 
6697 5 0.811706 0.226813 0.986974 -5 1 -2 
7485 5 0.781105 0.22112 0.976713 1 -7 -5 
5964 6 0.31851 0.273065 0.994931 1 2 0 
5988 5 0.796188 0.233494 0.982813 -2 -1 0 
7082 5 0.975323 0.2838 0.965683 5 3 -3 
8978 5 0.355945 0.275304 0.022111 0 0 -2 
5097 5 0.401437 0.285621 0.00512308 -1 3 -4 
6427 5 0.897886 0.277473 0.997575 -2 3 6 
7221 6 0.0845554 0.304164 0.064553 2 -1 0 
5593 6 0.521 0.329631 0.01839 -1 1 -4 
7936 6 0.0427285 0.329557 0.0154714 4 -1 -3 
5835 6 0.940117 0.302538 0.984352 -4 0 -5 
7571 6 0.41538 0.325344 0.0423348 -2 0 4 
8274 5 0.74704 0.350261 0.991561 0 1 -2 
5679 5 0.186839 0.369075 0.991665 4 -1 0 
8616 5 0.168491 0.426077 0.00295591 2 -1 0 
5957 5 0.2631 0.376509 0.0309192 4 -1 -1 
7883 6 0.311205 0.386816 0.0298144 -5 2 5 
8839 6 0.945215 0.359859 0.998116 3 -3 -5 
8347 5 0.781876 0.428567 0.0257708 7 5 2 
6389 6 0.889279 0.440304 0.00115688 -1 -1 -3 
6066 6 0.625092 0.471348 0.0203598 2 -4 -1 
8382 5 0.20627 0.443014 0.00915079 -4 5 -2 
5621 6 0.473141 0.481976 0.00275064 5 -4 3 
6393 6 0.785067 0.441419 0.996841 3 2 -4 
6940 6 0.223335 0.503537 0.988435 3 -1 5 
6719 6 0.281336 0.5176 0.0217302 1 0 4 
7744 6 0.720582 0.496824 0.987278 0 2 1 
6225 5 0.0201001 0.533309 0.0116292 3 1 -1 
5845 6 0.651239 0.568017 0.0109028 -1 -1 3 
6950 5 0.0107212 0.599577 0.0350945 -2 -2 -3 
6077 6 0.122154 0.576291 0.0480878 3 3 4 
7136 6 0.771157 0.58041 0.043504 -3 0 1 
8107 6 0.279987 0.619974 0.00445683 0 4 1 
8316 6 0.746293 0.642602 0.990984 0 2 -4 
6539 6 0.0174626 0.70212 0.988366 -5 -5 -3 
5077 5 0.318999 0.666481 0.0738197 -4 0 0 
7141 6 0.427655 0.606216 0.0700418 1 -3 1 
8368 5 0.67858 0.662423 0.0143229 -3 2 -1 
6464 5 0.698048 0.618483 0.0112243 -3 0 4 
5662 5 0.429323 0.704252 0.0211293 1 -4 1 
6278 5 0.820925 0.72417 0.97583 4 1 -2 
8239 6 0.91024 0.721151 0.0300395 1 -4 -3 
6514 6 0.00704515 0.69894 0.0415321 3 3 -3 
6105 5 0.661207 0.738456 0.0392942 2 -2 -1 
8674 6 0.699297 0.710285 0.0148775 -1 -3 0 
5768 5 0.135102 0.781905 0.0481021 1 4 4 
6238 6 0.997703 0.787194 0.0172751 0 -2 -3 
8189 5 0.451571 0.773562 0.0243899 1 4 -3 
7677 5 0.00956206 0.820318 0.00514767 0 -1 -1 
8604 6 0.352653 0.837568 0.0328347 5 -1 1 
8814 6 0.406483 0.86118 0.998316 -2 -4 1 
6403 5 0.0503669 0.855645 0.997875 -5 -4 -5 
5832 6 0.617857 0.862988 0.0173178 5 -6 2 
7916 5 0.959258 0.857572 0.992695 -3 1 -5 
5290 6 0.133827 0.8655 0.040359 -2 1 1 
7183 5 0.19678 0.881428 -0.000752579 1 0 -2 
7199 6 0.185555 0.895078 0.997461 -2 1 1 
6793 6 0.892488 0.908168 0.0115357 0 1 5 
6036 6 0.0475555 0.955224 0.0221007 5 -8 -3 
8618 6 0.109208 0.935584 0.0267776 -1 3 -4 
7182 5 0.106668 0.922471 0.965279 0 1 3 
6566 6 0.670672 0.940278 0.00406097 0 0 0 
5517 5 0.973518 0.960938 0.0169213 -1 -5 0 
5971 5 0.20097 0.946665 0.0125144 2 2 1 
5460 5 0.220396 0.977909 0.985529 -1 1 -3 
6870 6 0.30084 0.964886 0.989835 1 0 8 
5488 6 0.488108 0.998308 0.0526442 -1 -1 5 
6865 6 0.557476 0.00610845 0.0172587 0 -1 1 
6335 6 0.0142917 0.998847 0.0242261 -4 1 0 
6127 6 0.598585 0.985682 0.0145193 -4 -5 -1 
6146 6 0.938217 0.0151769 0.0676665 -1 7 1 
8349 6 0.314675 0.0643056 0.0174137 5 2 2 
8907 5 0.946522 0.0306312 0.0296026 -1 0 -2 
8233 6 0.124203 0.0860777 0.0410941 -1 -1 -6 
8480 5 0.378566 0.107071 0.061251 0 2 -3 
6189 5 0.559022 0.0493045 0.0299976 3 2 -3 
7408 5 0.738102 0.0901544 0.0170297 -3 -3 1 
8572 6 0.14003 0.135342 0.0540085 4 4 3 
5687 5 0.402336 0.115083 0.011807 2 -9 -3 
7357 6 0.514769 0.126424 0.0508035 1 2 2 
5997 5 0.00669405 0.129985 0.992131 2 5 3 
7989 6 0.203032 0.168577 0.0259673 -2 0 4 
6378 6 0.234504 0.156544 0.0078759 -2 1 -3 
8972 5 0.360932 0.155603 0.00884339 -7 7 -3 
7459 6 0.765123 0.179347 0.0281083 3 -3 -2 
7625 5 0.0338392 0.223775 0.0176759 0 3 5 
5402 6 0.785344 0.236818 0.000731623 -1 4 4 
6980 5 0.834748 0.223196 0.0540825 1 2 -1 
7840 6 0.693725 0.296834 0.0265326 1 0 -1 
5475 6 0.0743366 0.349052 0.00876239 -1 -1 1 
8809 6 0.131837 0.323928 0.0661008 -1 3 0 
8568 5 0.461795 0.260871 0.0391788 0 3 -1 
6815 5 0.457685 0.296782 0.0368601 2 1 -1 
8554 5 0.0591814 0.363367 0.0313514 2 0 7 
5374 5 0.22963 0.374998 0.0513615 5 2 0 
6196 5 0.632356 0.381006 0.0489216 5 -1 0 
6434 5 0.807917 0.406368 0.0400121 2 0 4 
5502 6 0.495061 0.43968 0.0152193 -4 -4 -4 
8788 6 0.110139 0.418704 0.0493455 -1 3 1 
5335 5 0.996917 0.510764 0.0164671 0 1 -4 
7056 5 0.176558 0.467368 0.0195575 2 -1 0 
7191 6 0.430318 0.469507 0.00518561 3 3 -5 
5359 6 0.802949 0.431963 0.0527066 -6 1 0 
8666 5 0.567626 0.474921 0.0564174 4 1 2 
7410 5 0.392992 0.485312 0.0335555 -2 4 4 
5504 5 0.72738 0.512711 0.0600298 -5 5 2 
8136 6 0.854083 0.517338 0.0226391 -1 1 -4 
7213 5 0.139436 0.551598 0.0633415 5 1 0 
8202 6 0.648362 0.592917 0.0421669 -4 1 0 
6696 6 0.499991 0.599913 0.0123689 0 -2 -1 
7452 6 0.599331 0.594137 0.0508933 1 3 3 
5093 6 0.979278 0.594055 0.987789 1 2 2 
7681 6 0.0120479 0.649719 0.0480771 2 0 0 
8427 5 0.0868644 0.665563 0.0299373 0 1 5 
6777 6 0.441697 0.673087 0.0531439 -2 0 2 
7973 5 0.478884 0.610584 0.0238992 -1 2 -2 
7680 5 0.516773 0.621535 0.0685814 3 -6 2 
7601 6 0.611101 0.664005 0.00620624 4 -2 -4 
5157 5 0.801088 0.645086 0.0298694 -1 -1 -2 
5394 6 0.524946 0.708746 0.0378155 -2 -1 -1 
8501 6 0.736428 0.69881 0.0218297 -2 0 2 
6568 6 0.380354 0.728765 0.0703295 -4 -2 -1 
7639 6 0.536777 0.749249 0.0387392 -4 2 5 
5417 6 0.0767777 0.776782 0.0553274 0 1 0 
5269 5 0.378232 0.794341 0.0689017 3 3 0 
5324 6 0.250426 0.817463 0.0503479 0 4 -2 
8837 5 0.3317 0.82369 0.0214849 0 -4 -4 
6993 5 0.506924 0.864855 0.0462702 3 -3 -2 
7476 6 0.751325 0.81991 0.995275 1 2 -2 
6739 5 0.221353 0.866737 0.00675301 1 -1 0 
5200 6 0.442888 0.87985 0.0500387 1 4 0 
5459 6 0.36676 0.952586 0.0223794 -4 -3 1 
5578 5 0.467251 0.917072 0.0319661 0 1 -3 
6413 5 0.537879 0.923318 0.046061 2 -4 -1 
7236 6 0.598028 0.892965 0.0258657 0 2 0 
8736 6 0.73329 0.912379 0.0148225 -1 -4 -1 
6763 6 0.827305 0.936769 0.999355 4 0 -2 
7220 6 0.142781 0.902747 0.0233207 -2 -3 -3 
7837 5 0.0331686 0.957234 0.0383868 1 1 -3 
8728 6 0.952881 0.958633 0.0273688 1 -3 1 
5812 5 0.110337 0.0231516 0.0501939 5 3 -5 
7925 5 0.0616724 0.0513017 0.0624689 -3 4 -1 
8112 6 0.167778 0.0506366 0.0938854 -3 1 4 
8527 5 0.869776 0.0800673 0.0478941 -3 -4 -2 
7270 6 0.928142 0.0625646 0.0503655 -4 3 2 
7464 6 0.00388001 0.0722817 0.0625176 6 -2 1 
6806 5 0.73225 0.0408662 0.0565541 0 -5 -1 
8868 5 0.520583 0.133269 0.0701622 2 -4 -4 
7684 5 0.367169 0.109047 0.0453243 2 0 0 
8256 6 0.864249 0.123533 0.102578 3 3 0 
5381 6 0.937113 0.114529 0.0658321 0 1 -2 
6970 6 0.0932228 0.118619 0.0449152 2 1 9 
8168 5 0.199941 0.123182 0.082851 -3 4 2 
5386 6 0.0506029 0.164854 0.0635027 -2 0 -3 
8848 6 0.224036 0.211714 0.0101761 -1 0 -2 
5693 5 0.10385 0.236609 0.0358926 0 2 -1 
5945 6 0.0952888 0.238387 0.104028 -2 5 0 
5787 6 0.332125 0.293854 0.0349053 3 -7 -1 
5872 6 0.417853 0.305371 0.0581934 -4 -2 2 
7469 6 0.00133111 0.347317 0.0625058 4 -4 7 
5462 5 0.773089 0.306299 0.0504546 3 -2 -3 
7129 5 0.176386 0.364348 0.0702298 -3 -4 0 
6488 5 0.584203 0.358904 0.0595386 0 1 -1 
5260 5 0.714845 0.411668 0.0448326 -4 0 -2 
6360 5 0.89379 0.425731 0.0453607 5 3 3 
8446 6 0.939425 0.402956 0.0423677 0 5 3 
6733 5 0.959513 0.441094 0.0336064 -4 0 1 
5975 5 0.666641 0.461331 0.070214 0 0 1 
7400 6 0.471227 0.478808 0.0488523 1 -2 1 
8944 5 0.869184 0.534277 0.028918 1 -5 4 
8267 6 0.0694016 0.537057 0.0375556 -2 0 2 
7007 5 0.06798 0.533039 0.0528276 2 1 3 
7956 6 0.152742 0.534866 0.0493597 -1 4 -1 
5633 6 0.0898158 0.581816 0.0472859 0 -1 1 
8346 6 0.192924 0.522951 0.0398052 -3 -1 0 
6188 6 0.291658 0.546623 0.0802622 5 2 3 
7935 6 0.450615 0.552283 0.122353 0 4 4 
5237 6 0.670817 0.549553 0.0263402 -2 -2 -1 
6294 5 0.0160342 0.593364 0.00333924 -2 4 0 
6730 5 0.854413 0.569178 0.0472426 -1 3 1 
8458 5 0.135789 0.629119 0.0517482 -1 3 -2 
8067 5 0.0643902 0.637353 0.0733223 4 -2 5 
6423 5 0.334097 0.61549 0.088917 5 -4 1 
8627 6 0.453359 0.673188 0.065155 4 -3 -3 
5486 5 0.531299 0.716397 0.044135 4 -5 10 
7420 5 0.559962 0.738217 0.0854917 -9 -3 -1 
6379 6 0.917802 0.698666 0.0951398 -3 2 -1 
5700 5 0.424713 0.758869 0.0564344 5 0 4 
6153 6 0.613023 0.756257 0.0553816 -4 -2 -1 
7987 5 0.915744 0.76823 0.0748603 -4 -1 3 
8295 6 0.327054 0.80943 0.060571 -4 0 -1 
6073 6 0.8139 0.809911 0.0427482 3 -1 6 
6825 5 0.940453 0.836712 0.062483 -2 10 -1 
7513 6 0.172002 0.768096 0.0943569 1 -4 0 
7782 5 0.756308 0.804159 0.075731 3 -3 4 
8297 5 0.931026 0.762556 0.0342633 0 -2 1 
5124 5 0.228728 0.804229 0.0380187 -2 -3 -4 
8425 5 0.308969 0.812083 0.0485838 0 2 -4 
5883 5 0.909442 0.844406 0.0914703 -3 -1 0 
6130 5 0.981144 0.830957 0.0699433 -3 -2 -3 
7738 6 0.155065 0.833198 0.0346941 2 3 4 
8536 6 0.22422 0.850189 0.0630896 3 4 0 
8965 6 0.754691 0.872424 0.0831488 1 4 1 
8443 6 0.19631 0.847392 0.0715428 -2 -1 -5 
5341 5 0.574409 0.89606 0.0270053 0 -6 -2 
5821 6 0.0312845 0.947879 0.0626611 -3 6 2 
8269 5 0.0633354 0.964314 0.0780157 -2 2 0 
6694 6 0.0230753 0.994666 0.0446331 1 1 -2 
8584 6 0.886664 0.991085 0.0534521 3 1 -4 
7643 6 0.199312 0.0234433 0.0945426 0 0 0 
8767 6 0.214992 0.988137 0.122348 0 -2 -2 
7910 5 0.392625 0.973995 0.0775384 -1 -4 6 
6669 5 0.13452 0.0377419 0.0949802 -1 -2 -2 
5181 5 0.820144 0.0300435 0.0534233 -3 1 0 
6798 6 0.451345 0.0612097 0.0589319 -4 4 -1 
5576 5 0.735365 0.0487795 0.0632812 2 0 4 
6645 6 0.900111 0.0529211 0.095122 -2 -2 -2 
7035 5 0.52095 0.098092 0.0696705 -2 2 0 
7858 5 0.283375 0.149607 0.0510492 2 0 -5 
5012 5 0.615288 0.148565 0.0889946 -2 -2 1 
7525 5 0.851476 0.14351 0.0925388 0 -1 7 
8169 6 0.0189136 0.187522 0.0509824 0 6 -1 
5006 5 0.59052 0.17197 0.0889733 2 -2 -2 
7354 6 0.0914916 0.254385 0.124284 -2 4 2 
7509 5 0.0481744 0.288597 0.108407 1 3 2 
6266 6 0.154033 0.285423 0.0828549 0 3 7 
7563 6 0.306458 0.257743 0.0679101 4 -2 1 
7111 6 0.982893 0.301474 0.047534 6 5 -1 
8700 5 0.328834 0.303979 0.0841528 -1 -3 4 
5018 6 0.0854556 0.319617 0.0803724 5 -3 -1 
7198 5 0.340209 0.313351 0.0859352 6 0 5 
6116 5 0.739524 0.349018 0.0417294 2 -2 2 
7262 6 0.723908 0.417843 0.0471267 -1 1 1 
6008 5 0.898272 0.369649 0.0829826 -3 -2 2 
5437 5 0.998984 0.403026 0.113857 0 -1 -3 
8264 5 0.466567 0.441051 0.0250983 1 -4 3 
7124 6 0.126112 0.417608 0.0378677 1 -3 -2 
6106 5 0.0552135 0.465684 0.0523873 1 -3 2 
8369 6 0.0555421 0.498157 0.104299 -4 -1 0 
7899 6 0.272246 0.500774 0.0961399 -2 2 4 
8658 5 0.333064 0.576116 0.0947038 2 -1 0 
8033 6 0.409258 0.563661 0.100561 2 5 1 
8938 5 0.718408 0.600842 0.0453923 3 1 1 
8103 6 0.739148 0.610473 0.0644072 1 0 -1 
8021 5 0.902517 0.574755 0.0595428 0 2 -2 
6596 5 0.0921961 0.648792 0.0542438 -1 -1 2 
8210 6 0.200927 0.607355 0.11373 -4 -6 4 
6613 5 0.361693 0.598777 0.0936634 2 1 -1 
7817 5 0.826448 0.623009 0.0821955 2 6 0 
5843 5 0.0343157 0.711889 0.0841037 0 1 5 
8345 5 0.398254 0.726135 0.0619672 2 -4 3 
7533 5 0.602082 0.685885 0.0598946 -1 0 3 
6517 6 0.798322 0.700207 0.109022 1 1 3 
8460 6 0.444041 0.721573 0.0604237 -1 -2 1 
5023 5 0.534051 0.69741 0.0724134 0 0 1 
7645 6 0.703844 0.740586 0.0494891 -1 0 -1 
7526 5 0.045789 0.743131 0.0704491 -4 4 -1 
5320 6 0.55826 0.723995 0.0668846 0 0 -3 
5151 5 0.740997 0.745157 0.0783492 -2 -2 4 
8681 6 0.402608 0.760786 0.0721383 -1 -3 -1 
8549 6 0.667524 0.81372 0.14058 -1 1 0 
8419 5 0.927272 0.790898 0.0913499 2 2 -2 
5458 5 0.64863 0.826924 0.0937531 0 -1 1 
8278 5 0.274214 0.809379 0.0807701 1 -2 0 
6477 6 0.94109 0.80991 0.122774 -3 3 -4 
6556 6 0.495199 0.885324 0.099168 -2 2 -1 
8444 5 0.0278122 0.833087 0.0487931 2 -2 -2 
7872 5 0.105329 0.926023 0.102618 -3 -2 2 
5251 5 0.227088 0.893589 0.101703 2 1 0 
8526 6 0.583528 0.916655 0.0496358 5 -1 3 
8259 6 0.654656 0.893125 0.0752057 1 -3 -2 
8834 6 0.304071 0.942405 0.0782161 7 3 0 
8880 5 0.140567 0.971747 0.0839309 1 -3 7 
6094 5 0.521836 0.96498 0.0651711 -4 0 2 
8492 5 0.829248 0.949407 0.119865 3 -1 4 
8051 6 0.944955 0.997749 0.0797665 1 -1 1 
7127 6 0.0554709 0.0427017 0.109632 1 -1 -1 
5609 6 0.113862 0.036595 0.084797 1 -6 -5 
6118 6 0.242108 0.0924933 0.0800954 0 1 3 
6746 6 0.650584 0.0842344 0.0760694 -1 -3 3 
6015 5 0.123852 0.0969739 0.128341 -4 -1 4 
7955 5 0.465326 0.0907706 0.11069 -3 -1 3 
6745 6 0.599638 0.0655586 0.100727 3 5 -1 
7486 6 0.724963 0.0596415 0.111552 2 -3 6 
6785 5 0.820264 0.106508 0.0905271 -3 -5 4 
7794 6 0.575706 0.0728853 0.145873 -2 6 -2 
6287 5 0.6206 0.113522 0.108458 -1 3 2 
5751 6 0.0397258 0.115204 0.154978 -2 -5 -1 
5668 6 0.104443 0.116811 0.0926719 -3 -3 0 
8116 6 0.21552 0.127044 0.0832399 -7 0 -8 
5250 6 0.232764 0.17507 0.112805 -3 2 1 
6635 6 0.590169 0.166515 0.127065 -2 3 -2 
5292 6 0.812299 0.182695 0.126636 1 1 2 
6000 5 0.698464 0.229538 0.116033 -1 4 1 
8943 5 0.306621 0.176993 0.0864123 -4 7 3 
7290 5 0.995658 0.233606 0.0858756 4 -1 1 
8782 5 0.593768 0.269524 0.150471 1 3 4 
6898 6 0.761006 0.199715 0.0698664 1 0 -6 
5473 6 0.800966 0.249779 0.109753 -2 -2 2 
5643 6 0.942075 0.223522 0.139554 -2 3 2 
6349 5 0.95411 0.258127 0.111652 -2 -2 -2 
5266 5 0.415564 0.271597 0.087788 2 2 3 
5757 5 0.844821 0.215002 0.1065 5 2 -2 
5282 6 0.727591 0.270263 0.0986971 -1 -1 -4 
5992 5 0.766341 0.288636 0.0703933 -2 -1 4 
8009 5 0.152824 0.307328 0.0797072 2 -3 -2 
8228 6 0.532141 0.287036 0.0978482 -6 4 3 
7740 6 0.886544 0.361698 0.104656 2 4 2 
8432 5 0.108064 0.375587 0.0905439 -2 -2 5 
8557 5 0.0162291 0.420576 0.0919648 1 0 3 
6062 6 0.0789314 0.383693 0.10709 1 1 2 
7942 5 0.141293 0.439768 0.0694406 -1 -1 0 
5358 5 0.962275 0.373933 0.105067 -1 0 1 
8423 6 0.124177 0.411497 0.107061 -1 0 -2 
6492 6 0.513541 0.44647 0.117393 5 1 4 
8638 6 0.507014 0.562228 0.0751874 3 1 1 
5711 6 0.871797 0.587823 0.0981948 0 3 3 
7964 5 0.0463146 0.579006 0.114811 2 1 0 
8795 5 0.379132 0.614701 0.129385 -1 -3 3 
5892 5 0.888093 0.568855 0.105178 -1 -3 2 
6374 5 0.0307709 0.630048 0.0635931 -2 -3 2 
6615 6 0.125158 0.574673 0.0869439 -4 -4 -7 
5188 5 0.128765 0.630737 0.0528971 4 1 -1 
6064 5 0.806796 0.621857 0.125722 4 -2 -3 
5202 5 0.862071 0.636118 0.0839407 2 -9 0 
8165 6 0.289978 0.651413 0.109735 0 3 2 
7862 6 0.768415 0.687417 0.0946822 -2 0 1 
6080 5 0.856304 0.647683 0.0737427 2 3 1 
5746 5 0.300458 0.711378 0.107891 2 4 2 
8695 5 0.326653 0.701785 0.112067 1 1 4 
6662 6 0.713134 0.703265 0.135295 -2 -1 0 
6435 6 0.950027 0.707921 0.0737609 -1 0 4 
7902 5 0.332675 0.709727 0.0923243 3 -1 1 
8200 6 0.0365615 0.752154 0.0949035 -1 -3 0 
6024 6 0.913252 0.6783 0.134618 -4 -1 4 
6732 6 0.205444 0.813843 0.112403 -1 -3 -2 
5499 6 0.563677 0.803526 0.121525 2 -2 1 
6055 6 0.529499 0.78529 0.140217 -3 1 0 
7506 5 0.484818 0.838512 0.115682 -1 -1 -1 
5749 6 0.595702 0.817931 0.106769 1 -2 0 
7152 5 0.646978 0.815413 0.0847654 2 -3 1 
5440 5 0.76622 0.844236 0.109803 -2 0 1 
8054 6 0.257692 0.914565 0.120643 -1 -5 1 
7693 6 0.533419 0.86078 0.0994438 -4 -5 0 
5523 5 0.837114 0.880237 0.105399 6 -2 0 
8226 6 0.939372 0.895195 0.108612 -2 -3 0 
5203 6 0.660919 0.896807 0.0997302 3 -1 -3 
7431 5 0.689306 0.922188 0.0683309 1 0 -1 
7579 5 0.738759 0.883706 0.117018 -7 -2 2 
6376 5 0.0727629 0.9264 0.0752229 2 -4 1 
6923 6 0.182079 0.963291 0.0842242 1 -1 -1 
6187 6 0.252869 0.933367 0.121002 1 -3 0 
8151 6 0.779199 0.959697 0.130801 2 -2 -3 
6540 6 0.184447 0.961602 0.0937836 2 -3 2 
5171 6 0.718991 1.00072 0.117718 -1 -1 4 
5303 5 0.0279941 0.0335995 0.130426 -1 1 1 
8617 6 0.39069 0.0479498 0.10809 -6 -2 -1 
6921 6 0.278791 0.0603286 0.0834663 4 3 3 
7821 6 0.495592 0.044106 0.124645 -3 0 2 
7696 6 0.0551541 0.0911033 0.124625 5 1 3 
5574 6 0.309878 0.124248 0.111457 1 -2 0 
7260 6 0.165281 0.140707 0.128469 2 1 -3 
6620 6 0.712746 0.134336 0.135065 -1 -5 -2 
8073 6 0.234016 0.183447 0.110924 -4 1 1 
7775 6 0.744888 0.180561 0.113699 -2 -5 -1 
7005 6 0.836406 0.165305 0.126718 -2 2 3 
7072 6 0.143595 0.186186 0.132877 -1 1 -1 
5823 5 0.308158 0.200176 0.098198 -1 0 0 
6392 5 0.396486 0.158811 0.141374 1 -1 2 
5798 6 0.0311854 0.19288 0.111755 1 5 4 
8875 6 0.435181 0.180208 0.114534 -1 1 6 
6306 6 0.422738 0.263827 0.134924 1 -3 4 
5598 6 0.469919 0.244045 0.16755 1 -2 2 
5710 5 0.769657 0.19067 0.0782192 -1 -3 -1 
7710 5 0.829315 0.234009 0.132954 -5 0 1 
7266 5 0.4402 0.271292 0.118882 -2 -3 5 
5566 6 0.50959 0.252946 0.120836 -4 -1 -3 
8761 5 0.497455 0.252182 0.113309 -2 1 0 
7447 6 0.469902 0.312339 0.1508 0 -3 2 
8777 5 0.593852 0.262336 0.139973 -1 -2 -7 
7569 5 0.696741 0.325498 0.12908 -1 -3 0 
7151 6 0.51351 0.297823 0.162574 1 -1 -5 
6463 5 0.832806 0.311215 0.13263 -1 1 -3 
6967 5 0.26045 0.32938 0.113238 1 -5 -2 
5140 5 0.519807 0.336652 0.133788 5 -3 5 
5690 6 0.371627 0.373526 0.139697 4 -6 -2 
8516 6 0.0372321 0.398633 0.113133 -2 0 1 
8625 6 0.924826 0.367993 0.138845 2 1 0 
8812 6 0.527005 0.465761 0.125828 -2 -6 -5 
6212 5 0.829718 0.452807 0.114859 -4 2 -2 
5985 6 0.191843 0.471147 0.114679 0 2 -2 
6717 5 0.0766418 0.461852 0.102369 -2 -4 2 
6846 6 0.248021 0.499654 0.106712 -1 1 2 
6810 6 0.578279 0.48106 0.1248 5 2 0 
6384 6 0.848558 0.478378 0.127511 1 -2 -1 
8589 6 0.112306 0.496458 0.132858 -8 0 0 
6033 5 0.742453 0.524671 0.167136 1 -1 0 
8644 5 0.804619 0.532298 0.0984322 0 -2 0 
6939 6 0.176979 0.518326 0.146997 -5 -3 4 
7787 5 0.372473 0.541993 0.114757 -1 -3 0 
8056 6 0.621575 0.502202 0.123554 0 -3 2 
5084 6 0.0392889 0.546875 0.111408 3 0 1 
8653 5 0.2179 0.598469 0.130001 3 4 2 
8843 5 0.322758 0.590471 0.128545 3 -1 3 
7599 5 0.48108 0.623843 0.135043 2 1 6 
8087 5 0.686928 0.574897 0.148055 -2 3 -1 
8752 5 0.902065 0.569452 0.122633 3 -3 -1 
6737 6 0.250153 0.626207 0.130535 0 -2 2 
8716 6 0.29566 0.591146 0.059741 0 1 4 
6020 6 0.320027 0.63375 0.12471 1 -4 2 
6385 5 0.530614 0.631494 0.165363 0 -2 -2 
8896 5 0.162129 0.706082 0.136006 -1 -2 -2 
8117 6 0.378148 0.701206 0.140014 -3 -2 3 
5573 6 0.753416 0.695838 0.102914 -1 4 0 
5730 5 0.792312 0.740372 0.148906 0 1 3 
6838 6 0.521486 0.77371 0.119545 -2 1 3 
7853 5 0.900716 0.779572 0.154029 2 -2 2 
5212 6 0.00179592 0.789572 0.0685752 0 0 1 
7541 5 0.523303 0.782468 0.105417 -3 0 6 
8521 6 0.871568 0.77771 0.113739 -4 0 4 
7962 6 0.71238 0.783996 0.138685 0 2 2 
5599 5 0.780256 0.758761 0.114681 -3 -2 0 
5511 5 0.674933 0.827115 0.150124 -2 1 3 
8384 5 0.691989 0.830671 0.10602 3 -4 -1 
8262 6 0.161343 0.882891 0.116821 -2 -3 0 
6449 5 0.29964 0.851286 0.131399 3 3 2 
5025 5 0.372375 0.91804 0.12568 3 -1 3 
6060 6 0.475644 0.944729 0.147229 0 4 5 
7481 6 0.0463229 0.905811 0.126575 -5 -1 0 
8519 6 0.701102 0.960586 0.110056 -2 0 1 
7095 5 0.820617 0.929335 0.126934 0 2 -3 
7288 6 0.387202 0.93875 0.0976305 1 2 3 
5216 5 0.822495 0.992771 0.136768 0 5 0 
8883 6 0.318139 0.985723 0.166607 1 0 -4 
5146 6 0.978683 0.986654 0.12944 -1 8 4 
6995 6 0.926375 0.00908625 0.185562 0 0 2 
6501 5 0.293434 0.0330452 0.127218 3 -1 2 
6161 6 0.137322 0.0749386 0.180947 0 5 -2 
8247 6 0.305387 0.0368174 0.154215 -2 1 0 
7765 6 0.372079 0.0676112 0.151933 2 5 1 
5673 5 0.377734 0.0504215 0.139049 5 -1 -2 
7550 5 0.74965 0.0630979 0.157286 -1 -2 -1 
7256 5 0.601881 0.0663407 0.157835 -3 1 6 
6307 6 0.70164 0.0757285 0.140405 2 2 2 
7099 5 0.980749 0.0954317 0.140932 -4 -2 5 
7919 5 0.0506451 0.0833018 0.164795 0 -3 -1 
6698 6 0.220244 0.114142 0.154515 -1 -1 -1 
7572 6 0.946776 0.0996658 0.160236 0 1 0 
5268 6 0.197684 0.117423 0.174611 3 1 -2 
6491 5 0.251775 0.10975 0.17718 -2 3 4 
5738 5 0.495527 0.151416 0.181058 3 1 7 
5799 5 0.188767 0.154831 0.151311 -3 -1 4 
6221 5 0.251111 0.135243 0.136803 -4 -2 0 
8095 5 0.439846 0.14619 0.165551 1 1 3 
8977 5 0.170971 0.159521 0.159684 6 0 -1 
7087 6 0.457853 0.155763 0.162943 -1 -2 -2 
7373 6 0.837803 0.209173 0.164001 2 0 0 
5008 6 0.046687 0.177912 0.187265 -1 -2 2 
5191 5 0.0098743 0.247171 0.144247 -2 0 2 
7446 6 0.18356 0.215705 0.146789 1 3 2 
6920 5 0.241939 0.226919 0.156943 3 -4 2 
5470 5 0.41222 0.244559 0.185568 -4 -1 3 
6924 6 0.466165 0.226366 0.156327 -1 -3 0 
7283 5 0.771916 0.26515 0.140012 0 4 0 
6619 5 0.879078 0.273768 0.129353 -1 1 3 
5554 5 0.687432 0.317783 0.132834 5 2 -3 
6405 6 0.0807379 0.294854 0.188225 1 1 3 
6715 5 0.892837 0.299427 0.143298 -4 1 -3 
7535 5 0.929904 0.333318 0.141268 -4 -2 4 
5367 5 0.883877 0.365567 0.127958 -11 4 2 
6124 6 0.226886 0.376851 0.140553 1 -3 -2 
6654 6 0.29182 0.339971 0.194048 1 -3 2 
6780 6 0.364799 0.410289 0.10663 0 -3 2 
6275 6 0.461746 0.392199 0.153826 4 0 1 
5192 5 0.689896 0.353392 0.143298 -1 -6 -2 
5728 6 0.894889 0.376285 0.162533 -1 2 -1 
7613 5 0.925153 0.400807 0.164705 3 0 1 
7017 5 0.232052 0.431046 0.145251 1 1 -4 
7445 6 0.861965 0.421171 0.162212 -4 1 -1 
6653 5 0.809097 0.494035 0.143722 0 4 6 
8864 5 0.823777 0.499612 0.138727 0 -5 0 
8672 6 0.906596 0.507059 0.146085 0 0 -1 
6151 6 0.116029 0.556502 0.123762 3 0 -2 
7138 6 0.22026 0.495803 0.14814 -2 2 2 
8035 6 0.353837 0.524277 0.142143 1 0 2 
5796 5 0.753485 0.560806 0.169064 1 0 3 
7566 6 0.922285 0.541039 0.113228 1 -2 -1 
5867 6 0.21145 0.562835 0.160791 2 -1 1 
8192 6 0.432694 0.570916 0.140729 -1 2 -2 
5007 6 0.574217 0.564545 0.137932 -4 3 -1 
7800 6 0.701637 0.586475 0.130501 2 3 2 
5024 5 0.684771 0.57825 0.1354 1 1 -2 
8135 5 0.0821471 0.57832 0.166968 -3 5 -4 
6916 5 0.821304 0.644723 0.144371 4 0 -1 
6512 6 0.25142 0.634932 0.142643 -6 -3 -3 
7375 5 0.770504 0.606109 0.183377 -1 -2 3 
6158 5 0.891864 0.652277 0.129379 -1 -3 -1 
5415 5 0.234896 0.706915 0.120517 3 1 -1 
7453 6 0.603458 0.676527 0.179429 -2 0 -5 
7154 5 0.900518 0.644137 0.0944026 8 -3 4 
7304 6 0.647176 0.680569 0.183668 0 1 -1 
8820 5 0.729906 0.724287 0.142166 2 -2 5 
8520 6 0.746636 0.747758 0.136351 2 5 0 
6341 5 0.239775 0.748363 0.111756 1 3 -4 
5343 5 0.354256 0.774426 0.136101 -2 2 6 
7140 6 0.576856 0.821092 0.128776 0 4 1 
8975 5 0.873287 0.756566 0.144908 -5 -2 0 
5379 5 0.866799 0.776715 0.149066 1 -3 1 
8361 6 0.462499 0.822814 0.109289 -1 -1 -3 
7063 6 0.145341 0.849025 0.114651 5 2 3 
7066 5 0.566219 0.840887 0.174561 -2 0 -1 
8082 6 0.555557 0.900727 0.154034 -2 -3 -1 
7865 6 0.298651 0.870432 0.145952 -3 -2 1 
6344 5 0.512239 0.894226 0.154351 3 -2 3 
5696 5 0.779951 0.85971 0.161702 0 4 1 
8034 5 0.100541 0.9435 0.127034 3 -2 -1 
7958 5 0.232879 0.982479 0.182035 0 -8 -1 
8763 5 0.822494 0.948293 0.151951 0 -1 3 
6913 5 0.949676 0.926936 0.0996725 -2 2 -2 
5449 5 0.126786 0.916909 0.180383 3 -4 3 
6834 5 0.228836 0.968591 0.166149 4 -5 2 
8289 6 0.921837 0.940089 0.11701 2 -3 2 
7051 6 0.43575 0.986832 0.124747 -1 1 5 
6789 6 0.862246 0.973465 0.15194 1 5 2 
5378 6 0.470604 0.979623 0.14384 1 -5 2 
8769 6 0.511144 0.959016 0.184436 -3 -1 1 
5877 6 0.468735 0.983734 0.168832 -5 0 -1 
8119 6 0.959933 0.0479057 0.184897 0 7 4 
5299 5 0.303082 0.0360465 0.133731 4 0 0 
5422 5 0.39017 0.0473843 0.160626 3 -4 4 
5667 5 0.620805 0.0517928 0.21298 -1 1 3 
6482 5 0.511681 0.103845 0.131995 4 3 2 
5637 6 0.728745 0.103103 0.142264 -4 -1 -3 
6932 6 0.0530564 0.119806 0.20442 5 1 0 
6450 6 0.177362 0.0670004 0.171383 2 -2 -4 
5455 5 0.321822 0.118391 0.158258 2 -2 4 
5399 6 0.90648 0.116912 0.166129 3 1 -1 
8030 6 0.586769 0.12261 0.157513 2 4 1 
5059 6 0.660914 0.147877 0.1883 -2 -1 -4 
7077 6 0.22417 0.148185 0.170601 2 -4 -4 
8647 6 0.312167 0.148792 0.152908 5 -1 -3 
6693 6 0.621247 0.177921 0.122906 3 -2 1 
8057 6 0.776741 0.191668 0.192109 4 -6 4 
5851 5 0.809618 0.178601 0.164769 -1 -3 0 
8322 6 0.617874 0.191484 0.18669 0 0 1 
5178 5 0.18018 0.231048 0.168468 -3 -3 4 
6170 6 0.748136 0.265739 0.190012 -2 2 0 
5642 5 0.764214 0.22092 0.184469 10 0 -3 
8249 5 0.521546 0.20846 0.185972 0 -2 -2 
8991 6 0.684019 0.230788 0.146718 -3 -2 2 
5646 5 0.717821 0.226282 0.190127 1 3 -2 
6720 5 0.450325 0.254502 0.20462 3 -3 -2 
5154 5 0.0884869 0.300664 0.13736 1 8 -1 
5377 6 0.773345 0.30502 0.180521 -1 -2 -1 
7025 5 0.262601 0.32486 0.145313 0 2 -5 
7904 6 0.793623 0.33533 0.16577 3 5 3 
7670 6 0.775718 0.335917 0.190904 0 3 0 
8890 6 0.885277 0.359909 0.163524 -1 -3 4 
6095 6 0.303292 0.372523 0.195758 -3 1 -2 
5993 5 0.891799 0.378922 0.190817 2 2 0 
6454 6 0.818069 0.446767 0.176053 5 7 -2 
5148 5 0.158964 0.436499 0.158397 -2 -2 -4 
8661 5 0.551572 0.479478 0.179231 -1 -2 0 
5709 5 0.228864 0.498595 0.172672 0 2 -3 
6928 5 0.277274 0.475091 0.169629 2 -2 2 
7950 6 0.486594 0.490222 0.148901 7 -1 -1 
8797 6 0.825842 0.547328 0.161012 -1 2 0 
7905 5 0.381384 0.575384 0.150617 -3 2 4 
6623 5 0.749205 0.604738 0.162088 1 -2 -2 
8149 6 0.43476 0.617677 0.156 0 1 -3 
5271 5 0.949006 0.566364 0.130298 -3 0 -4 
5814 5 0.689032 0.628135 0.176058 3 0 3 
6559 5 0.784118 0.642876 0.172874 2 -7 -5 
5897 6 0.8277 0.655689 0.159978 0 2 -4 
7724 6 0.785256 0.660868 0.187806 -2 -3 2 
5115 6 0.53221 0.635069 0.139287 1 2 0 
6792 5 0.3632 0.679903 0.170993 -1 -1 2 
7602 6 0.403474 0.715875 0.164626 -3 0 -5 
6329 5 0.429015 0.699847 0.196707 1 -3 -3 
5272 6 0.497879 0.762288 0.165996 3 -1 -3 
6476 5 0.931442 0.74076 0.188566 1 1 1 
6799 6 0.0619415 0.736707 0.157716 2 -2 1 
6513 5 0.0222247 0.737733 0.193011 2 -1 -1 
6255 6 0.141517 0.748053 0.14588 5 1 -2 
6569 5 0.739527 0.809999 0.176184 0 2 0 
8510 5 0.916037 0.783112 0.175883 -1 -4 7 
8485 5 0.880947 0.793836 0.172625 -1 2 -3 
5009 6 0.0280385 0.869331 0.161578 2 -3 2 
7027 5 0.156306 0.835212 0.189206 -5 -2 -1 
6904 5 0.375257 0.829437 0.16851 -4 4 3 
6504 6 0.407199 0.843584 0.150008 -4 -1 0 
8620 5 0.702961 0.867969 0.148027 -1 -3 2 
8248 6 0.852702 0.843128 0.166582 4 3 -1 
8511 5 0.213018 0.861089 0.166798 1 -6 -1 
5937 6 0.707397 0.842537 0.14603 -2 -1 -3 
6132 5 0.933115 0.927027 0.162316 1 2 -5 
8583 6 0.992555 0.886954 0.162824 0 -2 -3 
8892 5 0.316615 0.92638 0.182706 2 -4 -2 
5869 6 0.465803 0.962027 0.183183 -1 0 -6 
8720 5 0.0461978 0.991487 0.16244 2 -1 1 
6112 5 0.413043 1.00098 0.164903 -4 0 4 
7869 6 0.438991 0.998135 0.201165 2 2 5 
5641 5 0.339311 0.989124 0.242742 0 0 0 
7803 6 0.979235 0.020168 0.204949 -8 5 2 
5280 5 0.130209 0.0285889 0.206926 -2 1 3 
5614 5 0.275649 0.0562956 0.160369 7 5 0 
8029 6 0.689953 0.0126557 0.199049 2 2 1 
7495 5 0.295678 0.0540113 0.203347 4 -2 4 
8457 6 0.881468 0.0698148 0.199988 5 0 0 
5198 6 0.580809 0.144047 0.129243 0 4 4 
5677 6 0.946252 0.0971916 0.207286 0 -2 2 
8615 5 0.420972 0.112633 0.196929 -4 5 1 
6546 6 0.188456 0.130564 0.218015 2 3 1 
6676 5 0.453877 0.130888 0.201382 5 1 1 
6551 6 0.854258 0.142736 0.201288 -2 1 -2 
7055 6 0.49198 0.162577 0.222812 5 -2 4 
7698 6 0.772554 0.167162 0.207938 5 0 1 
7924 6 0.742465 0.238192 0.18684 1 1 -2 
8434 5 0.394547 0.167022 0.18529 -1 -2 7 
6110 5 0.521454 0.201616 0.221745 -3 3 -5 
6138 5 0.625307 0.222856 0.177474 1 4 1 
7700 5 0.738742 0.233789 0.190274 1 -1 2 
5179 5 0.0880735 0.237978 0.224088 2 -1 -3 
6345 5 0.178909 0.250127 0.189292 0 -1 1 
6203 5 0.356565 0.248316 0.208242 -5 -5 -3 
6887 6 0.586944 0.300481 0.206128 -9 -2 2 
8129 6 0.136829 0.306746 0.182123 -2 -2 -1 
8878 6 0.531779 0.290769 0.193548 1 3 1 
6092 5 0.729223 0.272389 0.172897 -2 -5 2 
7258 6 0.961357 0.361124 0.206066 9 2 0 
5265 5 0.127663 0.315743 0.154836 1 0 1 
5100 6 0.979597 0.320308 0.193914 2 -5 5 
7013 6 0.205023 0.394913 0.20373 0 -2 -4 
8819 6 0.627933 0.340202 0.223227 0 1 -2 
5500 6 0.799005 0.397041 0.179213 0 1 -1 
5042 6 0.0412468 0.421378 0.152802 -1 4 0 
8440 5 0.691589 0.407613 0.155298 3 3 -2 
7268 6 0.782198 0.355977 0.164496 -6 -5 5 
7726 6 0.826237 0.401582 0.195719 -1 2 5 
7995 6 0.523331 0.443118 0.199176 -1 -2 1 
8565 5 0.763486 0.425551 0.178485 -7 1 0 
6705 6 0.168706 0.446731 0.219674 -2 -6 -5 
7947 6 0.164217 0.499685 0.158727 0 1 -3 
8768 6 0.337978 0.495773 0.244888 -2 0 -3 
7068 6 0.455424 0.528156 0.192326 -2 6 0 
7091 6 0.664689 0.504837 0.202306 3 -2 0 
6835 5 0.285453 0.509934 0.162402 -1 -1 -6 
8866 5 0.38376 0.549989 0.218617 3 2 4 
5871 6 0.0114812 0.48722 0.199596 1 3 1 
5825 5 0.136516 0.537184 0.196671 -2 -1 -6 
7712 5 0.584592 0.538408 0.180463 3 4 0 
5524 5 0.251787 0.529134 0.229158 0 2 5 
6602 6 0.344064 0.563378 0.219441 -1 -1 -2 
7294 6 0.289984 0.629489 0.165919 5 4 3 
5718 6 0.423057 0.579819 0.21352 2 3 0 
6544 6 0.988094 0.546177 0.159982 1 -3 3 
7749 6 0.261895 0.635237 0.194971 6 4 -5 
5834 5 0.619048 0.66391 0.203239 -6 3 -1 
5267 5 0.766483 0.661071 0.189294 -1 0 2 
5454 6 0.960308 0.651589 0.198584 0 2 -1 
5443 5 0.0603031 0.667791 0.200384 0 -2 -2 
6941 6 0.013963 0.738973 0.196968 0 -2 -4 
6842 5 0.12249 0.760716 0.198438 4 5 -4 
8371 6 0.207021 0.741259 0.164747 -2 -1 2 
6630 5 0.303183 0.7289 0.232261 0 7 6 
7866 5 0.831601 0.757279 0.184271 -3 2 1 
6668 6 0.0566347 0.722399 0.203429 1 1 1 
5617 5 0.527341 0.784439 0.175723 -4 -2 -4 
7049 6 0.178135 0.823215 0.163909 -1 0 0 
6145 6 0.581063 0.870825 0.188529 3 1 1 
5572 6 0.0396498 0.909444 0.149893 -1 -2 -3 
5564 6 0.518033 0.890277 0.210211 0 3 -2 
6334 5 0.715944 0.888156 0.221993 -2 -3 1 
6773 6 0.971135 0.901431 0.18678 7 1 0 
5421 5 0.217409 0.922565 0.163503 -5 0 -3 
8559 5 0.254552 0.895236 0.199139 3 1 2 
5213 6 0.300666 0.937078 0.183381 3 0 6 
6028 6 0.457843 0.890197 0.169322 -2 9 0 
5118 6 0.598278 0.948557 0.191845 -7 0 1 
6261 5 0.262497 0.942398 0.185964 0 -4 1 
6032 5 0.699461 0.970008 0.202449 -2 4 2 
8300 6 0.87373 0.914606 0.187547 -1 -3 4 
5788 5 0.790178 0.976782 0.229545 4 -7 2 
6959 5 0.830264 0.935055 0.196956 -7 0 -3 
5930 5 0.964389 0.976049 0.210428 -4 -1 0 
6889 5 0.543137 0.0410671 0.233605 2 3 -5 