ITEM: TIMESTEP
20000000
ITEM: NUMBER OF ATOMS
9000
ITEM: BOX BOUNDS pp pp pp
-75 75
-75 75
-75 75
ITEM: ATOMS id type xs ys zs ix iy iz 
5372 5 0.85824 0.976645 0.0399345 0 1 -1 
8745 6 0.557745 0.030088 0.0534893 -3 2 -1 
6204 6 0.748052 0.0137083 0.0285724 -2 -6 -1 
7404 5 0.941322 0.0757207 0.00556241 -4 1 -3 
5966 6 0.240742 0.0870956 0.0470932 2 -3 -3 
6624 5 0.515806 0.0834927 0.998433 1 -5 2 
7135 5 0.357904 0.163927 0.0289379 1 6 -5 
5735 5 0.219939 0.165628 0.0123171 3 -1 0 
8433 5 0.479066 0.174925 0.00317436 5 0 -2 
5702 5 0.700473 0.1559 0.0140869 1 1 0 
8658 6 0.449191 0.185214 0.0133248 -5 -2 5 
8570 6 0.471345 0.17087 0.991112 1 -1 4 
8301 5 0.472837 0.251938 0.0279573 -3 4 1 
6295 6 0.606773 0.237644 0.0409181 -3 -2 4 
8846 5 0.593801 0.278185 0.0187844 -4 1 -2 
7769 6 0.936823 0.232206 0.0262242 5 -2 5 
6214 6 0.149022 0.249912 0.981246 4 -2 1 
8659 5 0.346751 0.242282 0.986728 -3 0 -4 
5175 6 0.935456 0.258446 0.0203046 -1 3 0 
7701 5 0.0775579 0.325241 0.967254 1 2 -5 
6539 6 0.355331 0.306378 0.0278118 1 1 -2 
5997 5 0.451064 0.318776 0.0294554 3 4 -2 
7998 5 0.524516 0.350105 1.00021 -3 -1 4 
8847 6 0.635854 0.376964 0.992493 -1 1 -1 
5218 5 0.684047 0.353792 0.98039 0 -1 1 
5325 6 0.894341 0.362012 0.00330197 4 -6 6 
6076 6 0.0211393 0.338262 0.989832 0 -2 -1 
7034 5 0.987487 0.408059 0.0271786 -3 1 1 
8853 5 0.194525 0.387904 0.976447 0 0 -2 
8826 5 0.931539 0.380303 0.0200698 -1 2 2 
5123 5 0.893211 0.387379 0.00845185 -2 -1 3 
6984 5 0.486562 0.433505 0.0498544 -1 -4 -1 
5633 6 0.89364 0.40415 0.0428609 2 -2 -2 
5977 5 0.452812 0.416433 0.962861 2 5 2 
7403 6 0.408618 0.484013 0.979324 3 -3 2 
6404 5 0.562913 0.460131 0.019407 -1 -2 0 
6899 6 0.593817 0.458608 0.0173961 -1 1 0 
6670 6 0.947039 0.456907 0.984493 6 3 0 
8073 5 0.064567 0.52555 0.963738 2 4 2 
8581 5 0.259031 0.452034 0.00729515 1 0 0 
7597 6 0.307554 0.461341 0.0192138 -3 2 1 
7970 6 0.483396 0.483889 0.00987226 2 3 7 
8822 5 0.755054 0.484172 0.0319797 -2 -2 1 
6036 6 0.40581 0.508106 0.0403053 1 -5 1 
7509 6 0.0398362 0.527548 0.995541 -6 -2 2 
6883 6 0.808551 0.531316 0.000464551 1 -3 1 
7391 6 0.0580962 0.565659 0.989841 2 2 7 
8924 6 0.081193 0.542458 0.013303 2 -1 1 
5842 6 0.030696 0.568626 0.991467 -3 3 -1 
7121 6 0.689344 0.592436 0.00894835 -4 0 5 
6009 6 0.122379 0.572153 0.991363 5 0 -4 
6121 6 0.182737 0.63144 0.0114233 0 -7 1 
5621 5 0.254362 0.603747 0.0179683 -1 -4 -2 
8110 5 0.283909 0.623611 0.0295793 3 -1 -7 
7886 6 0.785339 0.617811 0.977012 0 -2 -1 
8357 6 0.0942976 0.66352 0.987757 -2 0 -3 
5222 6 0.232029 0.692877 0.0402725 3 1 0 
8202 5 0.560215 0.66631 0.015971 0 3 -5 
7675 6 0.723759 0.652647 0.0189594 3 -1 5 
5441 6 0.0296884 0.683708 0.0132442 2 0 11 
8427 6 0.0600294 0.683837 0.0373466 -3 8 -6 
5241 5 0.106603 0.680037 0.0393093 -1 -4 3 
5871 6 0.00576652 0.711487 0.00677311 5 -1 5 
5429 5 0.550056 0.718893 0.988424 -5 -5 1 
8445 6 0.575239 0.703681 0.989424 -2 -2 2 
6414 6 0.909096 0.716157 0.0145242 -1 2 3 
7607 5 0.108589 0.732457 0.018872 2 -1 1 
5405 5 0.285355 0.774065 0.970654 1 -6 -2 
5459 6 0.288228 0.741184 0.988723 -4 0 -1 
7507 5 0.90737 0.710961 0.985115 -4 0 2 
8519 6 0.215623 0.832189 0.00411233 0 -6 2 
7850 5 0.446331 0.80806 0.976191 2 -1 -6 
5685 6 0.797303 0.836789 0.0543821 0 1 1 
5049 6 0.812223 0.837399 0.00353098 -1 6 5 
7032 6 0.0321889 0.856371 0.987282 1 -1 -4 
7464 6 0.565009 0.910681 0.988819 -2 2 -2 
5054 6 0.765501 0.889242 0.0129299 3 1 1 
8200 5 0.0902358 0.935328 0.0502675 2 -5 2 
5630 6 0.859677 0.955798 0.00867947 0 0 0 
5601 6 0.987874 0.952309 0.980461 -5 0 -1 
5231 5 0.370049 0.983751 0.0575936 -4 0 2 
7965 6 0.65245 0.954532 0.0201041 0 3 4 
8534 5 0.681376 0.97567 0.0188513 -3 -6 3 
8762 5 0.722446 0.00993525 0.0370745 -6 0 2 
7390 5 0.79726 0.979505 0.0230843 -5 0 0 
5504 6 0.0178412 0.995813 0.0247737 -1 -1 0 
7835 6 0.110092 0.00850229 0.0334823 0 1 -2 
7214 5 0.649555 0.983372 0.0252575 -5 0 5 
6823 6 0.708529 0.103304 0.0358179 0 -1 0 
6644 6 0.948086 0.0781579 0.0530554 1 -2 -1 
8493 5 0.124012 0.0841458 0.021913 2 2 0 
8765 6 0.414845 0.11885 0.0278062 -2 2 -2 
6591 5 0.608161 0.114795 0.072508 -2 1 1 
7023 6 0.0563637 0.0857704 0.0525973 2 2 1 
5356 5 0.346547 0.130105 0.0278179 2 -1 2 
6012 5 0.633339 0.132255 0.0320803 -2 -3 0 
8035 5 0.771137 0.135855 0.0400516 -4 1 6 
5397 6 0.819162 0.158014 0.0315887 -1 -2 1 
7966 5 0.0168575 0.142452 0.034448 2 5 2 
7044 5 0.585108 0.121819 0.0715674 3 4 -1 
7712 6 0.289996 0.152969 0.00847807 1 1 -1 
5425 6 0.925769 0.171812 0.0377412 -2 2 -2 
7427 5 0.676854 0.167279 0.0558485 -3 1 -3 
5250 6 0.352949 0.243702 0.99544 1 1 4 
8722 6 0.565299 0.306076 0.0231716 6 0 4 
5111 6 0.829287 0.261302 0.00325547 -3 2 3 
8758 6 0.162633 0.288814 0.0259823 -3 -1 -4 
6990 5 0.0996515 0.311351 0.0367781 0 3 0 
7677 6 0.202982 0.33849 0.0294731 1 0 0 
6099 5 0.435534 0.336731 0.0328036 -1 2 -4 
6743 6 0.845689 0.352515 0.0504242 -3 3 -2 
8864 6 0.087406 0.372261 0.0332579 -2 -4 2 
7653 6 0.108136 0.351516 0.0323434 1 0 0 
8315 5 0.740891 0.381305 0.00515076 -4 2 3 
7725 6 0.391247 0.376931 0.043945 -1 4 -2 
8937 5 0.788859 0.386984 0.0232953 -1 5 3 
5159 6 0.0455574 0.438032 0.0270316 1 -3 -2 
7451 5 0.374884 0.429142 0.00320412 -1 3 5 
8558 5 0.932321 0.404922 0.0358762 4 5 1 
5131 6 0.621408 0.457039 0.0178664 1 3 -2 
8405 6 0.702999 0.482933 0.0467408 -3 1 5 
8439 5 0.879275 0.413362 0.0178525 -1 -1 2 
5463 6 0.174721 0.453148 0.0115492 -1 1 0 
5351 6 0.364078 0.511264 0.0512084 -2 -4 1 
5180 6 0.0555963 0.48223 0.993781 3 6 3 
8703 5 0.239501 0.464443 0.027139 -1 0 1 
8624 5 0.291081 0.52529 0.0298868 -1 2 5 
6690 6 0.351061 0.564424 -0.00114896 -3 3 -2 
5619 6 0.481926 0.565858 0.0274556 3 -6 -6 
5896 6 0.676671 0.555738 0.0647677 0 4 1 
7183 6 0.775737 0.553915 0.0310669 2 2 6 
8698 6 0.112535 0.574967 0.0464968 -4 -4 0 
8489 6 0.18907 0.585968 0.0143991 1 -4 -4 
7906 5 0.361686 0.575519 0.0211828 2 -1 -4 
8562 5 0.740238 0.598753 0.0133177 1 0 1 
5292 5 0.98398 0.570402 0.0258945 0 5 2 
8678 6 0.555978 0.578052 0.020764 2 0 1 
8356 6 0.574105 0.622279 0.0301771 -1 -3 -1 
5822 6 0.85595 0.581731 0.0412666 -2 1 1 
8552 5 0.965719 0.607712 0.0673358 0 -2 -4 
7988 6 0.0485754 0.60352 0.0327027 -2 -6 -2 
8235 6 0.333855 0.676968 0.0471756 -5 -4 0 
8464 6 0.676864 0.703148 0.0722906 -2 2 3 
5730 5 0.70929 0.680379 0.057951 -3 0 2 
5126 6 0.887224 0.72451 -6.50635e-05 1 1 1 
6573 6 0.330598 0.728952 0.0172885 -4 1 0 
6938 5 0.384615 0.700544 0.0213936 5 0 4 
7589 6 0.673727 0.732549 0.0281503 1 -2 -2 
5551 6 0.953565 0.735683 0.0303288 0 -3 1 
5868 5 0.767113 0.73409 0.0568969 0 0 0 
7601 5 0.208871 0.788933 0.0565718 3 -5 -9 
6819 5 0.576601 0.755338 0.029126 2 5 -1 
7352 5 0.0708384 0.834774 0.986512 1 -3 3 
8364 5 0.0886909 0.808012 0.0584191 2 4 -3 
8481 6 0.286672 0.815926 0.0110196 4 0 0 
7333 6 0.578412 0.771039 0.0867818 2 0 -4 
6859 6 0.577028 0.815395 0.0326027 -5 -1 -1 
5854 6 0.129753 0.885854 0.0063089 1 -2 2 
8725 6 0.111654 0.885939 0.994898 0 0 1 
7773 5 0.815221 0.893316 0.0303808 -9 5 -1 
8660 5 0.0165831 0.909047 0.997786 3 -1 3 
6126 5 0.315265 0.923332 0.0415126 3 -1 -1 
7923 6 0.348744 0.984777 0.0543311 3 -2 1 
6641 6 0.461204 0.00963151 0.0462991 -3 0 0 
5489 6 0.203049 0.0181808 0.0345701 3 0 -3 
7797 5 0.773809 0.985714 0.0414652 0 5 -2 
6835 5 0.227893 0.0211326 0.0705656 1 5 1 
6236 6 0.0792068 0.0350125 0.0647527 2 -5 -1 
8836 6 0.61987 0.0346664 0.0416187 0 8 -1 
6256 5 0.86904 0.0283946 0.0457941 -1 5 0 
5808 5 0.094035 0.0423781 0.0420547 -1 6 -1 
5105 5 0.268198 0.0302049 0.0485233 -4 4 -4 
5320 5 0.465235 0.0429799 0.0485553 4 3 -2 
7741 5 0.566703 0.0593429 0.0287173 0 1 -1 
6004 5 0.882844 0.0575491 0.0597427 1 1 -3 
7048 5 0.628068 0.060705 0.00592466 -4 2 0 
8821 5 0.284453 0.121948 0.0935459 -4 -2 2 
8583 6 0.351787 0.0998953 0.0785671 1 0 -2 
7424 6 0.178558 0.136433 0.0672293 7 7 1 
5440 6 0.492758 0.0982635 0.0677184 -2 1 -1 
7192 6 0.502122 0.15991 0.0206261 -7 -2 1 
8783 5 0.229405 0.231208 0.0717135 -2 -1 -4 
7512 6 0.75911 0.186258 0.107504 -1 1 -5 
7062 5 0.0433971 0.227587 0.0847492 3 -3 1 
5628 5 0.033125 0.230731 0.0599485 2 -1 0 
7155 6 0.194804 0.212088 0.0456106 1 -2 -3 
8449 6 0.609383 0.256837 0.0495622 -2 -4 2 
6138 6 0.285352 0.247248 0.102928 3 0 6 
6844 6 0.643417 0.254691 0.0607974 0 3 2 
5020 5 0.018168 0.303124 0.0355827 1 4 -2 
5300 6 0.319583 0.275685 0.0514077 1 5 -4 
6272 6 0.303437 0.287921 0.034918 -2 -1 -2 
5289 5 0.309456 0.261142 0.0320089 -3 -1 4 
6116 5 0.728425 0.299538 0.0459071 2 4 2 
6215 6 0.743579 0.284663 0.0546311 -3 5 0 
6164 5 0.134344 0.316929 0.0516843 2 -5 0 
6693 5 0.269396 0.300315 0.0152473 2 6 -4 
7986 6 0.311701 0.309155 0.0627375 -1 0 -1 
7046 5 0.817177 0.295882 0.0544039 -3 -1 -3 
7545 6 0.0958905 0.300616 0.0520857 3 2 -3 
8565 5 0.263056 0.365382 0.0774446 3 -4 -1 
5652 5 0.343104 0.349726 0.040175 0 0 -1 
8359 6 0.893321 0.349654 0.0987552 1 -7 -1 
6764 5 0.220875 0.385211 0.0626287 2 -5 5 
8747 5 0.458225 0.401228 0.0183625 -3 -5 -2 
5130 6 0.816889 0.374238 0.0652913 -5 2 2 
6015 5 0.981354 0.379027 0.0402191 -10 -1 -1 
5832 5 0.0290405 0.394869 0.0477307 0 -2 0 
6988 5 0.870988 0.385758 0.0445726 0 -5 0 
8273 6 0.149323 0.430238 0.0674893 -4 6 2 
5414 6 0.504473 0.450908 0.0606582 2 -2 -2 
5120 6 0.64773 0.44636 0.0389639 -1 6 1 
5393 6 0.823811 0.443078 0.0553258 -4 2 4 
7126 5 0.988241 0.432517 0.0346017 0 4 4 
7717 6 0.225153 0.526785 0.0587926 3 -1 5 
6246 5 0.28307 0.501332 0.0779122 1 -4 -1 
5418 5 0.974628 0.537162 0.0856986 -3 1 3 
5694 5 0.510194 0.564388 0.0440857 -2 1 -6 
5803 5 0.68656 0.550535 0.0851148 0 -5 -3 
8994 5 0.866746 0.504705 0.0748133 -7 3 -5 
7936 6 0.332937 0.628362 0.0465913 2 -3 -1 
8809 5 0.444546 0.569529 0.0383241 3 -1 -1 
6955 5 0.683093 0.590274 0.0528189 6 -4 -5 
6457 5 0.756212 0.616162 0.0655417 0 -2 2 
7273 6 0.093379 0.632176 0.0422453 0 4 0 
8631 6 0.743971 0.627109 0.0718239 3 1 1 
7187 6 0.421704 0.66706 0.0573887 0 2 -2 
5898 6 0.226952 0.657714 0.0434989 0 -4 2 
8679 5 0.314857 0.673652 0.091617 0 0 5 
7679 5 0.346705 0.706145 0.0172013 2 4 0 
8142 6 0.671369 0.710354 0.0629217 -1 -3 -2 
7490 6 0.017416 0.779939 0.0817599 -3 3 4 
8839 5 0.0761364 0.740834 0.0693941 4 5 0 
5228 5 0.586786 0.70908 0.0386496 3 0 -4 
6243 5 0.0336889 0.784982 0.0452033 1 0 2 
5876 5 0.0531864 0.804923 0.0710054 5 3 -2 
8986 6 0.636337 0.785786 0.0337081 2 -2 0 
6062 5 0.854283 0.774298 0.0845485 5 -3 4 
6522 6 0.0550938 0.794585 0.0430611 -3 4 0 
8391 5 0.250329 0.854046 0.0392329 7 2 2 
7302 5 0.265776 0.891531 0.0258423 2 -1 1 
7928 5 0.879448 0.909728 0.0280086 -2 -4 -1 
6518 6 0.525832 0.910273 0.0535167 0 -5 1 
8938 5 0.828231 0.87707 0.0724943 1 7 -2 
5608 6 0.758487 0.928922 0.0613539 -3 -1 3 
6022 6 0.130548 0.00388739 0.0479778 0 1 3 
5068 6 0.35647 0.950762 0.0355406 -3 -1 1 
7553 6 0.43805 0.92862 0.0744751 2 -2 -7 
6104 5 0.640131 0.932957 0.0948742 0 -1 0 
6463 6 0.0904058 0.959448 0.0588417 4 0 -5 
5373 6 0.236364 0.949526 0.0348894 2 -1 -2 
6496 6 0.332759 0.965925 0.0561063 1 0 2 
7817 6 0.86822 0.0381286 0.0664711 4 2 1 
8375 6 0.248576 0.050579 0.104335 0 -4 2 
5728 6 0.208374 0.0362377 0.0719466 -2 0 -2 
8196 5 0.0718119 0.071533 0.131538 4 1 -2 
6869 5 0.779018 0.0895426 0.0632206 -2 -2 -4 
6930 5 0.226497 0.14044 0.0642241 -1 -3 -4 
5388 5 0.400229 0.0941276 0.0424597 -4 6 0 
6929 6 0.839979 0.108843 0.0849678 1 -2 1 
8294 5 0.709203 0.155612 0.0677929 3 1 -1 
6746 6 0.868118 0.16844 0.0853544 0 -1 1 
6514 5 0.679912 0.149493 0.0413528 0 4 -2 
7136 6 0.0267688 0.192683 0.0662853 -1 3 -1 
7066 5 0.387365 0.188204 0.0786368 -2 2 -2 
8494 5 0.632706 0.180883 0.0869676 2 -1 4 
6180 6 0.416013 0.230126 0.100287 -4 3 5 
7550 6 0.531907 0.201255 0.0851043 3 0 -1 
7995 6 0.584967 0.224719 0.088919 0 -1 3 
8532 6 0.612419 0.261655 0.0876646 1 -4 -1 
6908 5 0.700854 0.308134 0.0881967 0 2 1 
7122 5 0.282238 0.307689 0.124244 0 0 -3 
6124 6 0.971068 0.315042 0.0823213 2 -2 3 
5878 6 0.00040209 0.319675 0.111288 4 -1 3 
7757 6 0.355256 0.346536 0.0939898 2 -4 -3 
7431 6 0.683478 0.344793 0.0836662 -6 -3 1 
5316 6 0.802115 0.343939 0.080997 1 -1 0 
5051 6 0.187362 0.385947 0.106724 -6 -5 -5 
7314 6 0.0647224 0.410087 0.0478352 5 3 -2 
8309 5 0.650476 0.38559 0.108207 -1 2 1 
8346 6 0.622545 0.430225 0.0695043 3 5 -3 
5036 6 0.527496 0.466606 0.0879973 4 4 3 
5891 6 0.232763 0.45513 0.0754167 -2 3 1 
8318 6 0.466173 0.436405 0.0801852 -1 -1 2 
6837 6 0.0640859 0.490553 0.0892101 2 2 3 
7940 6 0.401944 0.472549 0.0802456 -6 -1 2 
5424 6 0.8819 0.473237 0.0853448 -1 -1 4 
6654 6 0.10253 0.52775 0.0958631 8 6 0 
8759 6 0.175584 0.548745 0.112352 2 3 -3 
6350 6 0.411012 0.493693 0.082469 7 -1 -1 
7573 5 0.63413 0.521909 0.0401196 -1 2 0 
8637 6 0.717171 0.52015 0.0652033 -1 4 1 
8417 5 0.712324 0.495295 0.0582481 1 4 1 
5778 6 0.841517 0.502617 0.0704986 2 3 1 
5212 5 0.973067 0.480589 0.061926 -5 -2 -3 
6167 6 0.427262 0.537909 0.0575964 0 -2 1 
8810 5 0.717964 0.548512 0.0980112 0 0 -3 
5145 5 0.0344135 0.602774 0.0883003 2 0 4 
6486 6 0.126475 0.597064 0.113411 0 -2 -2 
8314 6 0.127537 0.58666 0.0861748 3 0 -1 
7788 6 0.300144 0.596925 0.118645 1 -1 -3 
5067 5 0.577886 0.605653 0.0981936 0 1 -6 
5205 6 0.734119 0.616099 0.137453 1 0 3 
5416 5 0.932613 0.607948 0.105575 0 0 -2 
5415 6 0.283605 0.622451 0.107822 3 -2 -2 
6847 6 0.0960232 0.70055 0.0839537 -1 -2 1 
7624 5 0.380847 0.656326 0.0580727 3 -3 3 
5592 5 0.205141 0.720815 0.0503544 -1 3 1 
6554 5 0.250295 0.73387 0.0979982 4 -6 -1 
8883 5 0.559094 0.735569 0.0739886 -2 0 3 
5611 6 0.328378 0.739268 0.0973651 3 4 -4 
8238 5 0.471807 0.734439 0.0679538 -1 0 0 
7821 5 0.747928 0.739839 0.0573144 1 -3 5 
5944 5 0.0074093 0.745698 0.081365 3 2 0 
5961 5 0.294248 0.790905 0.0409872 0 1 4 
7058 6 0.841702 0.761508 0.0345329 1 -2 -2 
7711 6 0.3516 0.832652 0.050831 6 3 1 
7938 5 0.209854 0.851084 0.0552969 0 -7 -4 
7011 6 0.905341 0.836836 0.102354 3 4 -1 
8214 6 0.20236 0.87299 0.10635 -2 -6 -1 
5564 5 0.349482 0.847835 0.0826855 -2 -1 0 
8353 6 0.480263 0.879154 0.100306 -5 -1 -1 
5312 6 0.100499 0.920816 0.100001 2 -3 -4 
7587 5 0.110688 0.87168 0.116575 0 2 4 
7139 6 0.295087 0.900467 0.0590369 -1 -5 1 
7598 6 0.0657914 0.98601 0.0562317 1 1 2 
8173 6 0.191581 0.96184 0.107628 1 1 -2 
6910 6 0.251624 0.958829 0.0626846 0 -4 6 
7926 6 0.646147 0.985358 0.0881566 -1 3 -5 
7620 5 0.985993 0.0105723 0.102429 -4 -7 1 
6234 5 0.483832 0.0383405 0.0673126 -3 -4 2 
6702 5 0.219484 0.0602598 0.107007 -4 2 -4 
8446 5 0.2101 0.133021 0.0857033 1 0 4 
7174 6 0.205406 0.0807093 0.109457 -1 3 -4 
5282 5 0.239804 0.13963 0.079991 0 0 0 
8027 6 0.0655824 0.104964 0.0893438 4 -2 -1 
6904 5 0.00426007 0.155161 0.0915362 3 -1 0 
7013 6 0.115729 0.20753 0.112617 2 1 0 
8285 6 0.0639989 0.163367 0.0932855 1 -1 -1 
8258 6 0.157726 0.183251 0.102841 -3 1 2 
5229 5 0.664197 0.18641 0.0698539 -2 3 -1 
6921 6 0.258876 0.211394 0.112387 2 -2 -1 
7557 5 0.789718 0.233839 0.0996702 0 6 1 
7726 6 0.86833 0.176252 0.0693319 3 0 4 
5500 5 0.496204 0.268365 0.088161 4 1 -4 
5539 5 0.854753 0.245697 0.105828 -2 -3 1 
7453 6 0.284075 0.294752 0.0850084 3 3 0 
7405 5 0.180625 0.290248 0.0675042 0 -4 -5 
8366 6 0.228906 0.316148 0.0895238 -3 2 2 
6916 6 0.465021 0.338795 0.119687 0 0 1 
6122 6 0.572414 0.349157 0.0894334 7 3 4 
6364 5 0.835131 0.278239 0.14448 4 -4 -3 
6113 6 0.860795 0.333991 0.130746 0 -3 0 
6450 5 0.902567 0.364062 0.118474 4 5 2 
8040 5 0.02157 0.382272 0.120177 -2 2 -1 
6651 6 0.506539 0.412285 0.12219 0 -4 -4 
6942 6 0.0761068 0.473626 0.0918393 0 -1 -2 
8052 6 0.319594 0.477027 0.079158 0 -2 0 
6945 6 0.440958 0.468653 0.0986754 1 1 -1 
5331 6 0.754644 0.487526 0.117053 2 -1 4 
6852 6 0.951599 0.521697 0.105358 0 -1 0 
6189 6 0.23253 0.53586 0.0968553 -2 -3 -1 
5284 6 0.552872 0.528703 0.0888108 -1 -8 -5 
8063 5 0.531982 0.573216 0.0673947 0 3 0 
5577 5 0.687135 0.525095 0.104497 2 2 0 
5329 5 0.545604 0.551474 0.1483 3 2 7 
6117 6 0.841457 0.560189 0.149609 3 -2 3 
5448 6 0.99172 0.582592 0.0973379 -1 -2 2 
8964 6 0.0451108 0.565142 0.0956933 1 -5 2 
8860 5 0.966778 0.601547 0.0935634 -3 -1 4 
8584 6 0.287486 0.610495 0.129561 4 -3 -3 
6583 6 0.289039 0.693834 0.0923002 2 2 -5 
6317 6 0.719427 0.689429 0.110277 0 -2 -4 
5544 6 0.80293 0.657179 0.0836378 -8 -5 2 
7020 6 0.978324 0.810143 0.0977075 -6 -1 -4 
5496 5 0.046293 0.765188 0.0972403 -1 -4 0 
7842 6 0.167672 0.785841 0.113756 6 4 0 
6502 5 0.770206 0.796841 0.0711427 2 -2 2 
6049 5 0.271441 0.83481 0.0891287 7 -2 -1 
7369 6 0.439962 0.84609 0.115907 -3 -3 4 
7795 6 0.551333 0.780696 0.100547 1 1 1 
6203 5 0.640238 0.829413 0.138141 3 2 3 
6260 5 0.329978 0.881181 0.0979719 3 -2 -1 
5841 6 0.599036 0.88868 0.087803 3 2 -3 
7946 6 0.12442 0.867051 0.0981752 -5 -1 5 
5526 5 0.0457212 0.900961 0.091031 -5 -4 2 
7306 6 0.587034 0.92596 0.103356 0 0 0 
6552 6 0.616948 0.943446 0.0937068 2 -2 -1 
6438 6 0.996362 0.959234 0.0888754 -1 -3 0 
8511 5 0.259633 0.958826 0.106284 2 -2 1 
8086 6 0.535626 0.97279 0.0773869 -4 4 -1 
8477 5 0.3509 0.0183846 0.127378 -1 -2 0 
5271 5 0.640311 0.981336 0.11482 -5 -4 -6 
8499 6 0.914816 0.0170374 0.0761171 -2 6 7 
7713 6 0.206069 0.0227799 0.137184 -1 2 2 
6617 6 0.501102 0.105049 0.152452 -2 2 -3 
7642 5 0.57332 0.14617 0.105742 3 5 -5 
6361 5 0.805048 0.12847 0.129408 2 -1 -2 
7447 6 0.812531 0.144072 0.129056 -3 -2 -1 
5759 5 0.0639934 0.131551 0.125033 -1 3 4 
7227 5 0.248921 0.1764 0.118993 4 2 5 
6537 6 0.772523 0.131641 0.142019 -3 5 1 
7990 5 0.265569 0.185353 0.151483 1 -2 3 
7385 6 0.760755 0.19944 0.113903 0 0 2 
8252 6 0.868204 0.235169 0.154791 -5 2 2 
5358 5 0.225335 0.23208 0.1274 2 -1 -1 
5911 5 0.294696 0.226831 0.111043 4 0 1 
7335 6 0.546159 0.254697 0.10364 2 1 -2 
7257 6 0.847894 0.247726 0.151789 3 -2 3 
6466 5 0.535895 0.26368 0.125303 3 5 0 
6357 6 0.0845263 0.322203 0.104525 5 -1 -3 
6340 6 0.470257 0.294618 0.0843872 -5 -4 2 
8251 6 0.883407 0.320021 0.0985558 5 6 2 
8579 6 0.302749 0.345304 0.156003 -1 1 0 
5327 5 0.814956 0.405975 0.111541 -3 0 1 
8409 5 0.00682055 0.405359 0.1015 3 4 5 
8386 5 0.510117 0.367524 0.135064 3 0 3 
8203 6 0.165388 0.407854 0.0981608 1 1 1 
5503 5 0.43978 0.421269 0.11249 5 2 -1 
8589 5 0.587462 0.387469 0.127253 -3 6 -1 
8616 5 0.180553 0.466528 0.10084 5 1 0 
5003 6 0.00179901 0.495211 0.133145 4 -4 -1 
5176 6 0.720806 0.474221 0.133734 3 1 1 
6555 5 0.170682 0.507488 0.118792 -1 -2 2 
7057 6 0.66324 0.535307 0.129066 2 3 -3 
7133 5 0.848273 0.524286 0.130502 0 -3 0 
8508 6 0.20648 0.574973 0.115965 0 2 -1 
8337 5 0.301312 0.513572 0.12668 4 -3 -1 
5754 5 0.419573 0.554577 0.110252 -3 -2 2 
7500 6 0.697704 0.541044 0.126192 4 1 3 
7482 6 0.97014 0.55718 0.133427 -2 5 -7 
5660 6 0.101064 0.581203 0.147549 2 0 2 
8191 5 0.27038 0.554224 0.108078 6 0 5 
6451 5 0.223542 0.595991 0.116777 -2 2 0 
5602 5 0.48484 0.583543 0.124724 3 0 1 
6285 5 0.907019 0.631004 0.124797 1 0 3 
6843 5 0.47871 0.590302 0.103091 2 4 -1 
7729 6 0.143595 0.675098 0.136512 7 -5 2 
5268 6 0.36628 0.688748 0.0945344 2 -1 1 
6595 6 0.763572 0.639141 0.129866 3 -1 -1 
6103 6 0.938087 0.636324 0.127491 1 -1 -7 
5692 5 0.0703763 0.656331 0.109834 -1 -5 -1 
5304 5 0.41213 0.701495 0.123749 5 6 2 
8358 6 0.605309 0.65655 0.153673 1 1 4 
5588 6 0.658195 0.688417 0.115098 4 0 -5 
6570 6 0.938672 0.704228 0.105355 1 -1 4 
8646 6 0.0562295 0.745205 0.100666 0 -2 0 
6315 6 0.130657 0.699393 0.1224 1 1 -6 
5721 5 0.190892 0.732201 0.145223 -2 0 0 
5528 5 0.269059 0.751901 0.127242 1 1 4 
8108 6 0.359776 0.754841 0.130205 0 3 1 
5691 5 0.525885 0.750875 0.131971 -2 2 1 
5899 5 0.998724 0.722464 0.116817 -3 -5 -4 
7086 6 0.380671 0.77173 0.139365 0 1 0 
8869 6 0.428346 0.735096 0.135489 -1 -1 0 
6209 6 0.540761 0.738811 0.106282 1 -5 -2 
5519 5 0.941714 0.795371 0.171837 -2 3 4 
7374 6 0.765926 0.785941 0.130848 0 0 0 
8656 5 0.161637 0.817531 0.137578 4 1 -1 
6685 6 0.326933 0.844927 0.114793 3 0 -1 
5383 5 0.930663 0.785869 0.0811796 4 -3 4 
8487 6 0.129786 0.834075 0.156397 2 -2 0 
6363 5 0.678872 0.801749 0.124167 0 2 1 
7410 5 0.287599 0.825868 0.135571 2 -2 -1 
5045 6 0.903297 0.835695 0.129485 1 -5 5 
6789 5 0.882545 0.837098 0.126829 -2 2 -1 
5422 5 0.921401 0.868816 0.100433 -2 3 -1 
6754 6 0.924249 0.860085 0.150872 0 -5 -3 
8524 6 0.0750267 0.904353 0.107845 5 2 1 
7450 6 0.157833 0.859909 0.110249 -1 0 4 
8060 5 0.479884 0.899584 0.0971482 -4 -4 2 
5337 6 0.682148 0.902129 0.105284 0 0 4 
8113 6 0.961148 0.901548 0.147814 1 5 4 
8545 6 0.00886069 0.938066 0.0902274 4 0 3 
6166 6 0.147042 0.908484 0.142843 1 -3 0 
8138 5 0.229 0.928788 0.0995038 -2 2 -4 
5848 6 0.342069 0.934663 0.1378 -4 -5 -1 
6213 6 0.691048 0.920386 0.0895279 -6 2 2 
5576 5 0.753207 0.938894 0.148522 -2 3 -5 
5249 5 0.458365 0.898917 0.10142 3 1 -6 
7195 5 0.673404 0.916185 0.114225 -2 -3 1 
7264 6 0.693996 0.947299 0.0748877 0 -2 0 
5392 6 0.727246 0.0195912 0.154624 -7 3 5 
8627 5 0.407737 0.0406443 0.155411 -4 0 2 
8668 6 0.265171 0.0474896 0.171961 2 1 -5 
6393 5 0.607851 0.0721739 0.220577 2 4 -1 
6739 5 0.0709975 0.0357867 0.173456 -4 2 -2 
5670 5 0.30421 0.0777686 0.182693 0 -4 3 
5811 6 0.96471 0.0803936 0.136521 -4 0 1 
7102 6 0.205594 0.0849433 0.135349 4 3 -1 
6596 5 0.73237 0.144806 0.129821 -5 2 1 
5930 5 0.921724 0.11286 0.164088 -4 0 4 
8904 5 0.972941 0.176412 0.151031 1 -2 2 
8665 6 0.0246266 0.159667 0.1748 0 -2 0 
6542 6 0.385951 0.130946 0.151565 2 -5 7 
6383 5 0.435017 0.170339 0.140884 3 3 0 
6788 6 0.757985 0.170039 0.137152 -3 -2 4 
8949 6 0.782187 0.148566 0.137404 -1 -2 -1 
7697 5 0.84001 0.164521 0.127755 -4 4 2 
8875 6 0.816172 0.217032 0.144965 1 -1 0 
7177 6 0.447941 0.258006 0.128365 -2 2 -1 
6903 5 0.515556 0.17652 0.147517 1 4 -3 
6348 6 0.920404 0.230629 0.198973 3 -2 2 
5582 5 0.237001 0.234225 0.13511 4 3 2 
6309 6 0.655595 0.252798 0.159551 0 0 6 
7922 6 0.306667 0.297762 0.156676 0 5 3 
6175 5 0.680643 0.263672 0.160484 -2 0 1 
5939 5 0.849912 0.255258 0.140197 1 -7 -1 
7622 5 0.36947 0.289135 0.13844 -1 -4 -2 
7930 5 0.493841 0.332997 0.153062 5 -1 -2 
6074 5 0.4791 0.307255 0.174968 3 -1 -2 
5965 6 0.720756 0.300663 0.141899 -5 -4 4 
8070 5 0.706257 0.294118 0.138016 -1 -1 1 
7356 5 0.0528558 0.343307 0.163574 -1 2 -2 
5344 5 0.815792 0.300703 0.12972 5 0 2 
7623 6 0.00256383 0.340967 0.154255 1 1 -1 
6143 6 0.322937 0.33955 0.137106 -3 5 -2 
6951 6 0.173407 0.419237 0.146116 -5 2 -1 
7560 6 0.922463 0.46417 0.13949 -4 3 2 
7449 5 0.998783 0.385894 0.130351 -2 -5 -4 
5967 6 0.0473558 0.40204 0.12728 5 0 5 
5704 6 0.275891 0.430944 0.180422 3 4 -2 
5546 5 0.369345 0.458448 0.130441 -6 -2 1 
7745 6 0.990939 0.503583 0.134646 -3 -1 -2 
7519 5 0.625218 0.536214 0.113838 2 0 -1 
6939 5 0.122218 0.55314 0.143558 0 2 2 
5732 5 0.4239 0.53112 0.146604 2 3 2 
7778 5 0.0799119 0.603738 0.195363 3 1 -2 
5736 6 0.173532 0.563362 0.133851 0 -1 5 
5167 5 0.393583 0.584641 0.186871 -5 1 -2 
8575 6 0.745786 0.566589 0.180875 -3 -1 -5 
6770 5 0.726835 0.581205 0.161502 -3 1 -1 
8036 5 0.716139 0.588196 0.151116 0 0 -1 
7503 6 0.0445907 0.66464 0.119256 -3 0 4 
5275 6 0.0386085 0.650187 0.127795 -1 3 -2 
8569 6 0.789857 0.658803 0.18061 1 -1 2 
6244 5 0.92429 0.614917 0.159677 -4 2 2 
6054 5 0.695702 0.637089 0.0987926 2 -2 -3 
5071 5 0.0965356 0.73398 0.112482 -1 0 -4 
5693 6 0.119664 0.72407 0.123331 -2 -5 1 
8137 5 0.224074 0.682709 0.183448 1 -2 4 
5703 6 0.33711 0.642016 0.150643 1 -2 0 
5468 5 0.199706 0.71775 0.14128 4 -1 5 
8712 5 0.359366 0.700497 0.143124 -4 1 0 
5279 6 0.509976 0.719508 0.171521 -2 2 -2 
8850 5 0.865469 0.664885 0.109474 2 0 1 
7255 6 0.422667 0.764782 0.137612 -2 1 1 
6177 6 0.864098 0.742569 0.160316 -2 1 2 
5220 6 0.835601 0.778625 0.148906 -5 3 2 
6320 6 0.322807 0.772044 0.151631 -2 0 2 
6647 5 0.576525 0.795714 0.132086 1 0 -3 
8969 5 0.613642 0.764295 0.121398 -6 2 -1 
6944 6 0.0518532 0.835447 0.183221 1 1 1 
6001 5 0.676039 0.792352 0.181186 4 3 4 
6050 5 0.719058 0.789198 0.131492 0 -3 1 
7875 5 0.555214 0.861359 0.141011 5 -1 2 
5404 5 0.172874 0.904106 0.168769 3 0 2 
5033 6 0.513265 0.812834 0.131359 0 0 1 
8425 6 0.521428 0.890801 0.140319 -2 1 -4 
8128 5 0.609241 0.911002 0.140144 3 3 -1 
7987 6 0.630009 0.884357 0.146843 4 -1 4 
5865 6 0.489837 0.895883 0.131073 -2 -4 -1 
5060 6 0.653163 0.926959 0.136417 2 -2 4 
6289 5 0.778848 0.923132 0.150455 4 -2 2 
5177 5 0.078317 0.893198 0.143477 2 -7 2 
5480 6 0.762212 0.942083 0.128006 3 -4 1 
7864 6 0.775965 0.998219 0.123656 0 -3 -3 
7921 6 0.579458 0.983331 0.149962 2 0 0 
7173 6 0.493333 0.982563 0.176318 0 4 1 
5834 6 0.955859 0.0061882 0.150329 1 1 3 
5875 6 0.692486 0.0475045 0.15333 -4 5 -1 
7625 5 0.964209 0.0558565 0.147033 -3 -2 4 
8172 6 0.0300411 0.117061 0.1456 5 5 -6 
6784 5 0.444482 0.128675 0.134699 2 3 -3 
8059 5 0.595724 0.126201 0.182804 -1 -1 -1 
8766 6 0.731948 0.164975 0.184636 -4 -3 2 
5700 6 0.771804 0.125528 0.130101 1 -3 5 
7751 6 0.673206 0.192565 0.142343 -2 3 -2 
5484 5 0.780159 0.155356 0.181505 -1 -2 -3 
7402 5 0.711442 0.186545 0.164964 -2 6 -2 
7004 5 0.160801 0.180711 0.180191 -1 3 -4 
5729 5 0.227238 0.218894 0.138623 0 2 -1 
5587 6 0.432699 0.257024 0.189198 -3 1 1 
8287 5 0.501624 0.213014 0.161229 0 2 1 
7396 5 0.0434469 0.242774 0.148998 4 0 -1 
6131 6 0.15364 0.310534 0.137815 0 3 -4 
5532 6 0.687074 0.257443 0.191732 -2 -3 -3 
8466 6 0.831091 0.248495 0.207781 5 -1 2 
7053 6 0.439325 0.298767 0.182133 0 -1 -1 
5992 5 0.87021 0.285499 0.179442 0 4 -1 
6666 5 0.653332 0.331859 0.179069 0 3 3 
6840 6 0.4287 0.340422 0.156926 2 -1 -3 
7890 5 0.566102 0.339033 0.156257 -2 0 -4 
6423 6 0.948141 0.313296 0.143701 1 -3 -2 
8804 6 0.371115 0.340017 0.120762 1 -2 3 
7256 6 0.617581 0.352421 0.183502 1 -2 0 
7615 5 0.617457 0.361567 0.154214 -2 4 3 
6206 5 0.939697 0.336811 0.125247 -5 -2 3 
6139 6 0.309841 0.415625 0.18625 -1 0 -3 
8001 5 0.304418 0.367355 0.161861 4 -7 2 
5513 5 0.132626 0.417914 0.155977 3 1 -2 
5232 6 0.33659 0.397064 0.160649 2 2 2 
6399 5 0.691908 0.404805 0.177003 0 -1 -2 
5151 5 0.0517955 0.44179 0.156267 3 -2 3 
5749 6 0.455855 0.434873 0.19597 2 1 0 
7072 6 0.0941544 0.420883 0.159279 2 -3 2 
7219 6 0.906865 0.433387 0.165994 0 5 0 
7682 5 0.179704 0.458821 0.155753 3 1 -1 
6705 5 0.225461 0.486423 0.172922 5 4 -1 
5305 5 0.235304 0.504511 0.186605 6 1 -3 
7288 5 0.199257 0.502739 0.193478 3 -2 -3 
5951 5 0.262629 0.514181 0.155265 -6 -4 -4 
7953 5 0.335154 0.502408 0.171339 8 -2 3 
5038 6 0.642108 0.558611 0.14981 1 -2 0 
6668 6 0.863299 0.546118 0.174378 -1 10 -7 
5907 5 0.844525 0.554125 0.174031 2 -1 0 
7425 5 0.0786196 0.537148 0.189421 4 3 6 
7041 5 0.968697 0.55147 0.23031 1 -4 4 
5040 5 0.175976 0.630354 0.177327 3 -1 3 
8650 5 0.85331 0.657296 0.177462 1 0 3 
8286 6 0.181144 0.63732 0.191219 -3 -7 0 
6918 6 0.341245 0.669604 0.124127 -1 2 -2 
8295 6 0.95384 0.661171 0.163075 3 -3 4 
5165 6 0.321457 0.709166 0.144721 2 0 1 
7766 6 0.312462 0.686597 0.1585 -2 2 3 
6253 5 0.735242 0.738546 0.140033 3 -1 2 
5831 6 0.913454 0.705433 0.142077 2 -3 -3 
8775 5 0.258222 0.73451 0.194277 -2 0 0 
5179 5 0.0247521 0.74864 0.14518 2 0 4 
8079 5 0.881201 0.778324 0.195298 1 -1 0 
8901 6 0.931933 0.799739 0.182729 3 0 -1 
5566 6 0.38108 0.824731 0.161647 5 2 -1 
5571 5 0.638566 0.837622 0.190223 2 -3 -1 
5978 5 0.370606 0.844301 0.139504 2 0 0 
8886 6 0.341174 0.816034 0.198909 6 -1 3 
5881 5 0.980195 0.895231 0.166158 0 -4 0 
6221 6 0.0307521 0.887318 0.186169 -2 -1 0 
5143 5 0.00879725 0.91077 0.181749 -1 -1 5 
7866 5 0.19394 0.88415 0.175196 -2 5 -1 
5807 5 0.756183 0.92892 0.15097 1 -2 2 
6005 5 0.530023 0.927038 0.187289 1 -4 0 
6037 5 0.0719357 0.985926 0.189549 2 5 -3 
5195 6 0.0688897 0.922053 0.159474 -5 -2 0 
5002 5 0.306942 0.994067 0.155712 -3 1 1 
5269 6 0.468346 0.943421 0.204072 -3 -4 1 
5494 6 0.606599 0.937551 0.155167 -2 0 -5 
5826 5 0.910006 0.941745 0.190936 4 0 -3 
7432 6 0.0072772 0.965921 0.149575 1 0 3 
8270 6 0.245051 0.978809 0.168358 2 -1 1 
6960 5 0.888823 0.954668 0.142258 -1 1 2 
7235 6 0.549659 0.992052 0.169198 2 0 -3 
8328 6 0.268371 0.97556 0.213377 0 -1 3 
5515 6 0.444202 0.0163611 0.183195 -1 -1 -6 
5598 5 0.599907 0.0186255 0.223498 -1 2 -1 
5593 5 0.843817 0.978482 0.195919 -2 5 -1 
6281 5 0.161088 0.0209146 0.188521 -2 0 1 
8118 5 0.865018 0.0778727 0.187538 -2 1 0 
6882 6 0.916184 0.0909909 0.238228 3 -1 -4 
5516 6 0.190955 0.107862 0.197801 0 2 4 
7570 5 0.768088 0.104944 0.225079 1 0 5 
7961 5 0.977112 0.107354 0.196544 -1 3 6 
7386 6 0.691037 0.0905635 0.222771 8 3 0 
8326 5 0.845074 0.100113 0.235854 2 3 1 
8290 5 0.824206 0.184181 0.191085 -1 1 3 
7859 5 0.716654 0.208709 0.225723 0 -2 -3 
7855 6 0.386519 0.237647 0.204923 0 -1 -1 
6976 6 0.501729 0.200519 0.190323 3 2 -1 
7409 5 0.100761 0.297726 0.182638 2 -3 0 
7612 6 0.723047 0.25584 0.212365 1 3 0 
6771 5 0.923533 0.298776 0.165115 -3 1 1 
7349 5 0.967764 0.274359 0.161192 1 1 2 
6820 6 0.434872 0.303763 0.202811 4 -2 1 
6128 6 0.708382 0.277112 0.197974 0 -1 3 
7051 6 0.0523307 0.340228 0.195782 3 -1 2 
5915 6 0.585 0.320745 0.215139 1 5 0 
7728 6 0.57812 0.322129 0.212963 2 2 -2 
8684 6 0.71207 0.340966 0.212959 0 1 -2 
6228 6 0.90432 0.331871 0.196742 2 -2 0 
7840 6 0.904232 0.314204 0.199193 -3 -3 -3 
6445 6 0.243117 0.351934 0.211515 -2 -2 1 
8955 6 0.631419 0.37262 0.227047 -4 0 5 
8639 6 0.650846 0.377238 0.198864 -7 -2 -1 
8204 6 0.0175888 0.334097 0.160724 -3 1 -1 
5746 5 0.175399 0.371406 0.210388 4 3 6 
6954 5 0.411401 0.434863 0.198321 6 1 0 
7777 5 0.889555 0.412149 0.200395 -1 2 6 
7911 6 0.717437 0.468962 0.205498 2 0 0 
5579 6 0.0588831 0.453148 0.192535 -6 -3 -1 
8878 5 0.750953 0.468264 0.19175 6 -1 3 
8274 5 0.898323 0.461414 0.209717 0 -1 -1 
5604 5 0.0433858 0.514171 0.193455 -2 -4 1 
5072 6 0.185089 0.481875 0.198062 -1 -2 -1 
7365 6 0.165581 0.485084 0.168699 -2 -1 -5 
7964 5 0.161654 0.4961 0.187996 -1 -2 1 
8909 5 0.221106 0.52966 0.1957 2 -1 4 
5569 5 0.555161 0.500373 0.222284 1 -5 5 
8378 6 0.646141 0.518338 0.238775 -5 1 3 
7246 6 0.297244 0.517325 0.177949 -3 0 3 
5174 5 0.798596 0.570974 0.219079 -2 0 1 
7197 6 0.959154 0.556925 0.139415 -3 1 -3 
6391 5 0.00822271 0.560501 0.191371 3 0 1 