ITEM: TIMESTEP
20000000
ITEM: NUMBER OF ATOMS
9000
ITEM: BOX BOUNDS pp pp pp
-75 75
-75 75
-75 75
ITEM: ATOMS id type xs ys zs ix iy iz 
6887 6 0.244593 0.0210045 0.0433303 6 1 -1 
8221 6 0.759479 0.0836581 0.0173786 -1 -5 0 
8982 6 0.3016 0.130986 0.0173552 -1 -1 -4 
6564 5 0.463076 0.11763 0.0193291 1 -6 0 
6147 6 0.525122 0.0829809 0.00978648 2 1 3 
6838 5 0.964763 0.109829 0.98757 3 3 1 
8642 6 0.0205134 0.125496 0.998676 -1 -4 -4 
7379 6 0.398917 0.132627 0.984908 -5 -6 1 
5128 5 0.682232 0.165347 0.0461063 -5 6 4 
5546 5 0.0834751 0.184564 0.0352543 0 0 4 
7884 6 0.36017 0.175009 0.0168657 2 -4 1 
6846 5 0.783067 0.219974 0.984934 -2 0 -1 
6054 6 0.167254 0.263657 0.0160835 5 -3 -4 
8523 5 0.573092 0.213518 0.986912 1 2 4 
6393 5 0.142416 0.232394 0.00284029 0 4 0 
5123 6 0.16031 0.259991 0.993817 4 -6 -2 
6932 5 0.749822 0.255913 0.0270976 -1 -4 4 
6826 6 0.395687 0.272252 0.0369413 -4 2 -4 
5684 5 0.560085 0.247082 0.00274696 -2 -1 -7 
7919 6 0.813112 0.281085 0.00622838 4 6 -1 
8132 6 0.212334 0.306711 0.00736442 0 -4 4 
6901 6 0.135453 0.348042 0.00739436 2 1 1 
6436 5 0.184691 0.336992 0.98708 1 -6 4 
7071 5 0.0966024 0.358447 0.0226653 2 2 -4 
7496 6 0.423979 0.367758 0.00386952 2 -1 -5 
8214 5 0.398732 0.41304 0.977296 -2 1 -1 
6303 6 0.0564412 0.415793 0.050806 -1 -1 5 
6501 6 0.630595 0.447143 0.0352891 1 3 0 
8122 6 0.767631 0.388707 0.0376058 1 -5 -6 
6697 5 0.785292 0.429187 0.0177442 -5 1 0 
8895 6 0.867199 0.388616 0.0309745 3 -2 1 
6005 5 0.123259 0.487988 0.00996902 -5 -4 0 
8691 6 0.138624 0.48196 0.047408 3 -1 2 
6976 6 0.216723 0.449029 0.983804 -4 -2 -3 
8405 6 0.970906 0.458206 0.97433 2 1 -1 
5520 6 0.0479211 0.504549 0.0334535 0 -3 2 
8821 6 0.473574 0.490431 0.0204986 2 -6 -4 
5227 6 0.657863 0.504723 0.0236744 0 -2 3 
7511 6 0.669867 0.497089 0.010661 0 2 0 
7636 5 0.909512 0.470892 0.0286808 8 -3 -5 
5353 6 0.980812 0.507155 -0.000857231 2 -3 -1 
6441 6 0.371897 0.540151 0.0329952 0 5 -2 
7295 6 0.973659 0.583443 0.000961626 5 8 -3 
6331 6 0.0464249 0.531679 0.0345414 0 0 2 
5347 6 0.201454 0.565078 0.000171169 0 -2 5 
6981 5 0.377402 0.577373 0.0406564 -6 -1 -5 
6776 6 0.511788 0.583271 0.04316 -2 4 2 
7264 5 0.682864 0.581539 0.0347368 0 -4 2 
8565 5 0.169018 0.634072 0.0618752 4 3 3 
5395 5 0.270579 0.636287 0.0228117 1 0 -4 
6870 6 0.644841 0.632993 0.997138 3 3 0 
5531 6 0.42709 0.67303 0.0232676 -3 -7 3 
5745 6 0.908021 0.666949 0.0312961 -2 -1 3 
8974 6 0.0212079 0.66966 0.0196016 1 -4 2 
5595 6 0.132582 0.677942 0.0209567 -5 0 -3 
6760 6 0.67418 0.670334 0.0528472 1 2 -1 
7708 6 0.602279 0.681576 0.0140787 -1 -3 1 
5110 5 0.821985 0.740284 0.0126283 -1 3 -3 
6445 5 0.499313 0.788992 0.00124744 2 -1 0 
5794 6 0.480447 0.829932 0.0061383 5 0 -2 
8763 6 0.834663 0.831776 0.965375 -1 -4 -2 
5001 6 0.214315 0.860716 0.00432718 -1 3 4 
5888 5 0.15767 0.895281 0.020385 1 -1 5 
6548 5 0.382872 0.889253 0.00942846 -5 5 0 
8099 6 0.0801496 0.928769 0.00712224 4 4 -1 
8558 5 0.213784 0.88785 0.999925 0 -2 4 
8174 6 0.865926 0.934569 0.963671 -6 -3 -2 
6722 6 0.00287188 0.948259 0.0323087 -3 -1 9 
7893 5 0.394402 0.937675 0.0436594 -3 -1 1 
6847 5 0.716269 0.935632 0.0188926 -1 -2 0 
7104 5 0.00677534 0.910013 0.976412 1 -1 3 
6917 6 0.331951 0.957346 0.038006 1 0 -5 
8966 5 0.433728 0.961829 0.982987 -2 3 3 
7811 6 0.737304 0.990423 0.0230863 8 0 2 
7952 5 0.00218878 0.977943 0.997717 2 2 -3 
8156 6 0.829311 0.990972 0.0328867 3 -3 4 
7808 6 0.393009 0.99856 0.00928859 -2 -5 -1 
7764 5 0.525965 0.00445228 0.0476989 3 1 5 
7129 5 0.348068 0.0604535 0.0209803 0 1 -3 
5279 5 0.534526 0.0518883 0.00628498 -1 -3 -1 
5908 6 0.712923 0.0380067 0.0634774 0 3 2 
7181 5 0.810434 0.0251131 0.0523198 -4 3 2 
7739 6 0.829806 0.0851952 0.0382856 -2 3 0 
5482 6 0.00643249 0.0418439 0.0483634 4 2 0 
8009 5 0.364538 0.0960985 0.0309619 2 3 4 
6452 6 0.851638 0.0739064 0.0530608 4 1 2 
5967 5 0.296433 0.131376 0.00332968 3 1 2 
5506 6 0.831894 0.0667487 0.0115368 0 2 6 
7878 5 0.187601 0.148618 0.0372808 0 0 0 
8147 5 0.646057 0.134978 0.0556747 1 6 -5 
6516 6 0.672532 0.140282 0.0129416 -1 -5 2 
7369 5 0.139035 0.15824 0.0574602 1 -1 3 
5588 6 0.506675 0.163678 0.0326242 6 3 3 
8709 6 0.129571 0.182825 0.0213345 -6 -4 -4 
5357 5 0.0880476 0.176953 0.0166981 0 2 0 
6920 6 0.0376989 0.19752 0.0413504 -3 9 -1 
8223 6 0.272711 0.196876 0.0164041 -2 5 -2 
6685 6 0.84901 0.19703 0.0743612 0 4 2 
7782 5 0.0407641 0.205414 0.0346868 1 5 1 
5313 6 0.4021 0.224995 0.0476113 0 2 -1 
5189 6 0.0266057 0.270536 0.0355357 5 -1 1 
5882 5 0.178103 0.281535 0.0302151 4 4 -2 
7237 6 0.411811 0.271838 0.0579303 1 -1 2 
7705 6 0.682448 0.267804 0.0725416 0 -1 2 
5735 6 0.743057 0.309623 0.0183137 -4 3 0 
6573 5 0.980522 0.316158 0.0275632 4 1 5 
5336 6 0.863502 0.334476 0.0458751 3 3 -2 
7641 5 0.563699 0.340998 0.0450531 2 1 3 
6951 6 0.377674 0.335359 0.0289994 2 3 -3 
5994 6 0.589772 0.409293 0.031882 4 -2 -4 
6375 5 0.514646 0.391584 -0.00373287 4 -3 -2 
5788 6 0.655709 0.408065 0.0365854 3 -2 -3 
6059 5 0.0254947 0.424336 0.0370381 0 -1 5 
5823 5 0.458323 0.437092 0.0530941 6 -3 -2 
5839 6 0.919074 0.458525 0.0470545 -2 1 -1 
8248 5 1.00054 0.449693 0.0582043 1 3 1 
8082 6 0.980468 0.474421 0.994309 -1 -3 -1 
8289 6 0.31287 0.479121 0.0370892 -2 -3 -2 
6544 5 0.477805 0.444784 0.0091291 0 1 -1 
8037 6 0.152003 0.503934 0.0220477 -1 -2 6 
6043 6 0.402029 0.482849 0.0147595 0 -1 1 
7550 5 0.446224 0.486231 0.0445227 3 0 4 
8921 6 0.718968 0.506856 0.0698359 -6 -1 -4 
5334 5 0.0100528 0.492929 0.0374298 1 1 0 
6334 5 0.17935 0.524884 0.0563608 4 4 -2 
7066 6 0.506551 0.561638 0.0457921 -3 -3 0 
8934 6 0.962903 0.558101 0.0130388 -1 -1 3 
8808 5 0.926919 0.547758 0.0308629 -6 4 -1 
7189 6 0.597802 0.620802 0.0738507 1 2 4 
6639 6 0.602544 0.609767 0.0198863 -2 -2 3 
7358 6 0.333886 0.63889 0.015516 1 1 -1 
6462 6 0.766265 0.66359 0.0310415 2 -1 3 
7571 5 0.0247381 0.677435 0.0218496 0 -7 1 
5006 5 0.0283056 0.651093 0.0429504 -1 -4 2 
5151 5 0.661025 0.654784 0.0537128 -1 2 -3 
7389 5 0.141339 0.697931 0.0698569 7 2 2 
6946 6 0.308888 0.699874 0.03838 -4 4 2 
8511 6 0.391299 0.704026 0.0197614 1 -4 0 
7958 5 0.493356 0.658862 0.0266864 1 -3 -1 
5989 6 0.799352 0.719914 0.0685905 1 0 4 
7886 5 0.836213 0.69523 0.0335238 2 0 -1 
8773 6 0.911502 0.636359 0.0151353 -1 -3 2 
6911 6 0.0187412 0.776507 0.0628642 -2 -6 1 
6792 5 0.408399 0.831961 0.0481797 -2 -4 -6 
7939 5 0.907673 0.754853 0.0272542 -3 4 3 
8194 6 0.0745242 0.825109 0.0222137 -1 1 4 
6323 5 0.933179 0.82048 0.0554605 -1 -1 -2 
5911 6 0.0838919 0.845436 0.0289801 7 -1 1 
6718 6 0.658905 0.858539 0.0533553 -4 1 -1 
8412 6 0.492191 0.890794 0.0647417 -1 7 0 
7312 5 0.734934 0.91388 0.00612373 -3 1 0 
8772 6 0.593964 0.932099 0.0510907 3 -2 2 
8793 6 0.11138 0.961832 0.038566 -2 -1 3 
8884 6 0.534383 0.989381 0.0290668 -2 0 -1 
8805 5 0.998516 0.0187001 0.021672 -3 5 -4 
6556 5 0.496535 0.056733 0.031868 -1 0 1 
6980 5 0.267072 0.0196546 0.0626887 2 -1 3 
7722 5 0.890027 0.0608284 0.065488 3 2 -2 
6266 6 0.726653 0.0704819 0.0575092 3 -1 1 
5918 5 0.18913 0.102591 0.0615286 -1 1 1 
5832 6 0.214723 0.116568 0.0801833 2 0 3 
8177 6 0.361741 0.107754 0.0481212 4 -2 -3 
6797 5 0.534187 0.123093 0.0536475 1 4 -2 
6746 6 0.618821 0.0947981 0.0422634 -3 7 3 
6261 5 0.77784 0.108266 0.0606458 3 -1 4 
8896 5 0.596693 0.186431 0.0612084 1 2 4 
5164 6 0.623976 0.257701 0.030357 2 2 4 
6061 6 0.823291 0.276276 0.0581378 -1 3 2 
5053 5 0.960655 0.241916 0.0727908 -2 2 0 
6380 6 0.755583 0.28729 0.0539514 -4 2 3 
5344 5 0.889004 0.315381 0.0836569 5 -1 -3 
6641 6 0.811997 0.319169 0.0738352 1 0 6 
8232 6 0.922024 0.348068 0.0782739 -2 2 6 
7405 6 0.200063 0.358397 0.0266756 0 -2 2 
6654 6 0.752825 0.380964 0.0734242 -2 -2 -2 
6308 5 0.0319555 0.406466 0.0131952 1 -2 -4 
8801 5 0.0469817 0.392534 0.0641922 2 -4 -3 
5843 5 0.135641 0.460716 0.0900592 -1 1 4 
6555 6 0.418048 0.475971 0.0427783 -6 -2 -1 
8355 6 0.173141 0.474266 0.0481233 2 3 -2 
8951 6 0.351624 0.433186 0.062792 1 -2 0 
5466 6 0.655651 0.466449 0.0512754 1 -1 3 
6414 5 0.472729 0.521913 0.0954504 -1 4 0 
6402 6 0.524629 0.501999 0.035356 3 -9 1 
8035 6 0.873328 0.503039 0.0476193 -1 -3 2 
8880 5 0.852321 0.51702 0.039167 2 3 -3 
5219 5 0.225149 0.54292 0.0721153 0 2 -1 
8254 6 0.781606 0.535425 0.0322749 3 3 -2 
7152 5 0.467821 0.550108 0.0705581 -2 4 0 
5748 6 0.185361 0.538281 0.0391298 -1 2 1 
8084 5 0.583573 0.55958 0.0657544 1 1 -4 
5172 6 0.710386 0.585637 0.0321189 1 0 4 
8020 5 0.143179 0.603305 0.0459397 -5 -4 -1 
5898 6 0.244338 0.656585 -0.00409052 3 -3 0 
6674 6 0.511189 0.618836 0.0619879 -1 -6 -3 
6992 5 0.990857 0.64313 0.0727537 2 1 1 
7889 6 0.118597 0.642 0.0506844 -2 2 -6 
5741 6 0.996038 0.642053 0.0624456 0 2 -1 
7791 6 0.909601 0.714849 0.0850755 -1 -7 -4 
7938 6 0.153948 0.72165 0.0920081 -1 -1 1 
8076 5 0.66242 0.761113 0.0772705 -1 -3 5 
7917 6 0.804658 0.767586 0.0362867 -3 1 -1 
6950 5 0.919401 0.765023 0.0264973 -3 0 5 
7900 6 0.49016 0.837545 0.0693404 -6 1 0 
6942 5 0.498116 0.829952 0.0483376 -1 -1 -3 
6271 5 0.570939 0.857068 0.0383589 4 4 2 
8527 5 0.310675 0.8903 0.0548468 2 5 2 
8751 6 0.919073 0.934812 0.03468 3 2 2 
8593 6 0.0420638 0.942616 0.0388296 5 6 -2 
5097 6 0.274231 0.968667 0.0496039 -3 -2 5 
8883 5 0.516229 0.92183 0.0242813 4 -2 0 
7773 5 0.878695 0.898233 0.0302343 3 -3 7 
8199 6 0.666762 0.937397 0.0693701 -3 1 0 
7210 5 0.284977 0.032241 0.0649039 1 -1 -3 
5685 6 0.962208 0.047739 0.0848841 -2 0 -1 
8490 5 0.0779694 0.0939393 0.103126 0 -4 0 
5551 5 0.342991 0.0662138 0.0852711 0 -2 4 
6064 6 0.473827 0.092198 0.0834204 7 0 -1 
7902 5 0.627841 0.0754199 0.0704875 2 4 -1 
6839 6 0.3263 0.11861 0.05754 0 -2 -5 
5210 5 0.695093 0.116876 0.0724341 -4 1 1 
8693 6 0.74049 0.140804 0.0729961 4 -1 1 
8468 6 0.295868 0.126998 0.0815389 2 -1 0 
8606 5 0.524247 0.0857254 0.0776198 0 4 2 
5087 5 0.487431 0.150506 0.0501674 -1 0 3 
6705 6 0.643477 0.120634 0.0900846 -1 5 0 
8239 6 0.770956 0.135559 0.129557 3 3 -2 
7954 6 0.796893 0.13777 0.115162 -5 3 -3 
7033 6 0.519905 0.128952 0.0725407 4 0 -1 
5492 6 0.115521 0.156035 0.0991675 1 -1 1 
5705 6 0.641454 0.164724 0.0676609 3 1 -3 
5711 6 0.00493545 0.171578 0.1152 -2 -3 0 
6320 6 0.469971 0.219908 0.0788426 -2 -1 -1 
5801 6 0.91851 0.216527 0.0668657 2 -1 -3 
6763 5 0.116803 0.267921 0.103292 5 5 4 
7721 6 0.198253 0.331148 0.0997304 -4 -4 0 
6200 6 0.281004 0.29545 0.0845023 0 1 -1 
8937 6 0.614835 0.316965 0.0843171 6 -1 -1 
7159 6 0.612785 0.284569 0.0579643 3 3 4 
8725 6 0.778892 0.302802 0.117919 8 -3 -4 
5631 6 0.117901 0.333884 0.0959606 5 -2 -5 
5293 5 0.229466 0.301351 0.0858731 0 0 -7 
5662 6 0.540518 0.303458 0.0728991 1 -3 -1 
6676 6 0.0257663 0.334149 0.0804058 0 0 0 
8469 6 0.366626 0.412516 0.0862257 -1 2 3 
7093 5 0.611374 0.372775 0.044557 -4 1 1 
6554 5 0.885606 0.366367 0.102323 -1 -1 2 
5677 6 0.0123474 0.402407 0.104988 3 -2 0 
5046 5 0.0202808 0.393331 0.0752837 1 -1 2 
7774 5 0.97667 0.416893 0.0633812 -1 0 -1 
8278 5 0.00844284 0.401867 0.0939903 2 0 2 
7661 6 0.634137 0.397016 0.0201692 0 3 -7 
5454 6 0.791061 0.446567 0.0348171 -2 0 -2 
7959 6 0.395961 0.459106 0.0768488 1 0 -2 
8781 6 0.172008 0.443178 0.0772143 1 -1 -4 
5372 6 0.703727 0.475821 0.0241976 3 -2 1 
6087 6 0.850438 0.465079 0.089827 4 -5 0 
8240 6 0.270508 0.499569 0.0582053 0 0 2 
8015 6 0.702289 0.505789 0.0872258 3 1 -3 
8827 6 0.699745 0.520603 0.0622987 3 -3 -3 
4628 1 0.584588 0.534849 0.0844975 0 0 0 
4629 1 0.588244 0.537918 0.089167 0 0 0 
4631 1 0.591398 0.53157 0.090793 0 0 0 
4627 1 0.588027 0.539457 0.0821277 0 0 0 
4626 1 0.583009 0.541696 0.085073 0 0 0 
4630 1 0.585342 0.532959 0.0913283 0 0 0 
4633 1 0.593373 0.537122 0.0955782 0 0 0 
4625 1 0.585317 0.546837 0.0825677 0 0 0 
4623 1 0.589805 0.550994 0.0869362 0 0 0 
4622 1 0.590335 0.547901 0.0922622 0 0 0 
4624 1 0.584165 0.549098 0.088738 0 0 0 
7475 6 0.612372 0.551299 0.0693388 -2 -2 1 
6851 6 0.610126 0.599757 0.0991711 -3 3 3 
6637 5 0.683577 0.554354 0.0988734 1 -2 0 
2142 1 0.645889 0.575588 0.091277 0 0 0 
2141 1 0.645679 0.569456 0.0932344 0 0 0 
8329 6 0.684718 0.569524 0.0937531 -1 2 3 
6299 6 0.74639 0.561577 0.0758159 1 3 3 
2143 1 0.651191 0.573149 0.0944522 0 0 0 
5022 6 0.838968 0.615087 0.085095 1 -1 -3 
5579 5 0.883383 0.590725 0.0637598 -2 -2 0 
5752 6 0.923499 0.553137 0.0645691 -5 -4 3 
8791 5 0.164752 0.595993 0.0807384 6 -1 0 
6199 6 0.356497 0.619058 0.0542288 -1 1 -2 
5969 6 0.805619 0.582872 0.119973 0 3 2 
8984 5 0.398846 0.665531 0.100802 0 2 4 
8757 6 0.562003 0.648683 0.0631422 -4 0 1 
6460 6 0.0456905 0.690755 0.090878 -2 7 -1 
5325 5 0.208801 0.664351 0.0539591 5 -1 -2 
8835 6 0.337414 0.685874 0.0874677 2 0 -1 
7242 5 0.647425 0.69707 0.0413763 -4 -4 2 
8965 6 0.727303 0.68553 0.0613752 2 -3 -2 
6418 6 0.368986 0.710861 0.0964358 -6 -2 1 
6519 6 0.653702 0.674648 0.0911862 -2 -2 3 
5573 6 0.717106 0.729453 0.116051 1 -1 4 
7736 5 0.888958 0.716705 0.119325 -3 -4 2 
5474 5 0.0937079 0.738922 0.0552716 -3 -3 -2 
6829 5 0.725153 0.786118 0.0901121 -4 2 -2 
5345 5 0.830861 0.730488 0.0778356 -4 -1 6 
6809 5 0.919503 0.788336 0.0685057 -4 -4 0 
6605 5 0.567017 0.801974 0.104825 -2 0 -2 
8509 6 0.974344 0.813748 0.0576057 -4 -3 1 
7594 5 0.266378 0.879582 0.0690717 -1 2 0 
7577 6 0.958926 0.837717 0.0717776 4 2 2 
6474 5 0.27631 0.885019 0.0979173 0 -1 0 
7879 5 0.387614 0.866406 0.0559576 4 0 -1 
8175 6 0.183389 0.894761 0.0910264 -1 -1 -2 
8985 6 0.707606 0.865889 0.0944051 4 3 -1 
5321 6 0.344398 0.902608 0.0888805 2 1 0 
7478 5 0.869465 0.966999 0.0928811 3 -3 -6 
6940 5 0.928173 0.906278 0.0656533 -5 3 1 
5586 5 0.76909 0.975397 0.102433 3 -5 1 
8756 6 0.681449 0.990766 0.0874628 -1 1 6 
5907 6 0.769883 1.00034 0.0722367 -5 1 -1 
6358 5 0.112452 0.03904 0.146229 2 4 4 
8334 6 0.222548 0.0405565 0.103612 3 -5 2 
5222 6 0.42402 0.0514331 0.113372 -2 -5 -2 
6663 5 0.150144 0.0499027 0.110153 1 -1 -2 
5774 5 0.237697 0.0785442 0.0978593 2 3 2 
7342 6 0.638185 0.0130745 0.135521 -1 0 -2 
7942 5 0.705902 0.0265229 0.0997728 3 5 2 
5309 6 0.404634 0.0787979 0.101277 0 5 4 
7473 6 0.793051 0.0574698 0.0811172 -1 4 -4 
6522 6 0.188684 0.106204 0.105023 -2 0 5 
6218 6 0.54221 0.0990817 0.1042 0 0 -1 
8409 6 0.852567 0.0919288 0.0901382 -2 4 -6 
8728 6 0.871441 0.122262 0.0973077 0 -6 -1 
7842 5 0.294709 0.1691 0.0779766 1 -1 2 
7427 6 0.620344 0.0929279 0.0949862 0 -6 9 
8819 6 0.843589 0.148432 0.126461 -1 3 0 
7909 6 0.770309 0.206439 0.113801 2 3 3 
7684 6 0.808083 0.183799 0.0919542 -2 3 4 
8396 5 0.91234 0.159616 0.150839 -3 -1 4 
7116 6 0.703772 0.194924 0.101112 -2 0 3 
6024 5 0.934647 0.188291 0.0665923 -1 -3 -2 
6086 5 0.0774158 0.247224 0.147656 -1 1 -1 
5024 5 0.195663 0.233938 0.0827333 1 -2 1 
8107 6 0.660414 0.285682 0.129483 2 3 0 
7384 5 0.867342 0.282025 0.0984276 -1 5 3 
8745 6 0.201557 0.274361 0.0988309 -2 2 5 
8210 6 0.575324 0.343164 0.117802 0 -4 0 
6160 5 0.628612 0.352265 0.11122 0 -3 -2 
6410 6 0.152506 0.370041 0.101147 -1 5 -3 
8915 6 0.440658 0.390004 0.0822194 1 1 0 
8089 5 0.521198 0.417371 0.0718277 -1 2 4 
8124 6 0.595395 0.414657 0.0865775 1 0 0 
7584 5 0.268675 0.441162 0.104705 4 1 -4 
5758 6 0.44449 0.459834 0.093511 -1 2 -4 
7687 5 0.541727 0.439367 0.0858474 -3 0 -3 
7021 5 0.860058 0.451217 0.100385 1 -1 0 
7164 6 0.271743 0.467634 0.126082 0 0 -4 
5201 5 0.339208 0.469193 0.0867477 -4 5 0 
6862 6 0.312028 0.484315 0.135939 3 0 -1 
7593 5 0.540841 0.467531 0.128563 2 0 1 
4806 4 0.589793 0.470204 0.113008 0 0 0 
4807 4 0.591113 0.470135 0.106383 0 0 0 
4808 4 0.59149 0.473618 0.101036 0 0 0 
4809 1 0.591807 0.476411 0.0954999 0 0 0 
4813 1 0.606752 0.477778 0.0937022 0 0 0 
4812 1 0.601383 0.47559 0.0901564 0 0 0 
4814 1 0.605078 0.471229 0.0952629 0 0 0 
4815 1 0.611245 0.472748 0.0955936 0 0 0 
4811 1 0.599029 0.478335 0.0955404 0 0 0 
4810 1 0.594978 0.47978 0.0909021 0 0 0 
4817 1 0.608672 0.469104 0.101376 0 0 0 
4816 1 0.608711 0.475858 0.100883 0 0 0 
4819 1 0.611478 0.466095 0.107047 0 0 0 
4820 1 0.616536 0.467885 0.103383 0 0 0 
4818 1 0.611778 0.472567 0.106263 0 0 0 
4822 1 0.623234 0.467767 0.107118 0 0 0 
4821 1 0.618157 0.463262 0.107901 0 0 0 
4957 1 0.560203 0.501008 0.101012 0 0 0 
4956 1 0.563677 0.501753 0.106062 0 0 0 
4953 1 0.562488 0.490531 0.111807 0 0 0 
4955 1 0.562359 0.495102 0.105541 0 0 0 
4954 1 0.561803 0.49675 0.111539 0 0 0 
4958 1 0.556911 0.499734 0.10671 0 0 0 
4842 1 0.617362 0.499733 0.114874 0 0 0 
4841 1 0.618182 0.503103 0.120725 0 0 0 
4840 1 0.621722 0.498051 0.120129 0 0 0 
4839 1 0.625741 0.502813 0.120195 0 0 0 
4838 1 0.626027 0.500782 0.114367 0 0 0 
4837 1 0.632315 0.500996 0.116895 0 0 0 
4835 1 0.637368 0.495308 0.115851 0 0 0 
4836 1 0.631716 0.496528 0.112425 0 0 0 
4843 1 0.611778 0.500129 0.117822 0 0 0 
4844 1 0.614323 0.494618 0.119263 0 0 0 
4831 1 0.636843 0.481349 0.112856 0 0 0 
4832 1 0.640649 0.485457 0.110195 0 0 0 
4833 1 0.637632 0.488313 0.114926 0 0 0 
4834 1 0.637187 0.492215 0.110245 0 0 0 
4660 1 0.636414 0.501864 0.107514 0 0 0 
4664 1 0.645628 0.492824 0.107208 0 0 0 
4662 1 0.642267 0.497932 0.109662 0 0 0 
4661 1 0.642666 0.503691 0.106579 0 0 0 
7161 5 0.739755 0.492131 0.113834 2 -3 1 
6538 5 0.0266451 0.495837 0.154623 2 3 2 
4970 1 0.55149 0.511589 0.118877 0 0 0 
4969 1 0.549853 0.517352 0.118639 0 0 0 
4961 1 0.545685 0.50007 0.103285 0 0 0 
4972 1 0.558678 0.511522 0.116811 0 0 0 
4971 1 0.556443 0.515506 0.121107 0 0 0 
4968 1 0.544579 0.514238 0.120387 0 0 0 
4967 1 0.546239 0.513137 0.114346 0 0 0 
4973 1 0.561216 0.517116 0.115668 0 0 0 
4974 1 0.560412 0.513756 0.109983 0 0 0 
4976 1 0.566193 0.511614 0.107273 0 0 0 
4977 1 0.571786 0.515616 0.106649 0 0 0 
4975 1 0.565668 0.517042 0.110468 0 0 0 
4979 1 0.578668 0.512631 0.109171 0 0 0 
4978 1 0.572668 0.511458 0.110919 0 0 0 
4980 1 0.578378 0.507374 0.113144 0 0 0 
4651 1 0.626491 0.525765 0.0962881 0 0 0 
4653 1 0.627047 0.519257 0.0933744 0 0 0 
4655 1 0.627306 0.513509 0.0987868 0 0 0 
4654 1 0.631797 0.514878 0.0947375 0 0 0 
4656 1 0.631132 0.508693 0.0981171 0 0 0 
4652 1 0.632051 0.522645 0.0945654 0 0 0 
4657 1 0.633263 0.512663 0.102964 0 0 0 
4659 1 0.636907 0.50594 0.10223 0 0 0 
6385 6 0.605709 0.546794 0.113178 4 -1 -3 
4663 1 0.648064 0.498525 0.107406 0 0 0 
4658 1 0.63208 0.507069 0.105665 0 0 0 
6691 6 0.771956 0.523787 0.102522 1 4 -4 
4632 1 0.589624 0.53173 0.0969722 0 0 0 
4634 1 0.596951 0.531806 0.0961462 0 0 0 
4620 1 0.59373 0.554028 0.0916182 0 0 0 
4637 1 0.600717 0.542708 0.0944738 0 0 0 
4639 1 0.60795 0.543198 0.0973648 0 0 0 
4636 1 0.59957 0.538249 0.0988126 0 0 0 
4635 1 0.600814 0.535743 0.092909 0 0 0 
4638 1 0.602989 0.544849 0.10045 0 0 0 
4640 1 0.60916 0.542195 0.103535 0 0 0 
4641 1 0.614186 0.54023 0.0999287 0 0 0 
4642 1 0.615352 0.539512 0.106409 0 0 0 
4643 1 0.618649 0.534724 0.102481 0 0 0 
4647 1 0.630473 0.532742 0.105387 0 0 0 
4649 1 0.631778 0.52673 0.101155 0 0 0 
4644 1 0.621476 0.540394 0.103217 0 0 0 
4645 1 0.624448 0.536618 0.10689 0 0 0 
4646 1 0.628473 0.537882 0.101962 0 0 0 
4650 1 0.631108 0.529772 0.0960342 0 0 0 
5136 5 0.602004 0.538814 0.105533 -1 0 4 
4648 1 0.6266 0.530236 0.101177 0 0 0 
7885 5 0.0407907 0.534911 0.113149 -3 -3 -4 
8123 5 0.116532 0.580066 0.0959441 -2 6 2 
8964 6 0.287556 0.576487 0.11483 1 1 0 
8730 6 0.381122 0.587709 0.0696257 0 4 -1 
4621 1 0.596206 0.547993 0.0901273 0 0 0 
4618 1 0.590805 0.554469 0.098627 0 0 0 
4617 1 0.594053 0.552758 0.103833 0 0 0 
4615 1 0.591867 0.559334 0.105937 0 0 0 
4614 1 0.58602 0.561701 0.107885 0 0 0 
4619 1 0.595102 0.550185 0.0968015 0 0 0 
4616 1 0.58818 0.554586 0.105605 0 0 0 
4613 1 0.590827 0.565054 0.110886 0 0 0 
2136 1 0.636319 0.563621 0.100899 0 0 0 
2138 1 0.635176 0.568313 0.0952145 0 0 0 
2140 1 0.640254 0.570894 0.0894513 0 0 0 
2139 1 0.639595 0.573082 0.0951442 0 0 0 
2135 1 0.640928 0.564607 0.104844 0 0 0 
2137 1 0.640931 0.566209 0.0974644 0 0 0 
2134 1 0.635569 0.56553 0.10838 0 0 0 
6706 6 0.923108 0.575818 0.145599 -2 2 -5 
6743 5 0.288575 0.578339 0.0919323 3 -3 0 
2147 1 0.656315 0.580562 0.10497 0 0 0 
2148 1 0.652229 0.58447 0.108451 0 0 0 
2145 1 0.653282 0.578503 0.098533 0 0 0 
2146 1 0.650488 0.577961 0.104576 0 0 0 
2149 1 0.655866 0.581037 0.111827 0 0 0 
2144 1 0.64739 0.5759 0.0983358 0 0 0 
2150 1 0.651673 0.583785 0.115766 0 0 0 
2151 1 0.648748 0.57938 0.112549 0 0 0 
6071 6 0.998847 0.581706 0.111956 -1 2 0 
6558 5 0.202698 0.620204 0.098772 -2 -6 0 
6998 6 0.950187 0.634868 0.14302 -2 1 0 
6490 6 0.0412899 0.661216 0.0890762 2 5 2 
6935 6 0.688689 0.681163 0.0942395 4 2 3 
7491 5 0.921785 0.638035 0.105806 2 3 -1 
5163 6 -0.00294165 0.627204 0.0836621 -2 4 1 
7239 6 0.105697 0.738603 0.128525 2 1 4 
6850 6 0.436377 0.714758 0.124574 -5 3 -1 
7340 5 0.629063 0.665298 0.0941778 0 0 1 
5420 5 0.418224 0.806272 0.0972028 5 2 0 
8280 6 0.5568 0.743828 0.0865618 -1 5 4 
5246 6 0.854263 0.798501 0.121395 -2 0 8 
6124 6 0.890289 0.821827 0.113647 6 2 1 
5629 5 0.395455 0.872095 0.110725 4 1 0 
5597 5 0.790329 0.841768 0.0796371 -5 -4 0 
6526 6 0.535359 0.819989 0.0916392 -2 1 0 
6991 5 0.574768 0.8642 0.0854307 0 -5 -1 
5460 6 0.687673 0.840794 0.067379 -2 0 1 
8507 6 0.804089 0.853665 0.108134 -2 -4 5 
5919 5 0.110575 0.909111 0.0887332 2 -2 -1 
7484 6 0.678436 0.861939 0.111486 2 -1 -2 
7493 6 0.589347 0.910144 0.0786809 -2 3 5 
7429 6 0.798732 0.909623 0.0786403 -3 1 0 
6987 5 0.0124506 0.913272 0.0743995 2 0 6 
6952 6 0.651567 0.927745 0.119047 -3 5 4 
6690 5 0.189083 0.941626 0.080695 2 3 3 
8608 6 0.224808 0.904911 0.09154 -1 0 -3 
5650 5 0.522719 0.987083 0.0835627 -3 -1 1 
6115 5 0.532131 0.981458 0.146233 -1 4 -1 
6938 6 0.132832 0.00380377 0.154187 3 6 1 
7981 5 0.503007 0.991618 0.132564 -2 1 2 
6985 5 0.55764 0.0547611 0.129903 3 0 -2 
8936 6 0.901445 0.0161371 0.0998014 1 -1 1 
7029 6 0.311604 0.0522645 0.132459 2 5 4 
8575 5 0.80827 0.0628659 0.133953 -3 -1 -1 
7976 5 0.834644 0.0877875 0.124445 -3 -1 3 
8422 5 0.521908 0.0937542 0.141853 -2 1 4 
8665 5 0.926314 0.0898268 0.153572 -3 0 0 
5427 6 0.196625 0.122571 0.13861 -2 -7 0 
8130 5 0.128891 0.152195 0.133659 -1 -1 0 
7488 5 0.997119 0.109058 0.089486 -4 5 5 
8443 6 0.497457 0.0915647 0.0931757 1 5 2 
7874 6 0.95429 0.135237 0.114735 -5 -1 0 
5245 6 0.0947826 0.206511 0.107873 -2 2 -3 
6073 6 0.247462 0.194708 0.150623 -3 -1 4 
5594 5 0.0133132 0.157592 0.120041 5 -2 -1 
6318 6 0.0756144 0.229264 0.144057 3 1 -7 
6921 6 0.492993 0.210645 0.144552 -1 6 2 
6498 5 0.838768 0.171696 0.129272 -4 0 -1 
6166 5 0.0083187 0.211012 0.13487 2 3 0 
8336 5 0.161499 0.216866 0.107821 -5 -1 -3 
5928 5 0.320112 0.227125 0.0630401 0 0 4 
8850 5 0.748341 0.242869 0.134094 2 2 -7 
5876 6 0.794816 0.337118 0.134548 -3 -2 4 
7278 5 0.844086 0.308491 0.107866 2 -3 -2 
5709 6 0.417899 0.314367 0.104098 2 -4 3 
5338 6 0.209782 0.367772 0.143047 0 -3 1 
6370 6 0.500575 0.327898 0.118839 3 3 0 
7557 6 0.597879 0.377446 0.0968458 2 1 1 
8340 6 0.579276 0.391694 0.15715 0 -1 1 
8740 5 0.871423 0.413968 0.168018 -1 3 -4 
8640 6 0.12825 0.426473 0.138567 0 2 2 
4767 1 0.613599 0.440253 0.137515 0 0 0 
4768 1 0.60835 0.436488 0.137449 0 0 0 
8287 5 0.0699957 0.434872 0.121691 0 4 1 
4931 1 0.5622 0.450666 0.141734 0 0 0 
4927 1 0.556296 0.452742 0.134892 0 0 0 
4929 1 0.555144 0.4509 0.14179 0 0 0 
4930 1 0.558614 0.446199 0.13948 0 0 0 
8834 6 0.569716 0.432714 0.133879 -3 -2 0 
4776 1 0.58999 0.44014 0.133019 0 0 0 
4778 1 0.583761 0.443744 0.133364 0 0 0 
4771 1 0.604505 0.439409 0.1275 0 0 0 
4773 1 0.599908 0.445156 0.127106 0 0 0 
4775 1 0.595655 0.443199 0.133181 0 0 0 
4774 1 0.593922 0.443505 0.12702 0 0 0 
4770 1 0.604798 0.434548 0.13122 0 0 0 
4769 1 0.610627 0.437983 0.131053 0 0 0 
4772 1 0.598788 0.438184 0.126889 0 0 0 
5643 5 0.115546 0.493398 0.14505 6 -2 3 
7699 5 0.266469 0.464203 0.0832724 -2 4 2 
7092 5 0.297899 0.435177 0.111658 0 6 3 
4920 1 0.548332 0.465098 0.120061 0 0 0 
4922 1 0.543216 0.460825 0.124508 0 0 0 
4921 1 0.548641 0.464188 0.126451 0 0 0 
4923 1 0.544305 0.459536 0.130824 0 0 0 
4925 1 0.549611 0.454484 0.133193 0 0 0 
4919 1 0.544233 0.469026 0.122615 0 0 0 
4918 1 0.541251 0.46528 0.11836 0 0 0 
4917 1 0.537314 0.469008 0.121647 0 0 0 
4912 1 0.544149 0.475383 0.128245 0 0 0 
4924 1 0.548825 0.45627 0.127155 0 0 0 
4926 1 0.553379 0.450868 0.129659 0 0 0 
4916 1 0.539353 0.472643 0.117011 0 0 0 
4910 1 0.547842 0.478819 0.133272 0 0 0 
4909 1 0.54149 0.478452 0.135634 0 0 0 
4914 1 0.541059 0.477774 0.122058 0 0 0 
5927 5 0.557731 0.458068 0.140593 -5 3 1 
4943 1 0.562785 0.472817 0.133446 0 0 0 
4805 1 0.58632 0.471237 0.118318 0 0 0 
4804 1 0.580139 0.471613 0.119211 0 0 0 
4803 1 0.581607 0.476812 0.116088 0 0 0 
4802 1 0.577017 0.478561 0.119747 0 0 0 
4823 1 0.625297 0.462713 0.111367 0 0 0 
4824 1 0.629638 0.466412 0.108734 0 0 0 
4825 1 0.631096 0.464944 0.114843 0 0 0 
4826 1 0.635891 0.467447 0.111636 0 0 0 
4829 1 0.635284 0.474897 0.109643 0 0 0 
4828 1 0.6404 0.472805 0.113629 0 0 0 
4827 1 0.634805 0.471448 0.116285 0 0 0 
6468 6 0.85985 0.47834 0.109737 0 2 -1 
4911 1 0.543614 0.481743 0.129431 0 0 0 
4959 1 0.553138 0.499219 0.101509 0 0 0 
5610 5 0.569328 0.492038 0.131589 4 0 0 
4915 1 0.535101 0.476199 0.120442 0 0 0 
4913 1 0.537972 0.4769 0.127378 0 0 0 
4992 1 0.561616 0.499247 0.13109 0 0 0 
4945 1 0.564705 0.479402 0.130926 0 0 0 
4946 1 0.561024 0.482974 0.135224 0 0 0 
4951 1 0.560315 0.49059 0.119056 0 0 0 
4944 1 0.566943 0.477228 0.136329 0 0 0 
4947 1 0.559954 0.484368 0.129364 0 0 0 
4949 1 0.558066 0.490359 0.126021 0 0 0 
4800 1 0.576031 0.485581 0.120781 0 0 0 
4801 1 0.58191 0.482778 0.120909 0 0 0 
4952 1 0.565737 0.493267 0.116801 0 0 0 
4950 1 0.563553 0.493239 0.124075 0 0 0 
4948 1 0.562452 0.489945 0.131133 0 0 0 
7728 5 0.566181 0.472327 0.107962 -2 -4 0 
4798 1 0.576755 0.488723 0.127839 0 0 0 
4797 1 0.582048 0.491214 0.130478 0 0 0 
4799 1 0.580614 0.489824 0.122962 0 0 0 
4989 1 0.567317 0.509362 0.131851 0 0 0 
7392 5 0.567898 0.48542 0.126922 -3 2 5 
4852 1 0.60974 0.474268 0.127597 0 0 0 
4853 1 0.603749 0.471489 0.129291 0 0 0 
4849 1 0.605698 0.484214 0.122129 0 0 0 
4850 1 0.610122 0.48132 0.12555 0 0 0 
4851 1 0.604719 0.477846 0.125923 0 0 0 
4848 1 0.611186 0.483171 0.118475 0 0 0 
4847 1 0.610102 0.489212 0.120384 0 0 0 
4846 1 0.614244 0.488833 0.115018 0 0 0 
4845 1 0.609882 0.493638 0.114751 0 0 0 
4686 1 0.640957 0.491776 0.140341 0 0 0 
4666 1 0.651397 0.489097 0.106538 0 0 0 
4830 1 0.640506 0.478405 0.108372 0 0 0 
4665 1 0.649393 0.493651 0.10199 0 0 0 
7300 5 0.67606 0.485221 0.154998 1 -1 -3 
4668 1 0.659168 0.488862 0.107972 0 0 0 
4674 1 0.647897 0.497505 0.12397 0 0 0 
4667 1 0.655663 0.494058 0.106084 0 0 0 
4670 1 0.658099 0.491087 0.115444 0 0 0 
4672 1 0.654229 0.495363 0.120615 0 0 0 
4673 1 0.650236 0.499417 0.118391 0 0 0 
4671 1 0.656058 0.4969 0.114583 0 0 0 
4669 1 0.661389 0.494178 0.110399 0 0 0 
8621 5 0.170145 0.514993 0.15997 -1 6 3 
5781 6 0.391183 0.55935 0.121552 0 -1 3 
4965 1 0.542382 0.509656 0.109474 0 0 0 
5000 4 0.534364 0.526903 0.14338 0 0 0 
4963 1 0.546839 0.503843 0.109685 0 0 0 
4964 1 0.540416 0.504531 0.112497 0 0 0 
4962 1 0.543925 0.498001 0.10924 0 0 0 
4960 1 0.55023 0.496868 0.106459 0 0 0 
4966 1 0.540206 0.511336 0.11528 0 0 0 
4994 1 0.55455 0.498526 0.13286 0 0 0 
4993 1 0.558839 0.500018 0.136837 0 0 0 
4990 1 0.562406 0.506354 0.129415 0 0 0 
4983 1 0.580692 0.512868 0.121828 0 0 0 
4981 1 0.583248 0.510927 0.115017 0 0 0 
4982 1 0.581741 0.506966 0.119767 0 0 0 
4987 1 0.566927 0.5139 0.126327 0 0 0 
4988 1 0.567821 0.507675 0.125534 0 0 0 
4991 1 0.56532 0.503046 0.134484 0 0 0 
4986 1 0.568793 0.512603 0.119964 0 0 0 
4985 1 0.573698 0.512866 0.123982 0 0 0 
4984 1 0.575865 0.511473 0.118025 0 0 0 
4676 1 0.64289 0.501242 0.126764 0 0 0 
4678 1 0.64154 0.504802 0.132723 0 0 0 
4675 1 0.64805 0.503702 0.123849 0 0 0 
4677 1 0.642336 0.507548 0.126795 0 0 0 
4684 1 0.639828 0.498281 0.142284 0 0 0 
4682 1 0.640224 0.505577 0.142799 0 0 0 
4428 1 0.678607 0.512449 0.14042 0 0 0 
5663 6 0.222493 0.502711 0.109178 2 0 -5 
4586 1 0.557202 0.53433 0.126382 0 0 0 
4585 1 0.550688 0.535101 0.125966 0 0 0 
4584 1 0.55245 0.532755 0.131863 0 0 0 
4583 1 0.547393 0.529664 0.129738 0 0 0 
4416 1 0.652682 0.533861 0.136608 0 0 0 
4420 1 0.665231 0.531274 0.131496 0 0 0 
4418 1 0.658956 0.529352 0.135451 0 0 0 
4414 1 0.646433 0.53369 0.142007 0 0 0 
4413 1 0.646082 0.52803 0.144198 0 0 0 
4412 1 0.642901 0.531423 0.148636 0 0 0 
4341 1 0.64394 0.553132 0.143151 0 0 0 
4424 1 0.678484 0.527278 0.133794 0 0 0 
4426 1 0.67838 0.520126 0.137904 0 0 0 
7697 6 0.685213 0.553032 0.138453 3 -2 -1 
4423 1 0.67295 0.525988 0.136381 0 0 0 
4593 1 0.554277 0.55145 0.126457 0 0 0 
4595 1 0.55187 0.556233 0.130939 0 0 0 
4597 1 0.557505 0.55991 0.133255 0 0 0 
4596 1 0.555469 0.554291 0.136111 0 0 0 
4603 1 0.576031 0.564812 0.130536 0 0 0 
4606 1 0.580803 0.574376 0.126189 0 0 0 
4598 1 0.562427 0.557327 0.136253 0 0 0 
4599 1 0.564482 0.562804 0.133415 0 0 0 
4600 1 0.569722 0.560055 0.135886 0 0 0 
4604 1 0.574539 0.571114 0.128817 0 0 0 
4602 1 0.569652 0.566338 0.13097 0 0 0 
4601 1 0.569835 0.559961 0.129524 0 0 0 
4611 1 0.591996 0.563723 0.117966 0 0 0 
4605 1 0.578882 0.568455 0.124535 0 0 0 
4609 1 0.586397 0.567075 0.120695 0 0 0 
4608 1 0.586199 0.57331 0.121254 0 0 0 
4607 1 0.585898 0.570103 0.126732 0 0 0 
4612 1 0.586324 0.563248 0.115185 0 0 0 
4610 1 0.590344 0.569691 0.116776 0 0 0 
4344 1 0.636528 0.559477 0.135952 0 0 0 
2132 1 0.636904 0.565918 0.115285 0 0 0 
4342 1 0.641794 0.5535 0.137309 0 0 0 
4343 1 0.64191 0.559604 0.138466 0 0 0 
7268 6 0.40069 0.598293 0.13184 3 4 0 
7055 5 0.636003 0.580433 0.1278 1 -4 1 
2157 1 0.640691 0.586764 0.130173 0 0 0 
2158 1 0.641494 0.59272 0.127727 0 0 0 
2159 1 0.642647 0.592762 0.134128 0 0 0 
2156 1 0.63771 0.586651 0.124562 0 0 0 
2160 1 0.637126 0.595702 0.132848 0 0 0 
2161 1 0.638176 0.596064 0.139281 0 0 0 
2133 1 0.640619 0.568312 0.111071 0 0 0 
2131 1 0.637269 0.572382 0.11679 0 0 0 
2130 1 0.63363 0.568971 0.121047 0 0 0 
2128 1 0.636571 0.569942 0.127792 0 0 0 