ITEM: TIMESTEP
20000000
ITEM: NUMBER OF ATOMS
9000
ITEM: BOX BOUNDS pp pp pp
-75 75
-75 75
-75 75
ITEM: ATOMS id type xs ys zs ix iy iz 
6989 6 0.122173 0.00861873 0.0559171 0 7 1 
7223 5 0.210288 0.0376392 0.0304833 1 1 -5 
6612 5 0.366538 0.060025 0.0237089 -4 1 1 
6501 6 0.923636 0.0438734 0.0354238 -2 2 0 
6822 6 0.0844272 0.0944591 0.00822341 -1 -2 4 
6874 6 0.70207 0.0938331 0.0139825 4 -3 0 
5796 6 0.77667 0.0903357 0.998398 1 -1 0 
6548 6 0.0531703 0.0848522 0.00817638 -5 0 3 
5999 5 0.808875 0.105013 0.0277983 -1 -1 0 
7842 6 0.0736901 0.157129 0.0133735 -1 -2 2 
8867 6 0.679406 0.164446 0.0571053 -5 0 -3 
7609 6 0.033595 0.179953 0.0132066 1 -6 1 
7239 6 0.394939 0.188425 0.0253516 3 -3 -1 
5828 6 0.86226 0.239675 0.00749948 -5 2 -2 
8323 5 0.411052 0.23124 0.0448183 1 2 0 
8835 6 0.388796 0.222226 0.00835245 -4 5 0 
6656 5 0.576274 0.179106 0.0286365 0 -1 -6 
7182 6 0.622445 0.264969 0.0256749 0 -2 -2 
5931 6 0.669099 0.229849 0.971212 1 1 1 
8055 6 0.827818 0.219727 0.961766 3 3 -3 
5664 6 0.878296 0.270749 0.0198384 1 -1 2 
6148 5 0.377323 0.290352 0.0168823 1 -3 0 
5630 6 0.500696 0.271782 0.0233329 0 2 0 
6714 5 0.155796 0.351247 0.0097805 1 4 -1 
8731 5 0.23589 0.29339 0.0173136 -8 -3 -3 
7497 6 0.263465 0.313208 0.977637 0 1 -2 
7965 6 0.597875 0.299815 0.0109614 0 3 6 
5687 6 0.432073 0.321126 0.988251 -3 -2 -1 
5893 6 0.609164 0.295877 0.00379579 2 3 -1 
7784 6 0.992419 0.376966 0.983365 0 -3 -2 
5780 6 0.348292 0.382429 0.0478448 -1 -3 1 
8833 5 0.510759 0.381927 0.0415037 0 1 5 
7028 6 0.545005 0.407216 0.994685 1 1 2 
6230 6 0.276566 0.442453 0.0125048 -1 -2 3 
6130 6 0.572084 0.382871 0.976103 -5 -5 -1 
6674 6 0.736355 0.422841 0.033224 -1 -3 1 
5595 5 0.537136 0.417452 0.017831 -3 2 6 
5375 6 0.970441 0.427913 0.0572993 -3 1 2 
7079 6 0.141327 0.421995 1.0008 -2 -3 0 
7351 6 0.425843 0.469965 0.98841 0 0 0 
8450 6 0.83647 0.485679 0.0639251 0 1 -4 
8673 6 0.498978 0.522814 0.0286103 2 -3 1 
8610 6 0.767283 0.517761 0.98159 0 6 -3 
6688 6 0.317174 0.531657 0.0560732 3 -2 -1 
8135 6 0.497072 0.511515 0.995271 0 3 2 
8375 6 0.656363 0.5781 0.0234982 0 6 -2 
8507 5 0.173643 0.618511 0.0107649 1 1 5 
7298 5 0.612701 0.623007 0.0284186 -4 -3 5 
5373 5 0.0431688 0.666654 0.0317473 -1 2 -1 
8328 6 0.419083 0.664355 0.984907 2 -5 0 
7835 6 0.31029 0.73372 0.0143577 -2 1 6 
6255 6 0.351616 0.705333 0.0109031 -3 0 0 
7210 5 0.531894 0.755282 -0.00415954 3 -1 4 
8162 6 0.341641 0.696349 0.0123371 -4 -3 -1 
7757 6 0.297596 0.746443 0.0179441 -1 -1 -3 
5967 6 0.335956 0.791859 0.037442 0 3 1 
7468 5 0.977907 0.753797 0.986277 -2 2 0 
7191 6 0.127064 0.735783 0.0351768 4 -1 0 
5729 5 0.188772 0.78509 0.0467498 1 1 0 
5929 6 0.398247 0.753613 0.013872 0 -2 2 
6413 5 0.59064 0.731995 0.0441702 -2 2 -2 
6459 5 0.889246 0.74675 0.0335874 0 -2 -2 
7912 6 0.271258 0.810677 0.0333447 3 -3 1 
6358 6 0.287788 0.758656 0.996478 -2 1 0 
7290 5 0.528213 0.828797 0.00506573 1 -2 2 
6122 6 0.00779495 0.826656 0.967345 -2 -2 1 
7663 6 0.282631 0.801534 0.980938 3 -6 -3 
7008 6 0.789482 0.832438 0.0363737 -2 0 3 
7864 5 0.94583 0.85373 0.973071 1 2 -5 
8945 6 0.870568 0.8549 1.00118 2 -3 -2 
7228 6 0.752261 0.906791 0.0229086 -2 -2 -3 
5042 5 0.672691 0.895575 0.0477908 -1 1 -5 
5340 5 0.704594 0.884881 0.994781 -4 -4 3 
5662 5 0.0973794 0.913511 0.000932772 0 0 4 
5430 6 0.605041 0.943894 -0.00626771 1 -5 0 
7507 5 0.812483 0.954408 0.0215862 1 0 2 
7684 5 0.255317 0.991916 0.0356044 3 -1 1 
6066 6 0.258304 0.962151 0.00765349 -1 -4 -2 
5228 6 0.306992 0.974465 0.0467059 -2 1 1 
6868 5 0.727357 0.98262 0.00776249 0 3 0 
7825 5 0.826033 -0.00369264 0.00730821 2 3 1 
5997 5 0.780699 0.0118253 0.0381919 -2 0 6 
8019 6 0.915847 0.0471369 0.0549983 -2 2 -1 
5159 5 0.385943 0.0732731 0.0457958 1 -5 -2 
8038 6 0.787855 0.055218 0.0817893 -7 2 2 
6472 6 0.245017 0.0834459 0.00934078 -3 1 2 
6879 6 0.204403 0.0774949 0.0328995 0 -1 -2 
5447 5 0.33458 0.0790113 0.0168062 -5 0 0 
5806 6 0.122902 0.151974 0.968713 -2 1 1 
5514 6 0.828879 0.152498 0.0437526 -5 1 -1 
6826 5 0.992306 0.142371 0.015322 1 -3 0 
7049 5 0.545204 0.19872 0.0548904 -5 1 0 
8547 6 0.0381122 0.233457 0.0336388 -1 -2 3 
7783 6 0.106614 0.1913 0.0771412 2 2 2 
7914 5 0.210854 0.230481 0.0849689 -1 -3 1 
5409 6 0.719032 0.123035 0.0390931 -7 3 1 
5093 6 0.932964 0.208481 0.0382666 3 -2 -1 
6433 6 0.230797 0.199454 0.0464593 1 4 2 
7197 6 0.347799 0.195203 0.0236285 1 2 -3 
7944 5 0.584306 0.2359 0.0448429 0 7 1 
5794 5 0.183697 0.264037 0.0625002 2 1 -3 
7703 5 0.21365 0.277632 0.0451709 -2 2 3 
7117 6 0.397711 0.285977 0.0408064 7 2 -1 
5935 6 0.813896 0.238315 0.0443573 4 1 -10 
7989 5 0.237279 0.258507 0.0216239 -1 0 3 
6974 6 0.529251 0.247091 0.0469088 -6 1 -3 
6677 5 0.803089 0.315744 0.0476347 -2 2 2 
8978 6 0.844064 0.326363 0.0454447 -4 6 4 
7444 5 0.422602 0.323074 0.0382642 1 -1 -1 
6609 5 0.0990703 0.399245 0.0627901 1 7 -2 
8034 5 0.28493 0.407819 0.0331869 -3 1 0 
6967 5 0.0183835 0.37812 0.018803 -1 -3 -2 
5453 5 0.54527 0.407192 0.0268479 -2 0 0 
6440 5 0.732512 0.401307 0.0352204 -5 -1 -4 
7593 5 0.907541 0.386426 0.0708308 1 -2 0 
8164 6 0.0533071 0.42782 0.0456722 1 -2 0 
7580 6 0.662267 0.381365 0.0393182 -1 0 -1 
5269 5 0.844107 0.42421 -0.00570033 0 -2 -1 
8116 6 0.988111 0.446366 0.0347409 1 3 0 
7344 5 0.189068 0.467517 0.0160588 3 -1 -4 
7821 6 0.779281 0.462781 0.0275966 0 0 2 
7467 5 0.956295 0.449879 0.0204602 1 0 3 
7002 5 0.600414 0.507225 0.0331291 -3 -1 4 
8426 6 0.872973 0.467591 0.0612819 -2 -3 3 
5503 6 0.582616 0.506114 0.0160833 1 -1 -2 
8270 5 0.800568 0.576388 0.0029391 -2 -2 -2 
6994 5 0.102668 0.542109 0.0536405 5 1 3 
7077 6 0.948762 0.543742 0.0191558 -1 1 0 
5116 6 0.584517 0.604734 0.0620747 -7 -2 0 
7967 5 0.863528 0.613884 0.0547218 2 7 5 
6824 6 0.566455 0.62129 0.0657667 -1 2 2 
7388 5 0.950067 0.624366 0.0297121 -2 -4 -6 
8577 6 0.960354 0.613077 0.0719697 2 2 4 
7627 6 0.0500604 0.710061 0.0513061 2 -4 10 
5135 6 0.539404 0.69764 0.0287422 -1 1 2 
8573 5 0.661796 0.718605 0.0299045 -2 3 -3 
8584 5 0.701954 0.757265 0.0495787 1 1 2 
7387 6 0.763843 0.765491 0.0195315 -5 -1 1 
6385 6 0.428464 0.794682 0.0374227 -2 1 -3 
5032 5 0.878708 0.838146 0.00723658 -3 -1 -4 
7735 6 0.26686 0.832595 0.0202773 -1 -6 -3 
8982 6 0.0335593 0.866358 0.0394073 4 -3 -2 
8559 5 0.330498 0.874586 0.0350091 1 -2 -5 
8167 5 0.470664 0.884833 0.00281443 0 1 0 
6878 6 0.541155 0.866537 0.0389809 3 6 5 
6309 6 0.0329716 0.886434 0.0451856 -1 -2 3 
8818 6 0.359744 0.898789 0.030001 0 -3 7 
7243 6 0.267155 0.933387 0.0134942 0 4 2 
6737 6 0.471563 0.911603 0.0573303 0 0 -5 
7088 6 0.641048 0.935956 0.0277688 -1 0 -1 
5636 6 0.223762 0.982202 0.0793536 0 1 1 
6691 5 0.312782 0.0508985 0.0558128 3 2 2 
5346 6 0.507032 0.0450892 0.0524645 0 0 -1 
6705 6 0.123056 0.0528007 0.0716425 -2 0 2 
8377 5 0.588896 0.0691306 0.0577176 2 -1 0 
7293 5 0.235406 0.104171 0.0678728 1 -1 2 
7123 5 0.758218 0.141593 0.102 -3 -1 4 
5214 5 0.881937 0.0766289 0.0619819 -3 3 -1 
8970 5 0.583779 0.14215 0.0498425 0 2 -2 
7648 5 0.270723 0.180915 0.0424954 -1 -4 1 
7686 6 0.30839 0.161522 0.0666927 0 -2 4 
5310 5 0.852714 0.128428 0.0352606 -1 -2 3 
8902 6 0.201875 0.197178 0.0373949 -1 3 -4 
6426 5 0.310527 0.170836 0.0363954 1 2 3 
6799 5 0.00144078 0.240239 0.0323406 1 -1 0 
7250 5 0.0180275 0.252596 0.0470328 3 3 0 
7885 6 0.0542949 0.198451 0.0489158 1 1 0 
7019 6 0.370827 0.209387 0.0202191 0 1 4 
5779 5 0.535788 0.225415 0.0169644 2 0 -2 
6945 6 0.0257196 0.210658 0.0152066 5 2 -1 
6836 5 0.0808196 0.262508 0.0685584 2 2 1 
5075 6 0.259624 0.26434 0.0364006 -2 3 4 
6220 6 0.284017 0.247486 0.0608165 1 1 4 
5520 5 0.30842 0.307598 0.0879207 2 2 -6 
6718 6 0.395076 0.248375 0.0101311 1 -1 0 
7977 6 0.0186922 0.304949 0.0313746 -3 -2 -1 
8456 5 0.0766036 0.297675 0.0641186 2 1 4 
6537 6 0.443775 0.301675 0.0589542 -1 4 2 
8939 6 0.301347 0.33112 0.0580371 0 -2 0 
6406 5 0.691643 0.316404 0.0637572 -6 3 0 
7683 6 0.958293 0.288863 0.0446306 1 -1 4 
6598 6 0.757814 0.356827 0.078592 0 -1 2 
6086 6 0.77049 0.357127 0.0649252 1 2 4 
5190 5 0.852176 0.392341 0.0433855 0 1 -1 
7925 6 0.981877 0.363928 0.0430993 1 -2 -3 
7897 6 0.62191 0.39704 0.0501055 -6 0 -1 
8531 6 0.583614 0.407095 0.0562634 2 0 -1 
5612 6 0.973398 0.390689 0.0890676 -1 4 2 
6152 5 0.0344972 0.419489 0.0524424 -1 -4 -2 
6498 5 0.056944 0.420832 0.0460583 3 5 7 
7583 6 0.109615 0.383029 0.0368599 -3 3 2 
5037 6 0.211047 0.473346 0.0696787 1 0 -1 
6326 5 0.284371 0.413111 0.077477 0 3 1 
6492 5 0.420847 0.421075 0.0610333 -5 0 0 
8303 5 0.696178 0.404263 0.0575206 0 -4 -5 
8362 6 0.369624 0.43891 0.047837 -1 -3 -4 
6642 5 0.47922 0.461471 0.05822 2 3 -3 
8090 6 0.459976 0.432491 0.077821 2 0 2 
6999 5 0.563646 0.441295 0.0524165 -3 1 4 
5751 5 0.286815 0.469845 0.0363737 -2 -3 0 
8553 6 0.207461 0.527547 0.061716 -1 1 2 
6583 6 0.334305 0.572198 0.0592881 -3 5 1 
7159 5 0.522931 0.557107 0.0693004 -4 -3 1 
5110 6 0.504395 0.554359 0.119945 0 -2 3 
7737 5 0.72381 0.609865 0.0167941 3 -1 5 
8085 6 0.985378 0.544965 0.0146059 2 -2 3 
8321 5 0.0101181 0.55464 0.0464381 -1 -3 2 
6346 6 0.845835 0.574285 0.0782718 0 -3 3 
6044 6 0.114116 0.682868 0.0550444 0 -3 5 
6624 5 0.0961682 0.659944 0.0577469 5 -2 3 
6986 6 0.29969 0.644022 0.0783846 4 1 0 
6054 5 0.741227 0.633349 0.0238156 4 0 2 
5262 5 0.182631 0.656919 0.0482651 2 3 0 
7456 5 0.048899 0.744546 0.0286123 -4 2 3 
5230 6 0.0982463 0.71218 0.058396 5 -2 -3 
8758 6 0.785603 0.67112 0.0398058 3 -2 2 
8735 5 0.291465 0.752856 0.0189783 4 4 1 
6284 5 0.990802 0.758509 0.00947012 -3 3 -6 
7810 5 0.166581 0.818308 0.0901582 1 1 -2 
6040 6 0.623899 0.772051 0.0637232 2 0 -1 
6619 5 0.727482 0.808844 0.061627 6 1 -4 
8431 6 0.544643 0.834312 0.0866214 -3 -4 3 
7781 6 0.443475 0.884305 0.0345216 0 -2 1 
5938 6 0.459226 0.808329 0.0626549 1 -5 2 
8013 6 0.588908 0.851849 0.0812327 -3 -2 -3 
5046 5 0.663922 0.850188 0.0499388 4 -1 3 
8628 5 0.0747269 0.9142 0.0462929 -3 -4 -7 
7431 6 0.309503 0.900957 0.0605948 -1 -1 -1 
6682 6 0.911815 0.932522 0.0543188 2 -1 0 
7778 5 0.319519 0.0394026 0.0724492 -1 5 4 
5932 6 0.495906 0.974403 0.053417 3 -2 3 
7746 5 0.0280499 0.0331835 0.0747215 5 -1 4 
7642 5 0.249318 0.0413809 0.0866182 -1 1 2 
6948 5 0.441172 0.0403302 0.0327118 -2 -1 2 
7278 5 0.316137 0.0385292 0.133722 -1 -1 0 
5987 6 0.62471 0.0294558 0.0833953 0 3 0 
6293 6 0.66818 0.00902006 0.0793673 4 0 2 
8961 5 0.00309771 0.0842984 0.0921206 -5 2 4 
7167 6 0.47766 0.0700462 0.0808485 2 -1 0 
5798 6 0.39852 0.0881155 0.102114 0 3 4 
8805 5 0.20539 0.128599 0.0994474 0 -1 2 
6639 5 0.59178 0.149371 0.0620688 1 3 3 
7439 6 0.0240272 0.13072 0.108804 -1 -1 0 
6132 5 0.160721 0.13585 0.0968647 -2 1 -4 
7415 6 0.811963 0.194888 0.0960682 2 3 0 
8067 6 0.234733 0.170369 0.0699207 2 2 2 
8790 6 0.130491 0.185169 0.0638594 2 4 7 
7246 5 0.855856 0.213326 0.0738137 -1 1 2 
6037 5 0.182656 0.227316 0.0696298 3 -2 1 
7674 6 0.327852 0.32884 0.0911989 2 3 3 
6094 5 0.663335 0.228949 0.101796 3 1 2 
7982 5 0.10238 0.320621 0.0742726 -2 -2 3 
5400 5 0.171639 0.268328 0.0689629 4 1 0 
7095 5 0.269582 0.29513 0.0737408 -1 0 -2 
7196 5 0.297411 0.229055 0.0793234 0 -5 3 
7937 6 0.345537 0.297584 0.0760675 2 0 4 
8641 5 0.766204 0.280751 0.0810177 2 1 -4 
8224 5 0.777135 0.320727 0.0993629 0 8 2 
8240 5 0.21516 0.312547 0.0439368 3 -6 0 
6096 5 0.691286 0.274273 0.0816038 -5 5 1 
6529 5 0.401982 0.341792 0.123368 -2 3 -2 
6343 6 0.156597 0.337293 0.0762164 1 1 -3 
8519 6 0.703743 0.361958 0.0373259 2 0 1 
6438 6 0.734073 0.319868 0.0709006 5 -3 2 
8905 5 0.937787 0.41862 0.0248335 -3 1 -1 
7194 6 0.399552 0.417873 0.0595814 2 4 -5 
8228 6 0.648551 0.403702 0.0512856 3 -6 3 
8123 6 0.947071 0.432703 0.0416343 -6 8 -2 
8505 5 0.345327 0.444581 0.0700616 3 -4 5 
5220 5 0.487749 0.43241 0.0947532 1 1 0 
5107 5 0.704305 0.481569 0.0456448 -3 -2 1 
6693 6 0.758998 0.46539 0.080095 1 0 3 
5411 5 0.766411 0.46507 0.0538554 -3 -2 2 
8930 5 0.30347 0.47719 0.0835896 7 -5 -6 
5205 6 0.1683 0.464854 0.0347836 1 6 4 
5109 6 0.107304 0.520645 0.0689525 -2 -1 0 
7235 6 0.261196 0.513407 0.0654776 -2 -2 2 
5131 5 0.300977 0.501657 0.0754206 4 3 0 
7536 5 0.426838 0.499803 0.076517 -1 6 4 
6572 5 0.586653 0.486378 0.057802 -1 -2 -3 
8924 6 0.686846 0.526508 0.0873866 -4 2 -2 
6637 6 0.800468 0.541473 0.0961383 2 2 8 
5496 6 0.0297312 0.516938 0.0602849 1 3 6 
5119 6 0.00326954 0.535538 0.0187481 7 0 0 
8510 5 0.00741397 0.565508 0.0652857 -5 2 -3 
5539 5 0.135475 0.552643 0.100968 1 1 3 
6180 6 0.410941 0.544015 0.0988367 2 -1 -1 
8624 5 0.465232 0.587267 0.0845499 1 3 -5 
5732 6 0.572868 0.5485 0.0321658 1 3 1 
8592 6 0.622148 0.547147 0.0855256 -1 3 -2 
8537 5 0.344337 0.584468 0.0992659 0 -3 -2 
8494 5 0.364515 0.63948 0.0852571 2 -3 -3 
8430 6 0.848689 0.630001 0.0717541 2 1 -3 
6073 6 0.868269 0.585109 0.0759707 -2 3 -3 
8026 6 0.863494 0.591041 0.0927833 -1 2 -7 
7791 6 0.212614 0.635683 0.105476 8 5 2 
6351 6 0.330163 0.648039 0.0666998 5 -1 1 
7143 6 0.672312 0.587106 0.0991948 2 -6 -1 
7401 6 0.926157 0.599147 0.0588457 0 -2 0 
7138 6 0.206957 0.634339 0.0837712 -2 -2 2 
5129 6 0.108492 0.651878 0.112264 -3 1 5 
6023 6 0.327698 0.677932 0.0753922 8 0 -3 
7859 6 0.647478 0.664256 0.10274 3 2 2 
6976 6 0.552687 0.731669 0.080797 -2 -2 -1 
7789 5 0.569811 0.737878 0.0533852 -4 1 6 
5610 6 0.234275 0.727204 0.0970208 -4 4 5 
5064 6 0.746649 0.730854 0.0797714 8 -3 0 
6250 5 0.535841 0.745243 0.122654 4 -1 1 
8357 6 0.260213 0.763344 0.0595671 -3 1 -6 
8820 6 0.726639 0.772624 0.0855286 4 -3 -3 
5949 5 0.293748 0.829822 0.104633 0 4 -5 
8574 5 0.533527 0.821134 0.0949928 -5 3 6 
6895 5 0.883676 0.823454 0.0798026 2 1 0 
7044 5 0.240322 0.866745 0.0676864 -1 -2 -2 
6368 6 0.455791 0.860487 0.0827051 2 1 2 
5439 5 0.908524 0.855691 0.097101 -1 0 4 
5198 6 0.148502 0.945451 0.0712002 -1 1 -3 
8388 5 0.73658 0.90046 0.0570208 -3 -1 0 
6899 5 0.42517 0.978236 0.0607757 2 -1 -2 
6659 6 0.571329 0.920311 0.0626946 3 -2 0 
6306 5 0.329618 0.986716 0.0682428 -3 -3 0 
8636 6 0.0383487 0.986417 0.0863207 0 0 0 
5217 6 0.21186 0.00562389 0.104949 -3 2 1 
8752 6 0.569661 0.988105 0.0901449 3 -2 0 
7971 5 0.740357 0.0365994 0.104432 0 -1 1 
7878 5 0.837121 0.0650065 0.0569548 5 6 3 
8304 6 0.0998132 0.0486269 0.0802196 2 -6 -6 
8002 6 0.214396 0.0508342 0.125299 -1 2 1 
5405 6 0.37992 0.0635999 0.103221 -6 1 5 
6909 6 0.47838 0.0384109 0.0960571 1 2 2 
6585 6 0.639927 0.0560035 0.125516 3 1 4 
6109 5 0.686683 0.0563309 0.120695 -6 2 -2 
8551 5 0.919581 0.0705529 0.06154 -2 6 -2 
6673 5 0.792612 0.125069 0.132677 -1 1 2 
7644 5 0.562722 0.134457 0.119609 -1 -1 3 
7313 5 0.758206 0.163422 0.109166 -2 -4 1 
5869 6 0.994706 0.167988 0.0894377 -2 -2 2 
8438 5 0.0913651 0.156872 0.0876973 2 0 0 
5805 6 0.258392 0.197207 0.0715674 0 3 3 
8660 6 0.796335 0.16144 0.0791252 -2 1 -1 
5137 5 0.120666 0.199803 0.123618 -2 -3 3 
8927 5 0.125553 0.180719 0.0694785 7 -2 -4 
6828 6 0.0138296 0.223519 0.146027 -1 -1 0 
5709 6 0.0751795 0.21301 0.109519 -3 4 4 
7050 5 0.126343 0.211678 0.0817593 1 0 -1 
8465 5 0.232924 0.23217 0.111833 -1 4 -2 
7252 6 0.443061 0.283588 0.110078 0 2 3 
7024 6 0.49138 0.305564 0.138357 0 -3 -3 
6634 5 0.810482 0.236763 0.0861868 0 0 7 
6207 5 0.918564 0.299702 0.0871142 -1 2 1 
5970 5 0.940085 0.252732 0.124051 3 2 -2 
6026 5 0.0700038 0.261343 0.0890948 5 -1 0 
8730 6 0.190805 0.293314 0.108534 1 -1 6 
7777 6 0.772474 0.276859 0.114769 -2 -1 -2 
5004 5 0.951127 0.273784 0.0958897 -5 -2 -3 
6371 6 0.0901835 0.313952 0.08574 1 1 4 
8503 5 0.875307 0.297327 0.0956754 4 0 -2 
8418 5 0.728693 0.331781 0.146521 2 -3 -2 
8054 6 0.708539 0.351588 0.132858 -2 2 1 
7850 6 0.654324 0.399226 0.14405 0 -1 -2 
6847 5 0.811151 0.37021 0.114315 0 1 0 
7240 6 0.865105 0.363283 0.100729 2 2 0 
6147 5 0.944973 0.354819 0.0779073 2 -5 1 
8708 5 0.0732097 0.363875 0.104828 3 2 3 
7222 5 0.264627 0.39441 0.0662923 0 5 1 
7796 6 0.22332 0.427692 0.124463 -2 0 -2 
6709 5 0.474326 0.443392 0.109334 -1 2 6 
5647 5 0.533361 0.478408 0.0944147 0 1 -2 
5091 5 0.667658 0.455355 0.110738 3 3 0 
7320 6 0.422692 0.487618 0.098208 4 4 -3 
5914 5 0.987175 0.483427 0.122043 3 2 -2 
6662 6 0.0276558 0.527011 0.114736 -1 1 5 
8659 5 0.0570877 0.529673 0.128717 -3 -7 2 
7398 6 0.87158 0.474253 0.117798 -2 4 1 
6388 5 0.0713243 0.518722 0.0938418 -2 4 -1 
8335 5 0.580532 0.570858 0.134535 -4 4 -3 
8594 5 0.703513 0.537137 0.123967 -2 1 2 
5161 6 0.992831 0.636423 0.0832241 -3 -5 -1 
6321 5 0.196824 0.572811 0.0973002 -8 4 0 
7195 6 0.803741 0.622762 0.143072 -3 2 7 
5745 6 0.257283 0.648472 0.0924992 -3 -1 3 
6022 6 0.919202 0.610066 0.122522 0 2 -2 
8003 6 0.256858 0.685736 0.0966875 4 -1 -4 
8522 5 0.282104 0.66238 0.133744 0 -4 2 
5367 6 0.0282663 0.692714 0.105629 0 1 1 
5778 5 0.169164 0.715174 0.0796304 2 1 -6 
8345 5 0.358399 0.697057 0.110206 1 2 2 
5216 6 0.705632 0.700259 0.135017 0 0 -5 
6969 6 0.787633 0.665996 0.0654147 -5 1 -6 
8779 6 0.842077 0.693845 0.0753786 4 -3 -2 
5039 5 0.919203 0.732497 0.131444 -1 1 2 
6965 5 0.370853 0.756787 0.127091 7 1 2 
7633 6 0.701318 0.730246 0.0687142 0 -4 0 
8651 5 0.711584 0.724006 0.0511625 -3 2 3 
8338 5 0.066276 0.722571 0.112904 1 -3 1 
5731 5 0.0959177 0.731534 0.0718672 3 -2 5 
6387 6 0.15032 0.74954 0.0864129 -2 -1 -1 
5901 6 0.165397 0.764307 0.0963722 -1 0 0 
7349 5 0.972127 0.753369 0.113874 0 3 3 
7342 5 0.137798 0.794995 0.075949 -3 1 -1 
5537 6 0.357088 0.772203 0.110083 0 3 1 
8638 5 0.664844 0.769011 0.074499 0 2 0 
6809 5 0.462523 0.801257 0.0778792 5 2 1 
6257 6 0.442782 0.805163 0.111342 -1 4 2 
5124 6 0.732711 0.811805 0.120895 -3 1 -3 
6248 6 0.605706 0.837787 0.11335 -4 1 -3 
7201 5 0.133479 0.847014 0.0684213 1 2 -3 
6957 6 0.762812 0.885548 0.0833855 3 0 -1 
8979 5 0.840408 0.853039 0.0706215 -5 1 -3 
8468 6 0.64225 0.891548 0.104385 -2 3 -1 
6417 6 0.727115 0.925828 0.0761594 -4 -4 5 
5209 5 0.203965 0.947398 0.147031 -2 -2 0 
7534 5 0.0335976 0.978183 0.123751 1 -3 2 
6021 5 0.383937 0.993229 0.0877714 2 1 1 
7585 6 0.530147 0.0459592 0.12393 0 1 -1 
8025 6 0.773715 0.0555645 0.0533269 1 6 -1 
7818 6 0.540491 0.0381613 0.107491 0 5 2 
8940 6 0.535933 0.0951038 0.0918501 2 8 -1 
5283 5 0.910188 0.0430346 0.103449 3 -1 2 
8943 5 0.931702 0.0401357 0.0788829 -3 1 2 
5139 5 0.608609 0.167125 0.126232 0 0 5 
6740 6 0.419257 0.204955 0.139153 0 -1 7 
8767 6 0.954215 0.168452 0.125745 4 -2 3 
7053 5 0.0235481 0.19264 0.135128 -3 0 7 
5657 6 0.129107 0.180543 0.100344 1 -1 6 
6745 5 0.412602 0.171978 0.137927 -5 -1 0 
6347 6 0.558881 0.222217 0.153597 -1 -2 0 
8608 6 0.831517 0.272242 0.143024 -4 4 -1 
7110 6 0.174448 0.265906 0.0953175 2 -1 -1 
8429 5 0.167904 0.261717 0.116844 -2 -3 1 
8186 5 0.490854 0.335034 0.0954428 7 3 0 
6565 5 0.22522 0.311893 0.0983459 5 3 0 
8588 6 0.972349 0.304403 0.114675 4 2 5 
7672 6 0.84903 0.334364 0.111078 -2 2 1 
8606 5 0.615827 0.412211 0.123712 1 -4 4 
6524 6 0.420863 0.382368 0.124947 -2 -2 0 
5063 6 0.532536 0.406875 0.146287 -1 -3 5 
8639 5 0.0448913 0.484229 0.134729 -1 -4 5 
7061 5 0.487832 0.428082 0.101381 0 1 2 
8334 6 0.57656 0.480769 0.0843492 5 0 -1 
5515 5 0.739779 0.385895 0.132229 -1 1 -4 
7493 5 0.0125411 0.447408 0.156166 1 -4 1 
8248 5 0.382116 0.453031 0.115408 6 -2 0 
6403 6 0.0670077 0.514434 0.148079 1 0 1 
8954 6 0.0145445 0.487265 0.14676 -1 0 3 
6667 6 0.77615 0.510252 0.109585 -2 -3 -5 
7706 6 0.991616 0.513752 0.114984 1 -2 0 
5115 6 0.915014 0.523039 0.133431 3 -2 1 
5260 5 0.533439 0.537898 0.116676 -2 2 2 
5481 6 0.848022 0.557497 0.139093 -2 6 1 
8769 6 0.717273 0.607234 0.111163 0 1 5 
8824 6 0.642615 0.632897 0.107127 -1 1 1 
7479 5 0.174433 0.663005 0.0883798 -3 -2 3 
8194 6 0.334842 0.70378 0.145566 -1 -10 2 
6019 6 0.654998 0.644105 0.156642 -1 -5 -2 
7934 5 0.0894979 0.662432 0.136598 -2 -6 1 
8325 5 0.222681 0.661227 0.133471 3 -1 -2 
7340 5 0.977544 0.667774 0.143597 -1 -3 -3 
5686 6 0.558553 0.685021 0.11859 -2 -1 2 
8223 5 0.83323 0.668758 0.0954579 0 -4 2 
8039 6 0.248724 0.749233 0.13057 3 0 -1 
6913 6 0.350034 0.787919 0.094899 -1 3 -1 
5889 6 0.0748355 0.785283 0.073223 0 -3 4 
5897 6 0.169864 0.787227 0.13 -2 1 1 
5511 5 0.428373 0.73618 0.155537 -2 -3 2 
7345 5 0.413636 0.753318 0.109092 -2 -7 -4 
8828 5 0.766255 0.764346 0.151321 -2 -1 4 
6627 6 0.81254 0.743726 0.107984 -6 2 -2 
5045 5 0.882729 0.768857 0.151276 -5 3 2 
7304 6 0.880867 0.76116 0.111624 0 1 0 
5215 6 0.065242 0.818625 0.123344 2 1 3 
5078 5 0.892683 0.836209 0.143901 4 -4 1 
6696 5 0.793547 0.865044 0.124836 -6 -2 3 
6360 5 0.872154 0.847085 0.130252 -1 0 -4 
6450 6 0.907711 0.859593 0.108851 -2 -1 -3 
6869 5 0.98877 0.850539 0.0967358 0 -5 -4 
8051 5 0.32564 0.867585 0.112137 -1 3 -1 
8082 6 0.961402 0.871231 0.0897249 -4 3 -2 
8132 6 0.119889 0.871143 0.155459 -3 2 3 
5035 5 0.197396 0.88181 0.166419 5 -4 5 
6168 5 0.342205 0.881949 0.117416 2 -2 0 
7413 6 0.515958 0.868889 0.132846 -3 0 3 
5851 5 0.579151 0.880585 0.0977264 -1 -1 -4 
8535 5 0.902392 0.902124 0.126321 0 3 3 
7192 5 0.930554 0.92014 0.108277 -3 -1 -2 
7310 6 0.260783 0.958769 0.12832 0 0 6 
7279 6 0.612821 0.967656 0.159301 -8 -3 -1 
5965 5 0.895953 0.927381 0.142941 3 2 8 
8241 6 0.0463585 0.971644 0.146534 -1 4 -2 
7768 6 0.0695806 0.0253702 0.168523 -1 1 -2 
7920 5 0.996085 0.0587255 0.16219 -6 1 -2 
6370 5 0.897905 0.0401416 0.150333 2 4 2 
7948 6 0.670805 0.0617342 0.129207 3 1 2 
5300 6 0.406408 0.122694 0.159165 -4 0 -4 
6486 5 0.390769 0.130234 0.143492 2 2 0 
7838 5 0.470879 0.0899684 0.143502 4 0 3 
6601 6 0.664462 0.0783318 0.180351 1 0 2 
7480 6 0.22595 0.124709 0.1435 2 -6 2 
8179 6 0.973564 0.0856974 0.162923 0 3 -2 
7058 6 0.142217 0.153733 0.123373 0 3 3 
7954 6 0.57218 0.157135 0.163594 1 -2 2 
7462 5 0.881194 0.15951 0.151055 1 0 -6 
6013 6 0.91519 0.153576 0.16199 -3 1 4 
8645 5 0.220292 0.134056 0.114888 1 2 -1 
7562 5 0.713653 0.187586 0.142621 1 -1 3 
8174 6 0.403813 0.211088 0.171977 -2 -1 -1 
6665 6 0.599215 0.173858 0.168007 0 3 1 
6091 5 0.889495 0.21753 0.143202 4 -1 -1 
5101 5 0.0905769 0.210728 0.159988 -1 0 3 
4325 1 0.449037 0.232822 0.16469 0 0 0 
4326 1 0.44665 0.234513 0.158109 0 0 0 
4327 1 0.441639 0.233189 0.161718 0 0 0 
4324 1 0.454159 0.233414 0.160722 0 0 0 
5123 6 0.547867 0.18815 0.130675 1 5 1 
6587 6 0.976764 0.199305 0.146141 0 3 2 
4323 1 0.454879 0.236694 0.166159 0 0 0 
4321 1 0.45845 0.242122 0.162432 0 0 0 
4319 1 0.461961 0.246495 0.158237 0 0 0 
4322 1 0.460329 0.235968 0.162512 0 0 0 
8145 6 0.769991 0.250186 0.112705 2 -5 1 
5937 6 0.93792 0.265907 0.150155 -6 2 0 
5014 6 0.549727 0.304499 0.16655 0 -2 2 
5625 6 0.532449 0.247201 0.162361 1 2 0 
6549 6 0.391173 0.321601 0.157829 -2 -1 -2 
7389 6 0.761197 0.321033 0.136132 3 -3 -3 
5055 6 0.963617 0.316962 0.183189 -3 -2 0 
7560 6 0.142762 0.308097 0.150854 -4 0 4 
8232 6 0.548532 0.306069 0.127183 -2 4 1 
8064 6 0.188216 0.362909 0.150594 -2 3 1 
8506 6 0.296332 0.340021 0.156509 4 2 4 
6746 6 0.683005 0.336687 0.183513 0 4 0 
6205 5 0.353943 0.399747 0.15921 -3 0 -2 
8977 5 0.280553 0.478337 0.162419 -4 1 -1 
7876 5 0.33655 0.471818 0.118348 1 -1 4 
8041 6 0.650425 0.507102 0.146278 3 -4 0 
5210 6 0.0823393 0.494318 0.133823 1 3 3 
7641 5 0.719859 0.516521 0.152446 0 3 -6 
8259 5 0.477711 0.532238 0.13702 -1 -1 3 
5936 6 0.553652 0.51845 0.135577 3 -3 -3 
6937 6 0.907833 0.525676 0.132741 0 -1 2 
8159 5 0.286522 0.550366 0.15028 5 0 0 
6813 5 0.369029 0.52584 0.147704 3 2 4 
5632 6 0.179492 0.632215 0.16456 -4 1 -3 
8073 5 0.375021 0.647448 0.111046 3 0 1 
6004 5 0.401446 0.611343 0.13413 0 -3 3 
6107 6 0.636666 0.63176 0.145406 -4 0 0 
6896 6 0.349406 0.622102 0.113447 -1 1 1 
8053 6 0.50428 0.637088 0.155724 -4 2 1 
8246 6 0.793701 0.645038 0.141974 -2 1 2 
8173 5 0.912129 0.687873 0.137298 4 5 -4 
6173 6 0.92369 0.673495 0.128217 2 3 1 
8100 5 0.305973 0.704005 0.0837191 -2 7 1 
5249 6 0.433523 0.715215 0.129659 -4 1 3 
6123 6 0.508344 0.762062 0.125544 -3 1 0 
7105 5 0.487915 0.747641 0.152093 -2 1 -1 
7543 5 0.458195 0.791565 0.130615 2 3 2 
6621 6 0.554969 0.779473 0.154061 3 4 3 
6294 6 0.422731 0.81546 0.154629 -2 0 8 
7631 6 0.175303 0.788112 0.156342 -3 -4 4 
6535 6 0.937816 0.808748 0.212558 2 -1 0 
5134 5 0.613377 0.838753 0.14636 1 -1 -3 
6418 5 0.753028 0.855204 0.13486 7 1 2 
8092 6 0.981349 0.845227 0.118351 3 1 -5 
5933 5 0.157382 0.895805 0.157529 3 -2 -3 
8294 6 0.582419 0.871618 0.148222 0 -2 2 
8787 5 0.884928 0.867351 0.151713 0 -1 0 
8083 6 0.014033 0.93038 0.171336 0 -2 -2 
6468 6 0.204973 0.90591 0.167969 -1 -2 -2 
8493 6 0.893322 0.915023 0.151922 -1 2 -1 
8383 5 0.54264 0.94784 0.116019 -2 2 0 
7285 5 0.0973282 0.896926 0.154863 -1 -1 5 
8893 5 0.689742 0.987211 0.153531 6 3 3 
5387 5 0.869789 0.939169 0.171991 5 -1 -2 
7968 6 0.674137 0.965802 0.141236 -6 -5 0 
8011 6 0.342322 0.976133 0.132416 -1 -2 -3 
7317 6 0.711989 0.988171 0.159261 6 -5 1 
5793 6 0.952115 0.974931 0.137322 1 -2 -5 
6560 6 0.568787 0.00680555 0.165881 -2 4 1 
8234 5 0.0147942 0.0370447 0.175383 2 -1 -3 
8672 6 0.221743 0.0607711 0.183218 0 -5 -1 
7643 6 0.29809 0.0776675 0.19906 -2 0 1 
5548 6 0.857413 0.0691714 0.168939 0 0 2 
5720 6 0.422645 0.0920205 0.189067 0 -6 2 
6461 6 0.131928 0.100885 0.154754 -3 5 4 
5771 6 0.742981 0.0916719 0.155384 0 7 2 
5563 6 0.468251 0.125492 0.177018 0 2 -1 
6820 5 0.713898 0.115876 0.155406 4 -3 0 
6652 5 0.319805 0.12643 0.137508 -2 -3 1 
6802 6 0.267777 0.137497 0.192245 -1 1 2 
5726 6 0.0775386 0.201927 0.136835 4 -1 -2 
6871 6 0.720626 0.186311 0.185223 2 0 -1 
4329 1 0.439498 0.226183 0.162049 0 0 0 
4330 1 0.443811 0.222545 0.159181 0 0 0 
4331 1 0.438869 0.219072 0.16154 0 0 0 
4328 1 0.441848 0.229399 0.156886 0 0 0 
4924 1 0.468732 0.210282 0.181649 0 0 0 
4922 1 0.463713 0.205618 0.180761 0 0 0 
4977 1 0.495819 0.220976 0.163153 0 0 0 
4979 1 0.488486 0.219327 0.165666 0 0 0 
4978 1 0.492068 0.216219 0.161149 0 0 0 
4981 1 0.485875 0.215366 0.171116 0 0 0 
4980 1 0.491426 0.214856 0.168597 0 0 0 
4970 1 0.51599 0.216825 0.174998 0 0 0 
4973 1 0.508315 0.220349 0.169756 0 0 0 
4972 1 0.512003 0.215289 0.169327 0 0 0 
4975 1 0.502007 0.220303 0.16646 0 0 0 
4976 1 0.498342 0.215145 0.164882 0 0 0 
4974 1 0.505493 0.215318 0.166607 0 0 0 
6701 5 0.501427 0.215318 0.175392 -3 0 -3 
4971 1 0.509702 0.215304 0.175303 0 0 0 
8206 5 0.588586 0.225742 0.165103 3 3 1 
4337 1 0.438482 0.227766 0.175558 0 0 0 
4339 1 0.440599 0.234786 0.175318 0 0 0 
7622 5 0.464642 0.240513 0.165159 -1 2 -3 
4318 1 0.467547 0.245273 0.160775 0 0 0 
4335 1 0.43801 0.222069 0.170759 0 0 0 
4332 1 0.444873 0.216706 0.163182 0 0 0 
4333 1 0.44157 0.216066 0.16844 0 0 0 
4334 1 0.444404 0.222341 0.167732 0 0 0 
4316 1 0.466258 0.252957 0.160739 0 0 0 
4338 1 0.444273 0.230257 0.177529 0 0 0 
4336 1 0.442827 0.223319 0.175159 0 0 0 
6092 6 0.423472 0.210568 0.155901 2 5 3 
4341 1 0.443766 0.240437 0.177549 0 0 0 
4342 1 0.439956 0.242395 0.182314 0 0 0 
4320 1 0.462596 0.24039 0.157462 0 0 0 
4313 1 0.472178 0.245444 0.167292 0 0 0 
4312 1 0.46799 0.244989 0.172358 0 0 0 
4315 1 0.471668 0.250278 0.162105 0 0 0 
4311 1 0.473847 0.246323 0.174616 0 0 0 
4932 1 0.46908 0.230837 0.184652 0 0 0 
7918 6 0.0735892 0.266406 0.157839 2 -5 -2 
8324 6 0.443619 0.263579 0.215982 -1 -4 2 
4317 1 0.468117 0.249574 0.156175 0 0 0 
4340 1 0.442879 0.235627 0.181453 0 0 0 
4314 1 0.46783 0.249926 0.167002 0 0 0 
6170 5 0.944942 0.270992 0.154782 -8 6 6 
7491 6 0.0499942 0.278006 0.197528 -5 1 5 
6773 5 0.857587 0.276296 0.174622 1 0 3 
5206 6 0.924591 0.280455 0.181764 -4 5 -1 
6209 6 0.945435 0.295364 0.16772 -1 -2 1 
6689 6 0.574106 0.325824 0.159901 -3 -3 2 
8156 6 0.0422045 0.342576 0.19002 -1 0 5 
8617 5 0.579011 0.307785 0.17627 -1 -2 2 
7931 6 0.034367 0.38346 0.183672 1 1 4 
8740 5 0.0614605 0.339685 0.155586 -2 2 -1 
6283 6 0.131727 0.344979 0.100993 5 -1 -3 
7755 5 0.719066 0.356562 0.193204 5 -2 3 
5656 6 0.851341 0.397779 0.137189 -1 -1 4 
7774 5 0.971464 0.363935 0.181326 -5 1 1 
7742 5 0.899819 0.402908 0.159961 -3 5 0 
7573 5 0.00564 0.428409 0.158724 -1 4 -1 
7118 5 0.430722 0.409439 0.174724 -2 3 3 
6355 5 0.618642 0.480266 0.147763 -1 -6 4 
8903 6 0.0322887 0.507203 0.173438 -2 1 -1 
5810 5 0.200285 0.511922 0.148453 -1 -1 0 
6575 5 0.332868 0.519722 0.149614 -1 -2 -4 
8415 5 0.681987 0.508543 0.156343 2 -2 -5 
8582 6 0.167587 0.558533 0.157201 2 0 -1 
7288 6 0.488124 0.595706 0.180685 1 3 5 
8625 6 0.490185 0.611921 0.179411 -1 -6 0 
8719 5 0.789225 0.569764 0.140951 2 -3 3 
5903 6 0.134215 0.652972 0.167553 -1 -3 0 
5783 6 0.310223 0.625273 0.170857 0 -4 2 
5339 5 0.873926 0.652447 0.156498 -8 -4 -4 
6308 6 0.019601 0.670147 0.178165 -1 -3 2 
8768 5 0.433031 0.638465 0.167385 1 3 1 
5917 5 0.500735 0.662601 0.177663 0 1 -5 
8839 6 0.696291 0.668101 0.159513 -1 3 -2 
7291 6 0.35473 0.674069 0.20808 -1 0 3 
5534 5 0.903608 0.736528 0.162405 2 0 3 
5775 5 0.912487 0.728166 0.173546 1 3 3 
6551 6 0.0869771 0.784536 0.180925 -4 3 -1 
6386 6 0.252356 0.777612 0.186009 -1 -1 4 
8516 6 0.267495 0.746425 0.135541 -1 1 0 
6010 6 0.765654 0.785861 0.194859 0 0 -3 
7372 5 0.00557631 0.805107 0.200002 -4 -1 6 
6365 6 0.0703523 0.80577 0.166202 -1 -3 2 
8175 5 0.574425 0.820034 0.193127 -4 -1 -3 
7333 6 0.843629 0.845702 0.185068 -2 2 2 
8366 6 0.956238 0.776807 0.179625 -1 2 1 
6779 6 0.121892 0.81413 0.175484 6 1 2 
7702 6 0.997001 0.837587 0.148831 -6 3 0 
8717 6 0.702611 0.844303 0.190723 2 -1 1 
5031 6 0.987196 0.86301 0.167198 -1 0 -2 
8056 6 0.815364 0.88902 0.17508 1 -5 5 
6668 6 0.0982121 0.924401 0.236531 2 0 2 
8975 6 0.96707 0.926186 0.186167 7 4 3 
7628 6 0.964346 0.956012 0.157655 0 -3 -1 
5015 6 0.221402 0.969818 0.155301 -1 -1 -1 
5476 5 0.238401 0.957587 0.192452 -2 3 5 
7857 6 0.689612 0.0407297 0.1341 -3 3 0 
8254 6 0.245828 0.0153078 0.198118 3 0 5 
8075 5 0.426243 0.993898 0.125363 2 1 -1 
5852 6 0.651627 0.0112166 0.208945 1 -1 3 
7801 5 0.760176 0.032557 0.210789 -2 3 2 
7332 5 0.941221 0.0276796 0.225946 -5 0 -4 
8715 6 0.142213 0.0764661 0.193151 5 -3 -5 
5282 6 0.916864 0.0448382 0.214523 0 1 3 
8690 5 0.886296 0.0725517 0.203411 -3 -1 -1 
5384 5 0.281145 0.107733 0.174292 2 2 4 