ITEM: TIMESTEP
20000000
ITEM: NUMBER OF ATOMS
9000
ITEM: BOX BOUNDS pp pp pp
-75 75
-75 75
-75 75
ITEM: ATOMS id type xs ys zs ix iy iz 
6098 6 0.418303 0.0146087 0.00368397 -1 3 -1 
7790 6 0.375269 0.068425 0.0239564 -1 -1 3 
7044 5 0.530624 0.0442006 0.00729063 0 1 -6 
7908 6 0.115417 0.0311292 0.0365405 1 0 1 
7099 6 0.345063 0.0355605 0.0321805 0 3 1 
8700 5 0.504355 0.12867 0.0267672 1 1 4 
8505 6 0.885945 0.139765 0.0303873 3 -4 1 
6325 5 0.877616 0.0865319 0.0248895 0 -1 0 
6842 5 0.119634 0.139394 0.000799451 -3 -1 -4 
8198 5 0.584319 0.144362 0.00330295 -3 -3 -2 
6016 6 0.768305 0.162869 0.019478 -3 1 2 
7364 5 0.878424 0.142739 0.0226031 -3 1 1 
8180 6 0.946234 0.130925 0.0307716 2 0 0 
7998 6 0.0279843 0.180433 0.0332369 3 3 -4 
5169 5 0.873762 0.127717 0.986126 2 4 -4 
6678 6 0.486947 0.229976 0.976838 -3 5 -1 
5032 6 0.447138 0.228706 0.0058863 -3 2 -3 
5223 6 0.961491 0.283068 0.0245087 0 1 2 
5065 6 0.803152 0.290642 0.0187192 2 -1 0 
5452 5 0.0948394 0.317895 0.969046 -4 0 4 
8376 5 0.361995 0.345959 -0.000701115 -3 1 -3 
8202 6 0.457626 0.293272 0.996799 2 -3 -5 
6834 6 0.959741 0.331202 0.0131 -2 -1 5 
5030 5 0.850218 0.345591 0.0324017 -4 -1 -4 
7530 5 0.169001 0.376892 0.985017 -3 0 0 
8241 6 0.487197 0.400065 0.0134425 -2 0 -2 
5182 6 0.232861 0.417474 0.0237055 2 1 -4 
6478 5 0.5643 0.398715 0.00630583 1 0 3 
7294 5 0.766138 0.426186 0.0178427 0 -1 1 
7608 5 0.0660366 0.422693 0.943722 2 0 2 
7801 6 0.349518 0.460326 0.0247692 -1 -3 0 
8725 6 0.194791 0.49757 0.0350942 2 -2 -3 
5573 6 0.654705 0.456561 0.0337812 -3 0 -3 
5561 5 0.384712 0.570731 0.0398951 2 4 1 
7748 5 0.434041 0.547101 0.989344 4 0 0 
8996 6 0.200159 0.556355 0.0108335 8 -1 0 
8252 5 0.34887 0.587332 0.0338816 3 -2 3 
7130 5 0.488553 0.519812 0.00431994 -2 4 6 
5333 6 0.711366 0.55345 0.97581 0 4 -1 
6514 6 0.149489 0.571541 0.00305904 -2 2 -1 
6640 6 0.576336 0.616176 0.993035 2 -1 2 
5061 6 0.668415 0.581328 0.997018 -4 -3 -2 
6706 6 0.172418 0.588454 0.970291 -1 3 0 
7906 6 0.669268 0.593321 0.980611 3 2 -2 
6943 6 0.0556001 0.631096 0.0207811 3 0 1 
8484 6 0.549106 0.643803 0.000975233 -4 -1 -2 
6344 6 0.853385 0.623009 0.956856 -2 3 -1 
5941 5 0.525659 0.62556 0.98024 -2 2 -1 
8546 5 0.524472 0.660628 0.986734 3 0 0 
5099 6 0.429001 0.701866 0.0395762 -2 -2 1 
5489 5 0.551294 0.697151 0.0290028 -3 1 8 
7072 6 0.610702 0.752505 0.0257949 -4 -1 -2 
6469 6 0.386391 0.738619 0.0204021 -1 0 4 
5715 6 0.379501 0.790334 0.0234124 1 1 -2 
5999 6 0.782368 0.772504 0.969146 -1 0 0 
6164 6 0.461655 0.842885 0.98968 2 3 1 
7490 6 0.919243 0.824528 0.0343944 0 -1 0 
8779 5 0.378524 0.851326 0.0323476 8 2 1 
5405 5 0.0036016 0.852159 0.0188063 -1 -3 -3 
6214 5 0.582992 0.880643 0.0325203 4 0 -1 
6691 5 0.85812 0.853017 0.013456 1 2 1 
8444 5 0.978622 0.845014 0.0139372 1 -2 2 
6699 5 0.00668201 0.959763 0.0521159 2 4 3 
6363 5 0.448583 0.93602 0.994226 7 0 4 
7951 6 0.861791 0.929922 0.0477792 -1 1 5 
7137 6 0.483505 0.96495 0.976284 -2 0 5 
6005 6 0.785607 0.943195 0.0225523 1 4 -2 
7280 5 0.833876 0.93469 0.990282 -2 4 2 
8918 6 0.000854002 0.976183 0.00315986 -6 0 -5 
8386 5 0.187581 0.968836 0.0263843 0 -4 2 
8279 6 0.333854 0.949817 0.00488917 3 -4 0 
8931 6 0.605561 0.93868 0.0153436 1 -2 2 
6785 6 0.283633 0.996028 0.99482 5 0 4 
5699 5 0.159088 0.0142315 0.00369892 4 4 -2 
8062 5 0.334705 0.00835374 0.0489721 -1 2 0 
6731 5 0.439904 0.998241 0.00780259 2 2 -2 
6069 5 0.603277 0.0238673 0.0487854 4 -5 -1 
8781 6 0.957261 0.00320199 0.0239759 3 0 1 
5117 6 0.164559 0.0276745 0.0668684 5 6 -3 
6393 6 0.630556 0.0637173 0.0310872 4 2 1 
6303 6 0.0633183 0.101938 0.0557279 3 -4 2 
7909 6 0.749346 0.0745236 0.0228452 5 4 2 
7747 6 0.802914 0.0747805 0.0256826 3 2 -4 
5279 5 0.929552 0.0431412 0.0462549 -3 -2 -2 
6145 6 0.65527 0.116719 0.0661859 -1 -2 -1 
6642 6 0.956127 0.0961627 0.992962 0 2 -8 
8064 5 0.0169204 0.137494 0.0439174 6 1 6 
8675 5 0.194198 0.149829 0.030594 -1 -4 2 
8850 5 0.302234 0.181131 0.987753 -2 1 -2 
8770 5 0.450043 0.141298 0.0306363 -1 -1 -1 
7152 5 0.288486 0.210629 0.0515756 -2 1 -1 
6983 6 0.37473 0.166658 0.0241919 1 1 -3 
8745 6 0.576901 0.174162 0.0323674 -1 -1 4 
8117 6 0.919758 0.196793 0.060985 2 2 0 
7098 5 0.0885343 0.195102 0.0028735 4 2 3 
7565 6 0.497915 0.187819 0.00253769 -1 1 6 
6639 6 0.728607 0.206816 0.0673606 3 2 0 
6613 6 0.9221 0.232898 0.0484872 -1 3 -2 
6027 5 0.103275 0.296571 0.0561757 0 1 -1 
7481 6 0.570463 0.275276 0.0240764 -3 1 -2 
7205 5 0.6069 0.286532 0.0352878 1 0 2 
8981 5 0.928464 0.316633 0.0466109 1 1 -2 
5252 5 0.290799 0.317975 0.0245287 0 2 0 
5900 5 0.619682 0.333034 0.0254532 -4 2 2 
5787 6 0.218205 0.351351 0.0464345 -1 1 -3 
5219 5 0.349415 0.33389 0.0376868 1 -4 -1 
8232 6 0.531407 0.370166 0.0192372 3 0 3 
8715 6 0.846168 0.381732 0.0656979 -1 -3 -1 
6984 6 0.723571 0.353662 0.0295883 -2 0 3 
7004 5 0.861424 0.410845 0.0566794 1 -1 0 
7224 6 0.86522 0.340971 0.0317757 5 1 0 
6501 5 0.853269 0.410006 0.0504787 0 2 0 
5875 6 0.932451 0.389532 0.0448189 -2 4 4 
5965 5 0.982259 0.459492 0.0155817 1 2 2 
7307 6 0.461092 0.407594 0.0656741 -2 4 -1 
5255 6 0.715883 0.461728 0.992858 -7 1 0 
8361 6 0.755323 0.463615 0.0634157 4 -1 1 
7657 6 0.177037 0.520722 0.0544484 1 1 -2 
6092 5 0.228343 0.493408 0.0172147 5 -4 2 
5623 6 0.276396 0.515429 0.0416586 0 2 5 
5950 5 0.359328 0.512465 0.0372028 -5 4 0 
7741 6 0.494235 0.516268 0.041243 4 -1 -3 
6883 5 0.882476 0.485769 0.023761 2 -4 -3 
7455 6 0.878467 0.517567 0.0222111 5 1 -1 
8983 5 0.987502 0.539949 0.024348 1 2 -3 
6605 6 0.449587 0.559662 0.0543217 1 -1 3 
5948 6 0.985669 0.564442 0.0313302 -4 -4 -7 
5649 6 0.0742177 0.578896 0.0410989 -1 1 1 
6667 6 0.443154 0.599276 0.0699072 -3 -3 3 
8003 6 0.597463 0.554914 0.012126 2 0 5 
5007 5 0.639821 0.53617 0.0518216 0 -3 2 
5420 5 0.683864 0.573785 0.0377524 -1 0 -2 
7529 6 0.646204 0.541113 0.0269805 3 -3 4 
7884 5 0.0511027 0.607285 0.048068 2 1 0 
7584 6 0.155253 0.579751 0.0426284 -2 -4 1 
8913 5 0.239463 0.587032 0.0304772 2 -1 3 
6105 6 0.376663 0.542134 0.0420401 6 4 5 
8261 6 0.67047 0.607339 0.0389336 -1 -7 0 
6172 6 0.762404 0.59061 0.0533736 4 4 3 
6139 6 0.776785 0.622307 0.0254631 -1 2 -1 
5706 6 0.233562 0.5947 0.00939928 -2 2 -1 
6291 6 0.310666 0.601907 0.0237075 3 2 0 
5052 6 0.595478 0.603685 0.0352118 2 1 -4 
8112 5 0.819149 0.579461 0.0455254 2 9 -4 
7601 6 0.927685 0.599358 0.048425 -2 -2 -2 
8583 5 0.56656 0.594901 0.0171872 0 5 0 
8623 5 0.938081 0.629836 0.0201327 1 -3 0 
8211 5 0.0159123 0.628951 0.00458713 1 2 0 
5376 6 0.188372 0.652857 0.0292301 -1 1 -1 
4984 1 0.635176 0.64738 0.0573725 0 0 0 
4982 1 0.632043 0.64944 0.0639511 0 0 0 
4986 1 0.634745 0.652896 0.0519328 0 0 0 
4988 1 0.64183 0.653079 0.0486926 0 0 0 
4994 1 0.661151 0.651374 0.047742 0 0 0 
8776 6 0.341137 0.676862 0.0423239 2 1 1 
7927 6 0.847774 0.660018 0.0391556 3 -5 6 
5702 6 0.909097 0.720076 0.047736 2 -1 3 
7327 5 0.986465 0.70445 0.0199452 0 -1 -2 
5726 5 0.178092 0.661334 0.0650094 4 3 3 
5482 6 0.355181 0.722051 0.0831897 -2 0 4 
7078 5 0.480643 0.721535 0.0625607 -3 -3 -1 
7555 6 0.547333 0.733733 0.0357497 5 -2 4 
6201 5 0.143111 0.768256 0.0329399 -1 -1 -1 
1960 1 0.596296 0.765456 0.0506345 0 0 0 
1959 1 0.5953 0.759077 0.0495922 0 0 0 
1961 1 0.591213 0.763746 0.0539939 0 0 0 
6926 6 0.612351 0.772954 0.0429843 4 -2 2 
6661 6 0.774394 0.717018 0.0371257 -3 7 0 
8472 6 0.86851 0.754177 0.0167511 -2 -2 -6 
1890 4 0.590598 0.796456 0.0258666 0 0 0 
1889 1 0.596638 0.794321 0.0259028 0 0 0 
1884 1 0.605904 0.77775 0.0232239 0 0 0 
1888 1 0.601997 0.790834 0.0270959 0 0 0 
1887 1 0.598988 0.787139 0.0229676 0 0 0 
1886 1 0.605321 0.785401 0.0236258 0 0 0 
1885 1 0.601122 0.780986 0.0261375 0 0 0 
1883 1 0.607041 0.778048 0.0294214 0 0 0 
1882 4 0.606864 0.77996 0.0358388 0 0 0 
1881 4 0.607014 0.78285 0.0420291 0 0 0 
1880 4 0.611215 0.787992 0.0421987 0 0 0 
1893 1 0.590274 0.803117 0.0306139 0 0 0 
1891 1 0.586217 0.797024 0.0310324 0 0 0 
1892 1 0.588015 0.800253 0.0361271 0 0 0 
1894 1 0.59096 0.807167 0.0356234 0 0 0 
1901 1 0.595736 0.818678 0.0411916 0 0 0 
1903 1 0.593189 0.824316 0.0455351 0 0 0 
1895 1 0.596819 0.804578 0.0344205 0 0 0 
1896 1 0.596809 0.810291 0.0318218 0 0 0 
1897 1 0.602545 0.809479 0.03506 0 0 0 
1899 1 0.60093 0.815647 0.0377492 0 0 0 
1900 1 0.597395 0.819869 0.0351935 0 0 0 
1898 1 0.60236 0.815675 0.0316345 0 0 0 
1902 1 0.593141 0.824486 0.0391885 0 0 0 
1904 1 0.587936 0.827428 0.043783 0 0 0 
5187 6 0.914156 0.811033 0.0553827 5 -3 -3 
7452 5 0.00964871 0.860193 0.0769045 0 2 7 
5228 5 0.0699304 0.867205 0.0269672 -1 0 2 
6753 5 0.648868 0.865228 0.0315087 -2 2 -1 
7379 6 0.522877 0.891692 0.0237684 0 -3 2 
7882 6 0.160413 0.988742 0.0363291 3 0 6 
8297 6 0.784272 0.962917 0.0579406 -1 -4 2 
5970 6 0.156268 0.960593 0.0562631 1 1 0 
7070 6 0.508165 0.970984 0.0386745 0 3 -3 
8702 6 0.756261 0.917693 0.0244366 1 -2 -1 
8179 5 0.283121 0.0427537 0.0132441 4 0 -3 
5222 5 0.443522 0.9946 0.0527666 -3 -2 4 
5686 6 0.112208 0.998684 0.0473238 -2 -1 0 
7089 6 0.716167 0.0189149 0.0485347 1 2 -4 
6334 6 0.764538 0.00287509 0.0288261 0 3 0 
6800 5 0.997185 0.0208323 0.0519871 -2 1 1 
6154 5 0.0332717 0.0420207 0.0767399 0 -2 2 
7978 6 0.313426 0.0324195 0.0274198 -2 5 1 
5908 5 0.718009 0.00689044 0.0510667 2 -2 7 
7046 6 0.222342 0.0367182 0.069154 1 4 6 
7122 5 0.324759 0.10453 0.0396559 3 -2 -1 
6102 5 0.995605 0.0771101 0.0508221 -2 3 2 
5253 5 0.211102 0.0697715 0.0636778 2 1 0 
5942 6 0.539284 0.106927 0.0169236 0 -1 0 
5257 5 0.71234 0.0790328 0.0718095 4 -1 4 
7221 6 0.0573541 0.119908 0.0988812 2 -2 -3 
7426 5 0.907114 0.117727 0.0802308 0 5 -3 
7368 5 0.155573 0.10687 0.0265363 -1 -2 4 
6012 6 0.508978 0.151959 0.0672006 -3 1 -6 
8188 6 0.903954 0.152257 0.0532849 -4 3 -2 
5201 5 0.298554 0.175117 0.0260074 -3 1 0 
6879 6 0.322166 0.207602 0.0831062 3 -2 -2 
7848 5 0.848854 0.174678 0.0738215 -5 3 3 
7389 6 0.216657 0.207805 0.0894234 -4 0 5 
5798 6 0.452375 0.27676 0.0279635 -3 2 1 
8758 5 0.319546 0.282456 0.0521675 -5 -1 4 
7094 5 0.557071 0.309454 0.0359644 1 5 0 
5259 5 0.811306 0.269243 0.0533304 0 3 -3 
8906 6 0.169963 0.344272 0.0370939 2 5 -5 
5518 6 0.557414 0.315988 0.0775352 2 -1 -4 
8183 6 0.585953 0.336232 0.0600972 -2 4 -6 
5233 6 0.224611 0.30663 0.0533991 0 1 -2 
8300 5 0.611347 0.31349 0.0326142 -1 1 1 
7142 6 0.785247 0.327075 0.0598342 2 0 -2 
6602 6 0.230645 0.353574 0.0744206 4 -3 -2 
7788 6 0.806791 0.362494 0.0321503 2 0 4 
5906 5 0.0931231 0.388945 0.0759143 3 -1 2 
8665 6 0.400678 0.400647 0.0549918 -2 -1 1 
8855 5 0.0995123 0.444083 0.0282039 -4 -3 -3 
7835 6 0.432686 0.401656 0.0339813 0 -1 -2 
8912 5 0.620786 0.411423 0.0443184 0 3 3 
5916 6 0.135636 0.432311 0.034388 3 0 4 
7260 5 0.613541 0.432603 0.0464349 -1 -1 2 
8545 5 0.0790721 0.436884 0.0619303 3 6 -1 
6120 6 0.333347 0.497199 0.0746267 2 0 -6 
6904 6 0.0788151 0.498928 0.0689774 -2 -1 3 
7995 6 0.104128 0.468786 0.0526768 -5 0 2 
5225 5 0.894227 0.491615 0.0591652 -2 3 1 
8016 5 0.0825831 0.494191 0.0351147 6 6 -6 
6775 5 0.466872 0.527453 0.0718737 0 1 -2 
5549 6 0.309881 0.498035 0.0978917 1 -5 -1 
6633 5 0.0544772 0.533028 0.067055 -1 -3 -5 
8707 5 0.474198 0.630034 0.0911356 -2 -3 -1 
8415 5 0.0951985 0.619422 0.0866476 -1 -2 5 
6060 6 0.594537 0.615589 0.038962 5 -4 1 
4999 4 0.66694 0.63971 0.0619681 0 0 0 
6500 6 0.534253 0.615153 0.0602371 -4 1 6 
8460 5 0.626377 0.65264 0.0610636 0 -1 0 
4976 1 0.628078 0.646813 0.0784951 0 0 0 
4983 1 0.629198 0.645822 0.0593722 0 0 0 
4981 1 0.632268 0.643096 0.0652774 0 0 0 
4980 1 0.626255 0.645832 0.0652304 0 0 0 
4978 1 0.62431 0.645516 0.0724638 0 0 0 
4979 1 0.63012 0.647686 0.0703198 0 0 0 
4977 1 0.629209 0.641934 0.0748573 0 0 0 
4975 1 0.622671 0.643404 0.078954 0 0 0 
4985 1 0.630876 0.64777 0.0526826 0 0 0 
4987 1 0.638229 0.647906 0.0498163 0 0 0 
4989 1 0.645379 0.648298 0.0509372 0 0 0 
4990 1 0.648357 0.651758 0.0463492 0 0 0 
4992 1 0.655173 0.652835 0.0464418 0 0 0 
4991 1 0.651601 0.652347 0.0519285 0 0 0 
4995 1 0.658494 0.649153 0.0532637 0 0 0 
4993 1 0.65849 0.656347 0.0504323 0 0 0 
4997 1 0.661242 0.649648 0.0653018 0 0 0 
4998 4 0.664539 0.644009 0.066227 0 0 0 
4996 4 0.658696 0.649788 0.0594453 0 0 0 
6848 6 0.116011 0.677321 0.0653831 1 0 -3 
8632 6 0.180358 0.621572 0.0444028 1 -4 -1 
6064 6 0.154239 0.655615 0.0393961 0 1 0 
7339 6 0.200394 0.647807 0.0912529 -4 -5 1 
8880 6 0.344846 0.657817 0.0510734 9 1 0 
8597 6 0.913298 0.686012 0.0921428 -7 0 -2 
7269 6 0.187633 0.69744 0.00669997 -2 4 1 
6841 6 0.220579 0.712427 0.0596589 1 -2 -2 
6240 6 0.679756 0.685841 0.0352416 -6 2 1 
6963 6 0.414816 0.686906 0.0582258 6 1 3 
8438 5 0.485218 0.649066 0.043286 -3 -2 1 
4274 1 0.475271 0.727119 0.0784227 0 0 0 
4276 1 0.479269 0.721584 0.0756902 0 0 0 
4275 1 0.475143 0.725259 0.0720569 0 0 0 
4277 1 0.481677 0.727379 0.0754069 0 0 0 
4278 1 0.486419 0.723265 0.0756381 0 0 0 
4279 1 0.485975 0.72579 0.069886 0 0 0 
4280 1 0.491022 0.728531 0.0728836 0 0 0 
5925 5 0.661195 0.72716 0.0684355 -4 3 -4 
8930 6 0.917346 0.744444 0.0880823 -2 3 4 
5711 5 0.353035 0.744193 0.075172 -7 -1 -4 
7375 6 0.456515 0.78321 0.0365649 4 3 4 
7521 5 0.559546 0.713853 0.0871339 0 0 -2 
1958 1 0.601254 0.760382 0.0512462 0 0 0 
1962 4 0.58817 0.7649 0.0599922 0 0 0 
1963 1 0.585359 0.768194 0.0645197 0 0 0 
1966 1 0.584326 0.778127 0.071411 0 0 0 
8336 6 0.948665 0.803618 0.0385194 3 2 1 
7836 6 0.51971 0.74233 0.0728067 -1 -2 -2 
1974 1 0.585731 0.791798 0.0407956 0 0 0 
1973 1 0.587156 0.792657 0.0476729 0 0 0 
1972 4 0.587372 0.790335 0.0545527 0 0 0 
1975 1 0.591671 0.790382 0.04256 0 0 0 
1971 1 0.587311 0.788273 0.0606111 0 0 0 
1964 1 0.586124 0.770899 0.0700086 0 0 0 
1976 4 0.597885 0.792025 0.0429938 0 0 0 
1956 1 0.604358 0.765478 0.0626229 0 0 0 
1957 4 0.603546 0.764046 0.0561653 0 0 0 
1955 4 0.60147 0.769155 0.0666452 0 0 0 
1969 1 0.583701 0.782119 0.0632833 0 0 0 
1968 1 0.586218 0.784965 0.0683949 0 0 0 
1967 1 0.588814 0.779114 0.0665582 0 0 0 
1965 1 0.582709 0.774586 0.0667283 0 0 0 
1977 4 0.601098 0.797144 0.0460945 0 0 0 
1978 4 0.604242 0.79861 0.0518769 0 0 0 
1980 1 0.607531 0.793443 0.0618815 0 0 0 
1981 4 0.613569 0.795991 0.0643442 0 0 0 
1954 4 0.59906 0.769286 0.0725958 0 0 0 
1982 4 0.620195 0.795911 0.0660599 0 0 0 
1870 4 0.632605 0.778338 0.0654834 0 0 0 
1879 4 0.616092 0.791609 0.042699 0 0 0 
1878 4 0.619586 0.793776 0.0479595 0 0 0 
1877 4 0.619975 0.794267 0.0545875 0 0 0 
1876 4 0.624674 0.791678 0.0575676 0 0 0 
1875 1 0.628821 0.792027 0.0621404 0 0 0 
5291 5 0.0107654 0.811376 0.0184562 -3 1 2 
7726 6 0.471905 0.818679 0.0438934 2 -1 4 
1926 1 0.585939 0.802829 0.0678635 0 0 0 
1979 1 0.604156 0.794784 0.0571164 0 0 0 
1925 4 0.592388 0.804299 0.0688279 0 0 0 
1924 4 0.596112 0.799252 0.0705092 0 0 0 
1923 4 0.601469 0.801003 0.0672922 0 0 0 
6034 6 0.645624 0.790962 0.043963 1 -3 2 
6898 6 0.925935 0.807042 0.0767052 0 -4 -3 
7488 6 0.0671155 0.848401 0.0780948 3 5 -2 
7986 5 0.435665 0.78286 0.0548454 1 -2 -3 
1905 1 0.586692 0.824441 0.0494159 0 0 0 
1906 4 0.585257 0.82322 0.0553904 0 0 0 
1907 4 0.585058 0.823234 0.0614144 0 0 0 
1910 1 0.585959 0.823296 0.0730733 0 0 0 
1908 1 0.58164 0.823939 0.0670577 0 0 0 
1909 1 0.579424 0.823627 0.0729298 0 0 0 
6970 5 0.512497 0.86367 0.0690893 1 2 2 
6537 6 0.51296 0.861926 0.0548629 4 1 -6 
7417 6 0.147595 0.910872 0.063132 4 -3 -7 
8802 6 0.566518 0.97706 0.0206156 1 -2 3 
7387 5 0.340161 0.970937 0.0481827 -1 -1 1 
7913 6 0.973379 0.976874 0.0420379 -4 2 2 
8651 5 0.284208 0.987696 0.0740482 -9 -1 -1 
8527 5 0.408293 0.987154 0.0925636 -1 2 2 
8523 6 0.543066 0.965449 0.0259748 -4 -2 -3 
5572 6 0.638886 0.0453523 0.0980864 3 -3 -1 
7154 5 0.629989 0.037341 0.064524 2 5 -1 
5240 5 0.235451 0.0323926 0.0934919 -1 0 1 
8613 5 0.275975 0.0469033 0.099154 2 4 -1 
8315 5 0.358929 0.0389932 0.0772483 1 -6 -2 
6649 6 0.531106 0.0757098 0.0441245 -1 -2 0 
7772 5 0.192963 0.0348787 0.0912036 -4 0 -1 
7570 6 0.0329267 0.0931617 0.0776395 3 5 1 
7140 6 0.321187 0.0661866 0.0905973 2 -1 2 
8167 6 0.850851 0.0648158 0.0767298 -2 0 4 
6578 6 0.216725 0.0790783 0.0915483 3 2 3 
7820 6 0.905917 0.128294 0.0980416 -1 -6 4 
6277 5 0.0281427 0.0807308 0.0803924 2 -1 5 
6790 5 0.7406 0.103611 0.107461 -9 1 -3 
8629 5 0.129699 0.148617 0.0947514 -3 2 3 
8753 5 0.140108 0.198514 0.0906143 0 -2 1 
6480 6 0.232843 0.187316 0.0832581 0 -2 2 
8085 6 0.21818 0.165339 0.0597198 -5 -4 1 
8009 5 0.935658 0.177556 0.0715959 -2 0 -5 
6377 6 0.968279 0.188097 0.087963 1 1 -3 
7973 6 0.0354453 0.19665 0.0619421 6 -2 -5 
6831 5 0.476057 0.181546 0.0807695 -1 -5 5 
7479 6 0.262609 0.207734 0.0607871 0 3 -2 
8324 5 0.640609 0.209586 0.0643643 -2 3 -1 
8371 5 0.870376 0.2143 0.0637019 -3 -4 6 
6207 6 0.871321 0.182215 0.0936415 -1 3 -3 
5610 6 0.996264 0.260945 0.0982839 3 -4 1 
7706 6 0.0456897 0.295354 0.0708042 -4 -1 4 
8786 6 0.782663 0.281639 0.0628849 -1 -2 0 
6745 5 0.0362443 0.303124 0.0748648 -3 -3 0 
6449 5 0.0807769 0.305239 0.0703447 6 1 3 
5353 5 0.150094 0.295825 0.0809447 -1 -1 -2 
5533 6 0.427983 0.281093 0.108851 -6 0 -5 
5602 5 0.548656 0.322441 0.0636623 -10 -1 -3 
5167 5 0.723694 0.328339 0.113216 1 2 5 
6824 6 0.296788 0.334749 0.0721921 0 0 3 
6114 5 0.53996 0.33739 0.101296 0 7 7 
6161 5 0.982926 0.339606 0.102972 2 1 4 
8759 6 0.86215 0.324835 0.102624 0 -1 5 
8699 5 0.0683779 0.361744 0.064943 4 5 4 
8504 6 0.16248 0.36279 0.0273677 2 1 1 
5683 5 0.63652 0.385281 0.0692775 4 1 -5 
7502 5 0.717518 0.362251 0.0771216 1 0 -3 
6718 6 0.351469 0.422529 0.0813588 1 -2 -1 
8037 6 0.373944 0.387122 0.0901757 -6 8 3 
7045 6 0.587909 0.333314 0.0502947 3 4 3 
7743 6 0.877548 0.407889 0.0849431 0 -2 6 
6507 5 0.920739 0.394839 0.0660435 -3 1 -2 
8637 5 0.0853503 0.43331 0.0522926 -5 -5 1 
5926 6 0.434184 0.410477 0.0684312 -5 1 2 
8867 6 0.535713 0.40206 0.0646494 2 2 0 
8471 6 0.844841 0.444236 0.0695388 1 -6 6 
5797 5 0.555115 0.487589 0.0669344 3 2 0 
8031 6 0.644554 0.463697 0.0717173 3 0 -1 
6927 5 0.799329 0.385899 0.081445 1 1 0 
8440 6 0.10054 0.478451 0.0707673 1 -6 -1 
8670 6 0.226554 0.498166 0.0863626 -2 0 3 
7251 5 0.450442 0.494184 0.101529 -1 1 1 
7791 6 0.907062 0.472807 0.0915223 -1 -2 1 
5060 5 0.222479 0.519762 0.0792521 -5 2 -1 
6281 5 0.486041 0.518505 0.0762095 5 0 2 
7055 5 0.671869 0.519406 0.0917373 -1 0 -4 
6856 6 0.909583 0.480789 0.103715 1 -1 1 
6791 5 0.29485 0.568088 0.109993 -7 3 4 
7844 6 0.684146 0.546567 0.110913 2 3 0 
6144 6 0.760808 0.523395 0.0985648 -1 2 -1 
6780 6 0.806951 0.612152 0.0546259 2 -1 0 
6502 6 0.929936 0.558682 0.0710671 -4 0 -1 
5677 6 0.0306405 0.565448 0.0843288 1 1 -1 
7891 5 0.34263 0.572241 0.0596846 2 -4 2 
5390 5 0.977655 0.549608 0.0799281 -1 -4 0 
8787 5 0.938648 0.610417 0.0831849 0 -6 -5 
4424 1 0.543619 0.6217 0.100912 0 0 0 
4425 1 0.548309 0.623134 0.104732 0 0 0 
5000 4 0.668935 0.633763 0.0604488 0 0 0 
5446 6 0.384839 0.635444 0.139827 -2 -6 4 
4422 1 0.536749 0.625681 0.0996581 0 0 0 
4421 1 0.535906 0.63199 0.100947 0 0 0 
4465 1 0.582899 0.660364 0.0756902 0 0 0 
4464 1 0.583351 0.661839 0.0817378 0 0 0 
4463 1 0.589259 0.662425 0.078708 0 0 0 
4462 1 0.590296 0.658473 0.0834148 0 0 0 
4974 1 0.622627 0.648259 0.0827966 0 0 0 
6442 6 0.536692 0.666529 0.0542273 2 0 0 
4470 1 0.587344 0.673694 0.0678613 0 0 0 
4467 1 0.588079 0.662553 0.0718696 0 0 0 
4468 1 0.589696 0.668697 0.072565 0 0 0 
4469 1 0.584409 0.668459 0.0692645 0 0 0 
4471 1 0.582213 0.675543 0.0716233 0 0 0 
4466 1 0.584098 0.666591 0.0763188 0 0 0 
4472 1 0.58737 0.6751 0.0751136 0 0 0 
4971 1 0.620452 0.657092 0.0750107 0 0 0 
4973 1 0.62202 0.650606 0.0767405 0 0 0 
4972 1 0.622021 0.655792 0.080862 0 0 0 
4966 1 0.627845 0.658978 0.0843953 0 0 0 
4968 1 0.627551 0.665761 0.0813332 0 0 0 
4970 1 0.620751 0.662812 0.0785565 0 0 0 
4967 1 0.631813 0.661087 0.0801186 0 0 0 
4969 1 0.626347 0.662002 0.0756401 0 0 0 
4965 1 0.632193 0.663099 0.0871583 0 0 0 
7517 5 0.677856 0.656132 0.0767357 0 0 5 
4855 1 0.520202 0.711609 0.102213 0 0 0 
4853 1 0.523654 0.711416 0.0955309 0 0 0 
4854 1 0.520603 0.706479 0.0980319 0 0 0 
4851 1 0.523932 0.706158 0.0901259 0 0 0 
4850 1 0.529471 0.709489 0.0891056 0 0 0 
4849 1 0.528587 0.704781 0.0850426 0 0 0 
4473 1 0.586137 0.681306 0.0757018 0 0 0 
4479 1 0.586163 0.687774 0.0888242 0 0 0 
4480 1 0.587512 0.687335 0.0948039 0 0 0 
4474 1 0.587579 0.678228 0.0813774 0 0 0 
4475 1 0.585935 0.684148 0.0830864 0 0 0 
4476 1 0.592457 0.683535 0.0829259 0 0 0 
4477 1 0.590002 0.681087 0.0883036 0 0 0 
2493 1 0.455051 0.709136 0.0903376 0 0 0 
2488 1 0.44179 0.715807 0.0963169 0 0 0 
2490 1 0.449078 0.713086 0.0957372 0 0 0 
5988 5 0.412186 0.689859 0.0792136 3 2 0 
4269 1 0.469238 0.727596 0.0852036 0 0 0 
4271 1 0.466621 0.720805 0.0817691 0 0 0 
4273 1 0.47374 0.72099 0.0783777 0 0 0 
4267 1 0.46873 0.722056 0.0898538 0 0 0 
4287 1 0.498966 0.723314 0.0881688 0 0 0 
4281 1 0.49369 0.72536 0.0683555 0 0 0 
4283 1 0.495431 0.721279 0.0748204 0 0 0 
4282 1 0.498318 0.726592 0.0726376 0 0 0 
4286 1 0.5027 0.726142 0.0835377 0 0 0 
4284 1 0.500657 0.722239 0.0777336 0 0 0 
4285 1 0.496808 0.726056 0.0811647 0 0 0 
4846 1 0.533966 0.71138 0.0791843 0 0 0 
4845 1 0.539379 0.70908 0.0768228 0 0 0 
4852 1 0.527456 0.706102 0.0952874 0 0 0 
4847 1 0.533933 0.704661 0.0792205 0 0 0 
4844 1 0.540075 0.714003 0.0818452 0 0 0 
4848 1 0.534791 0.706872 0.0855494 0 0 0 
4843 1 0.545711 0.712455 0.0791331 0 0 0 
4842 1 0.545983 0.71878 0.0799381 0 0 0 
4838 1 0.559016 0.717407 0.076104 0 0 0 
4837 1 0.558842 0.712179 0.0798104 0 0 0 
4839 1 0.557353 0.719045 0.0819143 0 0 0 
4840 1 0.553019 0.720332 0.0777677 0 0 0 
4841 1 0.551195 0.716504 0.0825745 0 0 0 
8033 5 0.540105 0.719098 0.0912507 -1 0 3 
4836 1 0.563884 0.715695 0.0817895 0 0 0 
6715 5 0.592437 0.691588 0.083087 -1 -2 2 
4497 1 0.606736 0.72794 0.0815654 0 0 0 
4494 1 0.598575 0.721556 0.0812199 0 0 0 
4270 1 0.463412 0.726649 0.0822734 0 0 0 
4268 1 0.464812 0.727406 0.089794 0 0 0 
4266 1 0.46903 0.724611 0.0956721 0 0 0 
4272 1 0.46875 0.724789 0.0770064 0 0 0 
4264 1 0.473927 0.729821 0.0971408 0 0 0 
4265 1 0.474613 0.726091 0.0918876 0 0 0 
4496 1 0.604947 0.723047 0.0852395 0 0 0 
4503 1 0.613625 0.743875 0.0917268 0 0 0 
4499 1 0.607868 0.734304 0.0833415 0 0 0 
4498 1 0.608672 0.728854 0.0876281 0 0 0 
4500 1 0.609527 0.7362 0.0895469 0 0 0 
4501 1 0.611661 0.740683 0.0855377 0 0 0 
4502 1 0.616483 0.738263 0.0894917 0 0 0 
4505 1 0.616807 0.749871 0.0890008 0 0 0 
4504 1 0.619978 0.744766 0.0914478 0 0 0 
4495 1 0.604389 0.721795 0.0790275 0 0 0 
4507 1 0.611688 0.753492 0.0941158 0 0 0 
1835 1 0.656753 0.740241 0.0747224 0 0 0 
1832 1 0.656668 0.734248 0.0788312 0 0 0 
1834 1 0.662577 0.737766 0.0751669 0 0 0 
1838 1 0.656098 0.747041 0.0664519 0 0 0 
1837 1 0.656559 0.747299 0.0731948 0 0 0 
1833 1 0.659371 0.739557 0.0803267 0 0 0 
1836 1 0.660967 0.743528 0.0706434 0 0 0 
6601 5 0.827136 0.738467 0.0852954 4 1 3 
2112 1 0.569218 0.749834 0.0941081 0 0 0 
2103 1 0.581449 0.753392 0.0856651 0 0 0 
2101 1 0.585887 0.758984 0.0874783 0 0 0 
2111 1 0.56827 0.745892 0.0895183 0 0 0 
2109 1 0.571071 0.73988 0.0917745 0 0 0 
2113 1 0.567026 0.753341 0.0897769 0 0 0 
2102 1 0.586719 0.752932 0.0889413 0 0 0 
2100 1 0.590513 0.759174 0.0914915 0 0 0 
4506 1 0.616579 0.749721 0.0955814 0 0 0 
4508 1 0.612469 0.753519 0.100352 0 0 0 
2077 1 0.612483 0.760688 0.0844682 0 0 0 
2078 1 0.607118 0.763068 0.0876365 0 0 0 
2079 1 0.61177 0.761426 0.092274 0 0 0 
8531 5 0.602796 0.768726 0.090474 -4 0 2 
2074 1 0.618378 0.767713 0.0836636 0 0 0 
2076 1 0.611331 0.766754 0.0828781 0 0 0 
2075 1 0.616142 0.76358 0.0791034 0 0 0 
2073 1 0.621443 0.762114 0.0839765 0 0 0 
2072 1 0.622977 0.766552 0.0884894 0 0 0 
1855 1 0.633077 0.77405 0.08758 0 0 0 
1853 1 0.63679 0.767846 0.0840979 0 0 0 
6799 5 0.615397 0.768201 0.0908751 -3 -2 0 
1856 1 0.627413 0.772561 0.0905766 0 0 0 
1854 1 0.629935 0.769026 0.0846869 0 0 0 
1868 1 0.620738 0.777981 0.0698553 0 0 0 
1867 1 0.624279 0.772568 0.0684284 0 0 0 
1865 1 0.622083 0.770648 0.0743401 0 0 0 
5927 5 0.620807 0.77464 0.0862754 1 -1 2 
1852 1 0.63376 0.762717 0.0823109 0 0 0 
1840 1 0.653104 0.753925 0.0648949 0 0 0 
1841 1 0.654716 0.759077 0.0680691 0 0 0 
1844 1 0.656064 0.757352 0.0748107 0 0 0 
1843 1 0.650809 0.760999 0.075176 0 0 0 
1842 1 0.649647 0.756255 0.0710016 0 0 0 
1846 1 0.654758 0.759002 0.0818105 0 0 0 
1845 1 0.651474 0.754241 0.0780683 0 0 0 
1847 1 0.651149 0.755642 0.0856742 0 0 0 
1848 1 0.647187 0.759905 0.0829184 0 0 0 
1849 1 0.643796 0.757035 0.0878534 0 0 0 
1851 1 0.637579 0.761614 0.0876786 0 0 0 
1850 1 0.640072 0.758835 0.0825799 0 0 0 
1839 1 0.658385 0.752444 0.0688988 0 0 0 
5745 6 0.425705 0.790317 0.0626215 -2 3 2 
1935 1 0.56256 0.787296 0.0970622 0 0 0 
1934 1 0.563973 0.792891 0.0991357 0 0 0 
1933 4 0.562487 0.798868 0.0974416 0 0 0 
1937 1 0.569275 0.786307 0.0940068 0 0 0 
1936 1 0.564813 0.790682 0.0920863 0 0 0 
1939 1 0.576131 0.787454 0.0977405 0 0 0 
1941 1 0.578216 0.789429 0.0915142 0 0 0 
1943 1 0.584844 0.78622 0.0888014 0 0 0 
1953 4 0.593474 0.767952 0.0759648 0 0 0 
1952 4 0.59808 0.771002 0.0800769 0 0 0 
1970 1 0.581288 0.787613 0.0638792 0 0 0 
1951 4 0.603116 0.773018 0.0840451 0 0 0 
1862 1 0.611794 0.784457 0.0814185 0 0 0 
1861 1 0.609346 0.789636 0.0843675 0 0 0 
1860 1 0.613012 0.78573 0.0883156 0 0 0 
6249 5 0.598862 0.779331 0.0835431 3 -2 0 
6516 5 0.608083 0.778206 0.0846409 -4 2 3 
1950 2 0.603116 0.776551 0.0895613 0 0 0 
6169 5 0.609625 0.77181 0.0883004 -2 -3 3 
1948 4 0.600365 0.787199 0.0956392 0 0 0 
1863 4 0.614197 0.778768 0.0787246 0 0 0 
1949 4 0.602923 0.782816 0.0911208 0 0 0 
1869 1 0.626523 0.779217 0.0678574 0 0 0 
1873 1 0.634733 0.78836 0.0640354 0 0 0 
1871 1 0.632833 0.78372 0.0691345 0 0 0 
1874 1 0.6335 0.794558 0.0657986 0 0 0 
2032 1 0.622071 0.794942 0.0906323 0 0 0 
1859 4 0.616315 0.780575 0.087436 0 0 0 
1866 1 0.617976 0.770636 0.0695993 0 0 0 
1864 1 0.616688 0.773491 0.0762154 0 0 0 
1984 4 0.629051 0.791114 0.0744028 0 0 0 
1985 4 0.629463 0.785035 0.0768269 0 0 0 
1983 4 0.625033 0.795391 0.0708037 0 0 0 
7079 6 0.616218 0.804537 0.0873492 7 2 2 
1986 1 0.629766 0.780745 0.0815723 0 0 0 
1872 1 0.636122 0.789126 0.0704385 0 0 0 
5067 6 0.0864128 0.822062 0.0976268 7 3 1 
5616 5 0.353833 0.756496 0.067904 -3 3 -5 
8478 6 0.432398 0.805276 0.0586163 0 0 4 
1931 1 0.56646 0.809101 0.0915385 0 0 0 
1932 1 0.564025 0.804583 0.0953854 0 0 0 
1927 4 0.581816 0.803946 0.0738081 0 0 0 
1929 4 0.571783 0.806985 0.0811334 0 0 0 
1928 4 0.575951 0.806188 0.0759487 0 0 0 
1930 4 0.567719 0.80899 0.085246 0 0 0 
8869 5 0.565839 0.781841 0.0891917 -7 -3 2 
1942 1 0.584886 0.790882 0.0929814 0 0 0 
1921 4 0.612559 0.803507 0.0668977 0 0 0 
1920 4 0.617832 0.80557 0.0706124 0 0 0 
1922 1 0.607474 0.800686 0.0645521 0 0 0 
1947 1 0.595349 0.784369 0.0982586 0 0 0 
1919 1 0.619307 0.810006 0.0750484 0 0 0 
1944 1 0.584253 0.783809 0.0946541 0 0 0 
1916 1 0.613172 0.813939 0.0779282 0 0 0 
1917 1 0.616196 0.816717 0.0731799 0 0 0 
1918 1 0.620141 0.815352 0.0783895 0 0 0 
1915 4 0.609968 0.808877 0.0799756 0 0 0 
2031 1 0.619567 0.796492 0.09618 0 0 0 
2029 1 0.618441 0.803305 0.09911 0 0 0 
2030 1 0.621228 0.801859 0.0936406 0 0 0 
2028 1 0.621263 0.808863 0.0975845 0 0 0 
2153 1 0.574437 0.822357 0.0849009 0 0 0 
2155 1 0.568237 0.826722 0.0863392 0 0 0 
2154 1 0.574902 0.828574 0.0866028 0 0 0 
2156 1 0.568466 0.83309 0.0859543 0 0 0 
1911 4 0.591544 0.82023 0.0750041 0 0 0 
1914 1 0.604025 0.808084 0.0787507 0 0 0 
1912 1 0.594436 0.814191 0.0746037 0 0 0 
1913 4 0.597745 0.809551 0.0772091 0 0 0 
8203 6 0.722708 0.898578 0.0450983 2 2 -2 
5646 5 0.831353 0.884126 0.0991621 0 2 0 
5381 5 0.151977 0.934159 0.0581371 -2 0 0 
8574 6 0.434317 0.919137 0.0925888 0 0 -1 
7800 6 0.142049 0.987481 0.102841 -1 2 2 
5356 6 0.483353 0.940853 0.106891 0 0 1 
8883 5 0.0716904 0.951133 0.0950227 1 0 -6 
7129 6 0.492457 0.984002 0.0665817 -9 1 -1 
7805 5 0.985565 0.0212509 0.0636594 -1 -2 4 
8833 5 0.161853 0.996805 0.123971 2 -1 0 
8131 6 0.343267 0.0299952 0.125075 -3 2 -4 
5319 5 0.356054 0.013016 0.1027 0 4 8 
7497 6 0.339659 0.0867198 0.0745626 -2 0 -2 
8004 6 0.03278 0.116031 0.101781 -1 0 -1 
7707 6 0.276348 0.148113 0.109249 1 -3 2 
6888 6 0.306061 0.115772 0.120913 -3 3 2 
7557 6 0.430215 0.129451 0.137522 -4 0 1 
8917 6 0.824964 0.129971 0.0655653 -1 -5 -4 
8511 5 0.667674 0.137608 0.109172 0 3 0 
6855 5 0.217531 0.147427 0.0769698 3 2 -5 
6468 5 0.791913 0.197734 0.125064 3 0 3 
7620 6 0.923445 0.12599 0.0887408 1 -2 -2 
8987 6 0.123298 0.159423 0.105417 -1 -5 1 
8982 5 0.964217 0.182601 0.0847883 -3 -1 3 
6999 5 0.508201 0.219781 0.0745398 2 1 -2 
8159 5 0.291029 0.25293 0.107377 1 -4 3 
7755 5 0.495094 0.280931 0.120177 0 3 0 
7297 5 0.644235 0.316685 0.128661 2 0 0 
6009 5 0.186881 0.290765 0.111537 -1 -1 -6 
6053 6 0.733735 0.316613 0.108747 -5 2 -3 
8844 6 0.700813 0.324148 0.109904 0 -3 4 
8678 5 0.116375 0.383233 0.0991731 0 0 -3 
5096 5 0.279168 0.396558 0.126506 1 -7 -1 
6671 5 0.394412 0.362567 0.114421 2 5 3 
8815 6 0.839305 0.414767 0.112489 -1 2 7 
8984 6 0.864336 0.378856 0.082934 4 -5 2 
6551 6 0.238562 0.406298 0.121063 0 -2 2 
6820 6 0.291942 0.451363 0.13157 -1 -1 0 
8061 6 0.666322 0.452573 0.0979503 4 -3 -2 
7541 6 0.916981 0.474723 0.118232 -1 -4 0 
8587 6 0.0303998 0.483163 0.107316 3 2 3 
6403 6 0.0930761 0.452311 0.0874137 3 3 -5 
6483 5 0.211349 0.456594 0.0947915 0 -1 2 
5176 6 0.152209 0.535725 0.103866 -4 1 0 
5048 6 0.719249 0.485978 0.116107 1 2 1 
8307 5 0.0180808 0.540617 0.0952549 -3 0 0 
6345 6 0.0739624 0.522466 0.0886015 -3 -2 6 
6184 6 0.352388 0.532525 0.0914793 1 0 1 
7063 5 0.689574 0.532643 0.0699036 0 -1 -1 
5128 5 0.178302 0.585933 0.101012 2 -2 -2 
6419 6 0.366731 0.566417 0.0588728 3 1 0 
5107 5 0.516837 0.577406 0.0666121 3 1 2 
5705 5 0.741203 0.557136 0.0698443 -3 1 -3 
6666 6 0.00605156 0.620408 0.0647126 0 3 -3 
5465 5 0.118874 0.644261 0.149272 -2 -3 -1 
4426 1 0.550707 0.622115 0.0985868 0 0 0 
4427 1 0.554924 0.625703 0.102504 0 0 0 