ITEM: TIMESTEP
20000000
ITEM: NUMBER OF ATOMS
9000
ITEM: BOX BOUNDS pp pp pp
-75 75
-75 75
-75 75
ITEM: ATOMS id type xs ys zs ix iy iz 
5874 6 0.26761 0.0307408 0.0178549 -4 1 3 
7771 5 0.341676 0.00622928 0.0251288 3 -2 -2 
5177 6 0.553325 0.027388 0.0193525 0 0 0 
6989 6 0.832387 0.0333847 0.96359 -3 0 1 
8916 5 0.939712 0.97502 0.0169974 2 1 3 
8437 6 0.115679 0.0199519 0.995078 -3 1 -1 
5982 6 0.364067 0.0439038 0.985601 -1 -2 -2 
8279 5 0.64459 0.0435955 0.0459018 2 -2 3 
5370 5 0.66462 0.0703206 0.0305475 -5 3 -2 
7177 6 0.866204 0.0750437 0.0168222 3 -1 0 
7433 5 0.254455 0.100021 0.987651 5 3 2 
8819 6 0.560335 0.0411615 0.981358 -1 0 -2 
5312 6 0.495085 0.0658754 0.988693 2 4 -1 
7291 5 0.567806 0.088801 0.994357 -1 -4 5 
5222 5 0.0194342 0.11376 0.0373871 2 7 0 
5422 6 0.127357 0.159718 0.0648866 0 -5 -1 
7514 5 0.395555 0.141511 0.0681005 -2 2 3 
8097 6 0.471102 0.131201 0.998583 -4 -3 -3 
6651 5 0.671514 0.169138 0.0112482 1 -6 -4 
8840 5 0.0704028 0.185848 0.996865 -2 -2 -3 
6321 6 0.799953 0.194747 0.00414345 -1 1 -2 
6330 6 0.862809 0.146071 0.0114761 -5 -1 -1 
5584 5 0.965076 0.202665 0.967647 -4 3 0 
7739 6 0.152457 0.288406 0.027264 3 4 -10 
6188 5 0.393029 0.199302 0.050424 -7 -1 -1 
6733 6 0.96497 0.231239 0.029902 0 1 -1 
7317 6 0.781763 0.251923 0.0126143 -2 -6 -1 
5556 6 0.843731 0.213305 0.00211999 -1 2 3 
6184 5 0.95558 0.295178 0.997801 1 -4 -2 
7976 5 0.862989 0.258609 0.983835 4 -3 -3 
7217 6 0.33909 0.313963 0.98135 4 -2 -2 
8575 6 0.78292 0.310574 0.00297916 2 3 0 
8724 6 0.874225 0.307731 0.992169 3 -1 -1 
6206 6 0.994367 0.343143 0.00118588 1 -1 -3 
6536 6 0.256868 0.291184 0.0034079 1 -5 -1 
5575 5 0.605168 0.325278 0.996335 -5 2 -1 
5072 5 0.928792 0.309443 0.0234307 2 -3 4 
7704 6 0.145356 0.376093 0.994566 1 -4 -5 
8390 5 0.4605 0.359841 0.0121646 0 0 -1 
6852 5 0.553499 0.330226 0.000605411 -4 5 4 
6839 6 0.536081 0.339068 0.0361337 4 1 5 
6894 5 0.597819 0.313227 0.00594902 3 -2 -1 
8111 6 0.847063 0.298565 0.0256715 3 3 2 
5308 6 0.100857 0.359262 0.0146187 2 -5 -2 
6662 6 0.549117 0.40212 0.990946 2 3 5 
5364 5 0.402403 0.405563 0.0269225 -5 -1 -1 
5302 6 0.143194 0.436662 0.0498669 0 2 -1 
8296 5 0.824224 0.489354 0.990957 -4 -2 0 
5668 6 0.125177 0.478596 0.0172956 0 1 -1 
8697 5 0.541766 0.501553 0.00360341 -3 1 5 
5716 5 0.33573 0.506112 0.0204527 -1 -3 1 
7697 6 0.938014 0.520855 0.989492 -2 0 -1 
6092 6 0.951737 0.510122 0.0159438 -5 1 4 
5648 5 0.858316 0.532989 0.0406117 0 1 2 
8074 6 0.101588 0.550287 0.0480077 -1 -1 -2 
8330 6 0.195813 0.557829 0.0013981 4 4 -1 
5456 6 0.336092 0.547183 0.0327736 -5 2 -6 
5178 5 0.398556 0.592306 0.00701877 4 -3 1 
7913 6 0.104365 0.65031 0.0186751 0 -3 1 
7334 5 0.494316 0.639349 0.0253212 -2 -1 -4 
7806 6 0.827405 0.61303 0.0215115 -4 -2 0 
8375 6 0.301445 0.683397 0.987948 0 0 -4 
7975 5 0.34313 0.667135 0.0413045 -3 3 -1 
8505 6 0.544528 0.627499 0.0129318 1 -2 0 
7572 5 0.150979 0.693909 0.0439163 1 0 4 
7173 6 0.738817 0.68213 0.0478456 -2 -2 1 
6142 5 0.145105 0.716641 0.0070148 0 2 2 
8796 5 0.147126 0.695566 0.987873 2 4 2 
8379 6 0.332988 0.697004 0.99001 2 0 6 
6844 6 0.509205 0.744512 0.987358 7 -5 2 
6002 5 0.568149 0.731469 0.00907546 -1 2 6 
7870 5 0.113101 0.764056 0.0545316 1 -2 3 
6323 6 0.325267 0.723314 0.04638 -3 -2 0 
7287 5 0.114779 0.764716 0.0153592 -1 1 -1 
5490 6 0.368798 0.799163 0.993708 3 4 -4 
8991 5 0.470682 0.789933 0.997482 1 -6 1 
6265 6 0.563848 0.768008 0.0370935 -3 -3 -4 
5542 5 0.697559 0.785852 0.0686272 -2 -2 -2 
6623 6 0.884474 0.834703 0.959473 1 -3 -1 
5876 5 0.123674 0.821173 0.0224559 2 0 0 
8036 6 0.927092 0.83108 7.91481e-05 0 -2 6 
5121 6 0.103061 0.821934 0.022617 5 4 -1 
7434 5 0.240612 0.850568 0.0294015 -5 1 5 
8608 6 0.0313809 0.861146 0.982601 3 -1 0 
7008 6 0.593328 0.884708 0.0250198 1 1 0 
5643 5 0.31572 0.885411 0.981587 0 0 1 
5851 6 0.440899 0.880405 0.984192 -4 0 -1 
8864 6 0.0969179 0.923108 0.0196248 -6 -1 -3 
7653 5 0.336927 0.874458 0.982396 -2 -3 -3 
8765 6 0.592748 0.869902 0.0292236 -4 -2 -5 
6404 5 0.919354 0.892275 0.00799272 2 2 -2 
8775 5 0.96314 0.909474 0.00693572 -1 -3 0 
7900 5 0.0770066 0.937619 0.993534 -3 1 0 
5630 5 0.289499 0.933828 0.0117171 -2 0 5 
5150 6 0.443062 0.939522 0.98538 3 1 6 
6360 5 0.475153 0.937887 0.978752 -4 2 0 
6247 5 0.478438 0.950966 0.0250054 5 -2 1 
7719 6 0.902542 0.931859 0.0222582 -2 -2 -2 
5256 5 0.0244275 0.935552 0.00429135 -2 -2 4 
6597 6 0.0937037 0.966498 0.00799548 1 -2 1 
5365 6 0.717004 0.988121 0.982089 0 -5 4 
8611 6 0.857313 0.971359 0.00673732 -1 -2 1 
6618 5 0.506248 0.0299092 0.0496886 2 2 1 
5817 5 0.0728918 0.0418384 0.03963 5 5 6 
8915 5 0.688007 0.0511762 0.014586 1 -1 1 
8124 6 0.0299249 0.0806877 0.0274528 -5 1 7 
5708 5 0.0848544 0.0897184 0.0342454 1 0 -6 
5008 6 0.141322 0.0850028 0.0287967 -1 2 3 
7726 6 0.181468 0.060925 0.0101826 0 0 0 
7539 5 0.991806 0.100811 0.028624 1 1 0 
5305 6 0.0169032 0.143952 0.02618 -3 -2 0 
7010 6 0.703063 0.0923196 0.0674911 3 2 1 
6819 5 0.621014 0.127145 0.0349803 1 5 6 
7408 6 0.656107 0.142641 0.0129858 2 -2 -2 
8769 6 0.513623 0.122974 0.00111719 -4 -1 1 
8860 6 0.240297 0.193255 0.0726445 3 -3 -1 
5477 6 0.460258 0.192697 0.99278 0 -5 5 
8861 5 0.537198 0.206326 0.0656201 5 0 2 
5593 6 0.899304 0.169026 0.0490043 1 -2 3 
6224 6 0.696686 0.218976 0.0321896 3 3 1 
7887 5 0.112704 0.192927 0.0789095 1 -3 -2 
5140 5 0.438327 0.2121 0.00386147 1 4 6 
5032 5 0.440244 0.222011 0.0163237 -3 2 -2 
7151 6 0.252879 0.257416 0.0348442 0 4 5 
7405 5 0.756156 0.271755 0.0561285 3 4 -2 
8115 5 0.140466 0.296487 0.039589 3 2 5 
5637 5 0.920757 0.261177 0.0317964 1 1 1 
8492 6 0.272692 0.297715 0.0263104 1 1 1 
6237 6 0.772432 0.262169 0.0566854 3 1 4 
5597 5 0.0726031 0.310384 0.0348121 -4 4 4 
7345 6 0.115192 0.334083 0.992447 2 -1 6 
7392 5 0.257931 0.322234 0.0652569 2 2 -1 
6241 6 0.397228 0.350082 0.0463006 -2 1 1 
8555 6 0.314979 0.380695 0.0705926 -1 2 2 
7041 6 0.987873 0.354294 0.0630992 -5 2 -3 
5602 5 0.427065 0.437552 0.0344662 -1 -2 2 
5335 5 0.735361 0.376352 0.0449678 -4 0 0 
8962 5 0.0377353 0.388565 0.0583993 1 0 -3 
5688 5 0.155078 0.429116 0.0233423 2 -1 3 
5095 5 0.690749 0.451076 0.0209438 1 2 -3 
5188 6 0.424559 0.458968 0.0222604 5 5 2 
8042 5 0.553535 0.486578 0.0357126 1 -2 -2 
6439 6 0.996361 0.502626 0.0622091 -1 -2 0 
8477 5 0.34305 0.504176 0.0248136 -2 3 -2 
5700 5 0.355729 0.519307 0.0515131 1 6 1 
7526 6 0.423066 0.556222 0.0324878 -2 0 -2 
7250 5 0.310796 0.572479 0.0229055 2 -5 1 
8196 5 0.389224 0.572728 0.0396053 3 -3 0 
7532 5 0.0150821 0.609819 0.0122503 1 -3 -1 
7040 6 0.213457 0.59513 0.0425238 0 -1 0 
7011 5 0.394887 0.611583 0.0516754 1 0 -2 
5239 5 0.713483 0.576624 0.0362779 2 3 6 
7377 6 0.386019 0.615692 0.0444076 3 4 -3 
8206 6 0.431243 0.660902 0.00890951 0 -1 1 
7087 6 0.851251 0.626711 0.0562314 -1 -4 -6 
8356 5 0.0951177 0.687343 0.0272787 4 -8 4 
8171 6 0.365717 0.675953 0.0152723 3 1 -1 
8632 6 0.779992 0.697107 0.0405618 2 3 2 
8313 6 0.454423 0.761849 0.985506 0 2 -6 
7046 6 0.677321 0.737104 0.0585627 -3 2 4 
6727 5 0.777438 0.741626 0.998997 0 -5 1 
6409 5 0.848899 0.740827 0.0500492 0 1 1 
8995 5 0.170327 0.751309 0.0755063 3 -3 -4 
6808 6 0.831549 0.739139 0.030798 0 1 -2 
5245 6 0.0405602 0.857807 0.00541638 2 1 4 
6422 5 0.100902 0.769828 0.0670397 2 2 1 
7457 5 0.947361 0.803648 0.0155293 -1 -1 0 
8242 6 0.336105 0.840813 0.0483425 5 -1 3 
7263 6 0.535154 0.899729 0.0406327 5 -6 2 
5911 5 0.740053 0.903744 0.0239968 1 -3 1 
5267 6 0.0117338 0.843131 0.0256547 2 3 0 
6814 6 0.171568 0.853905 0.0596351 -3 4 -1 
6960 6 0.322052 0.837892 0.0136096 1 -2 -5 
8044 6 0.436938 0.872755 0.0404795 4 -3 -1 
8355 6 0.175167 0.895114 0.00888221 1 -3 2 
5576 6 0.26674 0.904257 0.0145177 -2 -1 1 
8275 6 0.37864 0.908185 0.0297507 -3 -3 -5 
7661 6 0.449189 0.953397 0.00355462 -1 3 -3 
8459 6 0.759608 0.919546 0.990893 -2 -3 2 
5781 5 0.849734 0.975438 0.0347164 -2 4 -3 
5023 5 0.105136 0.968584 0.0685794 -1 -2 1 
5682 5 0.729474 0.0043526 0.0609452 0 5 2 
5480 6 0.830613 0.977852 0.0157975 1 -4 2 
5997 6 0.161328 0.0102905 0.0243565 1 10 -3 
7744 5 0.216526 0.0418452 0.0500248 0 -2 1 
6426 5 0.216738 0.0784219 0.0794979 2 2 1 
7912 6 0.260073 0.0908741 0.0774086 1 0 -1 
7586 5 0.647045 0.0556919 0.0356243 0 -2 1 
8513 5 0.686452 0.0834987 0.0626069 1 -1 0 
7452 5 0.664629 0.109733 0.0394304 0 0 -5 
7820 6 0.0520933 0.139725 0.0112447 -7 3 3 
7134 5 0.574422 0.110941 0.0651136 2 4 -4 
7202 6 0.801632 0.168505 0.0622029 2 4 3 
6800 6 0.474306 0.163399 0.0187088 2 3 0 
6524 6 0.499729 0.184645 0.0691617 2 -1 2 
7048 6 0.861147 0.158158 0.0854865 -1 0 5 
6900 6 0.228778 0.180173 0.0800641 7 -2 1 
6240 5 0.299909 0.191243 0.0669039 -2 -2 -3 
5290 5 0.524534 0.213263 0.0580191 -3 -1 5 
5884 5 0.716892 0.19056 0.0668793 1 -4 0 
5745 6 0.77708 0.231258 0.0551475 -4 1 0 
8586 6 0.163886 0.265211 0.0482545 -3 -4 -3 
8259 5 0.322548 0.226762 0.0800703 2 1 2 
7386 5 0.756078 0.277035 0.0290286 0 1 2 
8118 6 0.995412 0.235375 0.0844719 -3 4 -3 
5928 6 0.736417 0.260626 0.0645227 -1 -1 0 
5110 6 0.966066 0.253265 0.0482805 3 3 0 
5706 5 0.0295521 0.282901 0.0489672 1 1 2 
8891 6 0.53211 0.303859 0.047543 1 0 -2 
8397 6 0.0317814 0.292193 0.0485912 -5 -4 -6 
5169 6 0.586375 0.31138 0.0704585 0 -1 -2 
5972 6 0.531918 0.348353 0.0238442 -6 0 6 
7258 5 0.731077 0.357591 0.0355885 -2 4 0 
5470 6 0.946338 0.429591 0.0684165 -3 -1 -2 
8876 6 0.24824 0.435613 0.0632222 1 1 -3 
5776 6 0.025604 0.451486 0.0677731 3 -1 4 
6169 6 0.38661 0.423036 0.045075 4 2 -4 
8969 6 0.70189 0.443019 0.0471041 -3 5 -1 
7501 5 0.580603 0.496196 0.0472558 0 -2 1 
5943 6 0.593802 0.465612 0.0624454 0 4 0 
5635 5 0.867124 0.542219 0.0535355 0 -1 -3 
8347 5 0.183694 0.504533 0.0636164 -2 -3 5 
5026 5 0.216567 0.58273 0.03035 -2 1 2 
6109 6 0.725012 0.590879 0.0699506 -7 -3 -2 
6826 6 0.451399 0.564687 0.0758921 2 0 -2 
5437 5 0.680451 0.61047 0.0363251 4 -2 3 
7268 6 0.779255 0.591138 0.0911866 1 -3 -3 
5275 6 0.85641 0.654352 0.0709778 1 3 -1 
5391 6 0.183677 0.705824 0.0629575 6 -2 1 
8112 5 0.366417 0.680461 0.0709212 2 0 3 
8568 5 0.35693 0.721755 0.119608 -5 3 1 
8857 5 0.545147 0.721345 0.0394728 2 2 9 
6885 5 0.563805 0.708956 0.0429792 -1 4 2 
8487 6 0.625378 0.706101 0.0520506 -4 0 2 
7574 6 0.700998 0.715896 0.0864812 -6 -3 2 
7447 5 0.625621 0.72791 0.0703678 -1 -3 -2 
5750 5 0.740377 0.738419 0.0684952 -3 0 -4 
6749 5 0.0148174 0.780242 0.0919579 0 2 4 
7578 6 0.257219 0.768929 0.0384075 0 1 -2 
6603 5 0.761625 0.763313 0.0466138 7 -4 1 
6752 5 0.0731599 0.802315 0.047349 2 2 1 
6205 5 0.499228 0.783088 0.0757186 3 0 1 
6766 6 0.168621 0.756612 0.0504814 2 0 0 
6880 5 0.520254 0.900554 0.0628836 7 0 1 
8199 6 0.0755182 0.915822 0.062043 1 -5 1 
8740 5 0.0979926 0.930861 0.0486004 -2 -1 2 
5775 5 0.466929 0.927341 0.0438361 3 -2 -2 
5493 5 0.452867 0.0192061 0.0481352 -4 -2 4 
7277 5 0.924224 0.946758 0.0544104 -7 0 -1 
8100 6 0.16093 0.968537 0.0669264 4 2 -2 
7768 5 0.563283 0.958124 0.0322561 6 2 1 
6935 6 0.257506 0.0118071 0.095119 2 2 -2 
8820 6 0.394784 0.0499768 0.11003 6 1 6 
5728 5 0.436351 0.016057 0.0891887 -1 2 0 
7329 5 0.842068 0.0119877 0.0864224 4 4 -3 
5829 5 0.424399 0.0557694 0.107348 -4 7 1 
7925 5 0.923542 0.0241278 0.0147493 5 2 0 
6893 6 0.961151 0.0621467 0.0743253 1 -1 -1 
6071 6 0.576124 0.0787208 0.0545129 1 4 3 
6232 5 0.938748 0.0885022 0.093903 2 -4 0 
8151 5 0.243531 0.0839592 0.0656997 2 -2 3 
7986 5 0.625338 0.0910356 0.110864 2 4 0 
6761 6 0.650692 0.101224 0.0733455 -4 -3 1 
7709 5 0.0055761 0.118166 0.080367 0 -3 4 
6527 6 0.340791 0.116659 0.0907219 1 0 1 
7127 6 0.267122 0.175914 0.0502789 2 0 1 
7492 6 0.645976 0.151238 0.0812697 6 -4 -1 
8225 5 0.693129 0.195203 0.0646159 2 -1 -3 
7685 6 0.209385 0.211681 0.0620142 -1 0 1 
5010 5 0.231453 0.191429 0.0876631 -3 3 -2 
6310 5 0.726 0.174657 0.0215986 2 0 1 
6665 5 0.964531 0.210264 0.0815885 -2 0 2 
8880 5 0.0621807 0.213481 0.0873268 0 5 0 
5353 5 0.489264 0.246741 0.0992097 -2 -3 0 
5792 6 0.844965 0.220956 0.0621379 -1 0 -1 
6457 6 0.709349 0.280291 0.0569602 -2 1 -1 
6875 6 0.180067 0.26696 0.0591201 3 3 2 
6890 6 0.854563 0.254915 0.129561 2 4 -5 
6216 5 0.968384 0.304199 0.0575364 -2 -2 1 
7366 5 0.424615 0.289178 0.0925122 3 4 0 
5411 5 0.563199 0.283788 0.0884757 -2 0 -2 
8854 5 0.208476 0.33272 0.0985575 0 -4 0 
6039 6 0.237736 0.313238 0.0950087 -1 -2 -3 
5766 5 0.531237 0.349609 0.0599918 1 2 -5 
8354 5 0.504339 0.3627 0.0628112 4 -2 5 
6080 5 0.123874 0.395875 0.0753656 -1 1 2 
5677 6 0.243441 0.370541 0.0920285 -1 -2 -1 
8660 6 0.875457 0.370823 0.107742 -2 1 0 
6458 5 0.607082 0.422733 0.0963362 -1 5 -4 
7074 5 0.139757 0.423477 0.0650983 -3 -3 -1 
7058 5 0.386222 0.44085 0.0645988 2 0 -4 
5854 5 0.456094 0.435704 0.0676707 -3 4 1 
7842 5 0.218377 0.479605 0.0892251 3 -1 -5 
7077 6 0.950524 0.482536 0.0689209 -2 -4 2 
6976 6 0.288011 0.470346 0.11118 2 0 6 
5560 6 0.142093 0.528486 0.151228 -1 6 1 
6569 6 0.291271 0.502752 0.0743008 1 -1 -3 
6575 5 0.821714 0.504518 0.0878177 -9 -1 -1 
8665 6 0.090051 0.559086 0.101633 1 1 0 
8062 6 0.705983 0.550305 0.100989 0 -1 -1 
6532 5 0.0366805 0.598891 0.0758098 1 -3 -3 
5045 5 0.31678 0.59477 0.0399333 0 -3 -1 
6120 6 0.585382 0.619378 0.0619435 -1 -7 3 
6607 6 0.961896 0.571766 0.115507 -2 4 -3 
6236 6 0.00527922 0.591501 0.0700539 1 1 -1 
7742 6 0.116353 0.588707 0.0605988 -3 0 -4 
5363 5 0.0386122 0.675449 0.0482038 -1 -2 2 
5734 6 0.294148 0.669708 0.0847449 0 -3 1 
5877 6 0.785389 0.70295 0.0967168 -4 -2 1 
8684 5 0.0183188 0.72676 0.0822658 4 -5 0 
8476 6 0.278581 0.743372 0.112705 -4 -5 -3 
7018 5 0.854799 0.744156 0.0459291 1 -4 1 
7508 5 0.879046 0.714493 0.0986213 -4 0 6 
5488 6 0.735702 0.737297 0.0767615 0 1 1 
5793 6 0.781052 0.747166 0.126957 1 -7 2 
5016 6 0.00474925 0.736284 0.0901824 -2 -2 3 
7992 5 0.380726 0.771787 0.0693704 0 -4 2 
7303 5 0.448598 0.743014 0.0554136 0 -3 -2 
6903 5 0.985448 0.814491 0.0816184 -3 3 -3 
8189 5 0.405163 0.782891 0.0963795 2 0 2 
5870 6 0.816795 0.828715 0.0704228 -1 2 2 
5974 5 0.304655 0.859629 0.124265 0 -1 3 
5367 5 0.384545 0.798934 0.0863054 -5 -5 -1 
6657 6 0.503162 0.878468 0.0990054 0 -2 4 
7336 6 0.438985 0.88021 0.0669085 2 0 2 
6777 6 0.746495 0.876874 0.100367 -2 -1 1 
7947 6 0.314469 0.95197 0.0593032 -4 -2 0 
6547 5 0.352876 0.954588 0.0518005 -1 3 2 
7033 5 0.53457 0.92161 0.0691789 1 2 2 
7770 6 0.377734 0.962752 0.0560339 6 -2 -1 
8331 5 0.448283 0.939969 0.0924769 1 -1 0 
8283 5 0.646692 0.892443 0.0872368 -1 4 2 
5591 6 0.690906 0.946921 0.0522083 2 -3 -2 
5244 5 0.230887 0.958108 0.0811991 2 -3 2 
5139 5 0.515872 0.97778 0.0901502 3 -2 -1 
5946 6 0.128953 0.994592 0.0630913 2 2 -4 
5586 5 0.202972 0.984696 0.078574 1 1 -2 
6645 5 0.222133 0.983165 0.110502 -5 -4 -1 
7691 6 0.624556 0.0132563 0.0572572 3 1 -5 
7736 5 0.770297 0.936084 0.0419186 1 -1 1 
6709 5 0.841879 0.972959 0.0853956 2 1 0 
6288 6 0.0250623 0.0543332 0.108532 2 6 8 
8817 6 0.480216 0.0293026 0.103915 2 2 0 
7793 6 0.714987 0.0649963 0.102163 2 -3 -2 
8048 5 0.877889 0.0458662 0.0689351 2 -3 -2 
7328 5 0.466925 0.121669 0.0968074 -3 1 4 
6878 5 0.918664 0.080549 0.106727 1 -1 -1 
6043 5 0.636825 0.126667 0.118663 5 0 1 
8849 6 0.663069 0.110015 0.101781 3 -2 -4 
5823 5 0.248382 0.13566 0.12958 -1 -2 -1 
8562 5 0.123361 0.138118 0.133156 -1 -2 0 
5034 5 0.234242 0.137949 0.141152 2 2 -2 
8358 5 0.375154 0.140579 0.125885 0 2 -4 
6834 6 0.368452 0.192669 0.112948 -3 5 -7 
6887 6 0.432739 0.196759 0.145024 4 9 3 
6020 5 0.419954 0.181746 0.0966571 1 -1 -5 
6932 5 0.584893 0.258349 0.108479 5 -4 1 
8177 5 0.628125 0.180502 0.103172 2 -4 0 
7148 5 0.217788 0.242778 0.0828683 -1 1 0 
8165 6 0.763225 0.23583 0.088059 -3 1 2 
6947 5 0.823488 0.243588 0.103796 2 0 -3 
8987 6 0.846188 0.244061 0.10224 -4 -1 1 
6745 5 0.576085 0.254851 0.102358 3 6 3 
8980 6 0.54011 0.260576 0.0961899 3 3 4 
7904 6 0.675803 0.266292 0.0668319 -5 -1 1 
8659 5 0.65743 0.275852 0.0719572 -2 2 1 
8090 5 0.743302 0.287637 0.124687 1 -3 2 
6060 6 0.747792 0.32825 0.0914564 4 0 1 
7815 6 0.137675 0.299739 0.142916 0 -1 0 
6731 6 0.945281 0.300476 0.088595 -2 2 1 
5952 5 0.405041 0.364069 0.115374 1 1 3 
6990 6 0.709765 0.336737 0.102111 -1 1 3 
7247 5 0.761649 0.319226 0.110772 -1 2 -3 
8172 5 0.121675 0.403109 0.110925 2 2 8 
5197 5 0.304641 0.378751 0.0964704 -2 1 -3 
7807 5 0.325152 0.37128 0.143004 4 -1 -4 
5944 6 0.503634 0.423005 0.11486 1 -3 6 
6781 5 0.134673 0.388749 0.117161 2 -2 -2 
8978 5 0.322495 0.389969 0.067345 0 0 3 
5747 6 0.358391 0.40688 0.0482886 5 0 0 
5822 6 0.806569 0.388794 0.127145 -5 -6 3 
7176 5 0.20794 0.473918 0.0620272 1 -1 4 
5362 5 0.270579 0.442044 0.0982627 0 -2 -1 
8928 6 0.570864 0.45344 0.11369 1 -7 1 
5832 5 0.664808 0.410397 0.0670113 -2 -3 0 
7013 5 0.92448 0.460056 0.059143 0 -6 1 
8610 6 0.124533 0.446492 0.0714876 0 -2 -8 
8627 6 0.856695 0.479614 0.125617 3 1 1 
8747 6 0.196297 0.530793 0.115909 1 4 0 
6809 5 0.656893 0.490423 0.127889 -3 4 2 
6505 5 0.779074 0.493133 0.099169 4 -2 -1 
5107 6 0.43028 0.518614 0.0909657 0 1 1 
7227 5 0.782121 0.528202 0.0977517 3 -3 0 
6351 5 0.40239 0.567874 0.0947301 0 0 -2 
5615 5 0.605652 0.542055 0.071261 3 0 0 
7146 6 0.665557 0.552958 0.104579 2 3 -4 
8298 5 0.939563 0.571766 0.0940938 -5 -1 2 
5953 5 0.920995 0.567672 0.0806511 2 2 3 
8605 6 0.299924 0.599932 0.124317 1 2 0 
7513 6 0.616448 0.582908 0.0880586 1 -3 2 
6448 6 0.770848 0.553856 0.11324 -5 3 2 
7787 5 0.138159 0.606387 0.0901848 2 3 0 
6214 5 0.723989 0.639886 0.108243 3 3 -1 
7410 5 0.183891 0.600041 0.095119 0 6 -3 
6194 6 0.930461 0.634927 0.084773 1 2 -2 
8866 5 0.0503585 0.623258 0.112492 1 -1 0 
6977 6 0.252992 0.658875 0.108236 4 2 -2 
6381 5 0.627966 0.669026 0.114901 0 2 3 
8483 5 0.429336 0.663128 0.0953677 -2 1 1 
7727 6 0.774966 0.653668 0.117628 1 -2 -7 
7068 5 0.207666 0.683174 0.0967191 2 -5 2 
7261 6 0.792461 0.655904 0.102712 4 0 -1 
5249 5 0.0240769 0.672719 0.0957182 0 1 0 
8460 5 0.663957 0.737521 0.132173 -1 1 2 
8250 5 0.566314 0.68585 0.0898882 2 0 0 
7523 6 0.577653 0.759993 0.133337 -2 -2 -1 
6460 5 0.758991 0.794942 0.0962949 -2 -1 3 
7327 5 0.135392 0.842752 0.0949186 3 2 0 
8207 5 0.272709 0.796514 0.118322 -1 -4 1 
8758 5 0.0687447 0.837517 0.12095 -1 5 3 
6291 6 0.655344 0.831624 0.135855 -3 -4 -3 
8614 6 0.883154 0.874535 0.101036 -5 0 0 
6163 6 0.966105 0.827527 0.0956993 6 3 -4 
8369 5 0.0705426 0.893582 0.0848422 5 2 6 
7587 6 0.639138 0.87432 0.128059 -2 0 -2 
8570 5 0.928168 0.927962 0.0995712 -6 0 1 
5124 5 0.963651 0.941065 0.112519 -1 -2 2 
7094 6 0.983486 0.972219 0.0992789 0 -3 4 
8779 5 0.0129996 0.995774 0.0615957 0 -2 0 
7731 6 0.358613 0.986834 0.102164 -1 2 4 
8317 6 0.465945 0.956469 0.0746675 3 0 1 
7974 6 0.536649 0.935205 0.0850479 -7 -5 -2 
6840 5 0.719257 0.987432 0.093131 0 0 1 
6339 5 0.750418 0.954374 0.120916 -1 2 2 
5237 5 0.00804849 0.0563181 0.137096 -6 3 -4 
6326 6 0.304865 0.0160621 0.103099 3 0 -2 
5999 5 0.640238 0.017211 0.110728 -4 -1 -4 
5326 6 0.719254 0.999037 0.145852 0 1 1 
7570 5 0.842527 0.0840551 0.133109 -4 1 5 
5729 6 0.62987 0.0786267 0.145071 -1 3 -3 
7072 5 0.818054 0.12804 0.160111 5 3 4 
8277 6 0.895075 0.148243 0.121134 1 7 -6 
7395 5 0.305483 0.13012 0.0908487 2 3 0 
5157 6 0.438799 0.13161 0.0784649 4 -2 1 
8881 5 0.658174 0.129493 0.144214 -4 -4 -2 
6683 6 0.247645 0.191651 0.149357 1 -4 -2 
8458 6 0.418239 0.180696 0.154894 -2 5 1 
8481 5 0.585302 0.142249 0.137442 1 6 0 
6708 6 0.601868 0.195411 0.140863 7 -1 1 
5799 5 0.664245 0.161244 0.120244 -1 4 2 
7635 5 0.398306 0.182273 0.108738 -2 1 0 
7556 6 0.413294 0.192306 0.130049 -3 1 1 
8333 6 0.504721 0.271866 0.115602 -1 2 0 
5573 5 0.614257 0.234528 0.13727 -1 0 0 
8502 6 0.357609 0.293607 0.0785698 0 0 -1 
7721 6 0.215248 0.261607 0.0861196 2 0 3 
6789 5 0.112076 0.332186 0.0832847 0 3 4 
6151 6 0.163842 0.327717 0.111333 -2 1 1 
6833 5 0.663915 0.338498 0.105596 -1 -2 2 
6070 6 0.718429 0.353359 0.117934 5 4 4 
7805 5 0.752913 0.359012 0.120914 1 5 4 
5415 5 0.868366 0.359561 0.14868 -2 -2 -4 
8371 5 0.371073 0.374434 0.0967008 0 7 0 
6754 6 0.908951 0.398924 0.073287 -2 3 2 
8612 6 0.377939 0.381693 0.0989892 -2 -2 3 
7971 6 0.766493 0.436083 0.133013 0 -1 -1 
8700 5 0.362594 0.445765 0.0945986 3 -1 -5 
5196 6 0.30787 0.479678 0.13001 0 3 2 
5517 6 0.676763 0.48496 0.110467 4 3 1 
8312 6 0.486269 0.480896 0.123372 0 2 5 
7772 6 0.896694 0.512217 0.128995 0 -2 -5 
8733 6 0.600096 0.546675 0.12372 0 0 2 
6166 6 0.911304 0.551475 0.107285 -4 1 3 
8009 5 0.148185 0.598571 0.136385 -2 -3 7 
5007 6 0.15235 0.568467 0.0949146 1 -2 -7 
8705 6 0.433807 0.619999 0.0878485 1 2 1 
8063 6 0.706356 0.584024 0.138977 0 3 2 
6965 6 0.261521 0.663138 0.171794 1 -4 0 
8821 6 0.325185 0.669591 0.149213 1 -1 0 
5259 6 0.458683 0.639999 0.131522 0 1 -1 
6868 6 0.625908 0.710454 0.123775 -1 4 1 
6512 6 0.728598 0.665773 0.0997396 3 0 0 
5624 5 0.356847 0.690664 0.11249 -4 2 0 
6019 6 0.986638 0.747566 0.139021 1 2 1 
6494 5 0.483873 0.741256 0.141409 4 2 -2 
7826 5 0.565219 0.732056 0.132307 1 4 6 
6106 5 0.887537 0.767612 0.0918236 -2 -3 -1 
5828 6 0.944326 0.741944 0.123897 -2 -1 -2 
5886 6 0.977635 0.728412 0.131567 -2 -2 2 
8414 5 0.361123 0.754083 0.0982982 3 -1 4 
8116 5 0.790166 0.772582 0.102371 3 0 5 
7897 5 0.259375 0.772016 0.130897 2 -2 -2 
5680 5 0.494181 0.814537 0.114746 0 -2 4 
5613 5 0.604307 0.801421 0.122617 -1 -1 -5 
6725 5 0.795407 0.838534 0.109715 -1 -3 1 
5105 6 0.956476 0.83588 0.165135 4 -3 -2 
8723 5 0.111723 0.83336 0.121817 2 -1 0 
5698 6 0.316024 0.855542 0.134833 -6 -1 1 
6695 6 0.435521 0.857662 0.10259 4 0 -1 
7531 6 0.185442 0.877649 0.113595 3 -1 -2 
7384 6 0.443515 0.857904 0.132423 -1 -1 -4 
8923 6 0.0626858 0.882709 0.111324 0 -1 -1 
7525 6 0.615069 0.905388 0.106749 6 1 1 
5182 6 0.79604 0.888208 0.0859025 1 -1 -2 
6103 6 0.388818 0.973164 0.111064 6 3 4 
8378 5 0.774276 0.97667 0.166304 -5 -6 2 
5118 5 0.894672 0.959413 0.141752 1 -1 1 
6504 5 0.814669 0.0109547 0.131848 2 2 3 
6499 5 0.845815 0.964565 0.137448 6 -1 6 
7115 5 0.739325 0.981924 0.108721 8 -5 -3 
7234 5 0.545063 0.0151814 0.142702 -1 3 -1 
8981 6 0.714893 0.993817 0.10644 4 -1 1 
6446 5 0.770656 0.00805549 0.164347 0 8 4 
8629 6 0.0535314 0.0227494 0.171949 5 -3 2 
5578 6 0.0678877 0.00862524 0.13529 1 3 1 
7857 5 0.393428 0.0321658 0.159192 1 -1 0 
7645 5 0.438977 0.0268315 0.159155 5 6 6 
8079 5 0.656841 0.0205406 0.156657 3 1 2 
6414 6 0.673822 0.0898622 0.149303 0 0 -2 
8832 5 0.724342 0.0654131 0.13913 0 1 4 
8984 6 0.882721 0.0916185 0.162718 2 0 2 
8123 6 0.458243 0.123588 0.177965 0 0 1 
8983 6 0.155348 0.208676 0.159573 2 3 -2 
8376 5 0.368051 0.183037 0.135019 3 2 -3 
5838 6 0.234064 0.177733 0.15565 3 1 1 
7493 6 0.487071 0.185854 0.167699 -2 3 3 
8578 5 0.0270387 0.209033 0.154784 3 -3 -1 
8464 6 0.0707341 0.195898 0.169836 1 -1 0 
5287 5 0.15767 0.179834 0.136719 3 -4 1 
7498 5 0.428869 0.214299 0.170376 -2 -3 -5 
7943 5 0.0312048 0.26782 0.176574 0 3 -4 
5485 5 0.362002 0.287943 0.160662 4 2 -3 
5774 6 0.638896 0.255799 0.138906 -2 1 3 
8219 6 0.120186 0.304201 0.122793 2 0 1 
7781 5 0.481066 0.291804 0.180876 3 8 7 
5618 6 0.629086 0.26944 0.165537 -2 4 6 
5202 6 0.286079 0.298334 0.158851 1 1 0 
7596 5 0.39208 0.318223 0.166428 -5 4 3 
7164 6 0.774922 0.336993 0.14617 0 -2 2 
8596 5 0.540768 0.303582 0.146376 2 -1 0 
5125 6 0.1621 0.368666 0.144158 -5 -1 7 
6674 6 0.171007 0.357695 0.122161 -1 -5 3 
6502 6 0.805484 0.322446 0.141847 2 0 4 
5386 5 0.387435 0.359627 0.12796 -1 2 -1 
6548 6 0.761918 0.400189 0.135574 -1 1 -2 
7034 6 0.055921 0.387642 0.142184 -4 7 -2 
6626 5 0.885838 0.417473 0.139772 7 4 -3 
7679 6 0.231278 0.427076 0.148494 2 0 3 
6604 6 0.117515 0.418437 0.113606 5 -2 2 
8531 6 0.372963 0.43421 0.123927 4 2 9 
6307 6 0.415061 0.46952 0.157161 -4 -3 0 
7968 6 0.964948 0.410862 0.159111 -2 -1 2 
7136 5 0.663001 0.475341 0.109694 -9 0 -3 
8133 5 0.768543 0.437166 0.146235 0 1 2 
7894 5 0.21537 0.464823 0.124357 10 -4 -1 
6418 5 0.482523 0.475595 0.136697 1 1 1 
8713 6 0.642421 0.474272 0.155643 -2 1 -1 
5451 6 0.828958 0.47839 0.164762 1 3 5 
6244 6 0.966799 0.514829 0.138692 1 2 1 
7804 5 0.0391479 0.539233 0.131608 5 -6 1 
8311 6 0.546597 0.546676 0.140948 3 2 3 
6564 6 0.343781 0.559458 0.130445 0 0 4 
8106 5 0.635587 0.549231 0.124715 1 -2 1 
5506 6 0.300203 0.61095 0.104204 -4 -3 -6 
6982 6 0.40744 0.586004 0.162578 2 -6 2 
6613 6 0.419266 0.589905 0.136491 3 0 5 
8540 5 0.774063 0.59073 0.146877 -1 2 -6 
8937 6 0.904594 0.585105 0.204833 1 -1 -3 
5940 5 0.251298 0.575561 0.148739 1 3 2 
7418 5 0.410681 0.638101 0.179454 1 0 6 
7050 5 0.454329 0.634372 0.1824 2 6 2 
7705 5 0.982741 0.620216 0.192291 2 3 -4 
6705 5 0.215888 0.6323 0.173117 1 4 1 
7967 5 0.399158 0.649307 0.169573 -1 0 0 
8650 6 0.393937 0.660925 0.136557 3 0 3 
5839 5 0.807705 0.719126 0.150079 -4 -7 0 
6552 6 0.990581 0.747197 0.170026 5 -1 1 
8099 6 0.314763 0.709095 0.133585 1 -1 -1 
7042 5 0.028812 0.797569 0.121735 1 -4 -3 
6472 5 0.271871 0.724481 0.188447 4 -3 -6 
8075 6 0.378249 0.813371 0.141218 -2 -5 1 
7307 6 0.79738 0.75541 0.136717 -5 2 -2 
8081 6 0.048038 0.776472 0.159302 1 0 -7 
8511 6 0.148444 0.814093 0.18126 2 -4 4 
7716 5 0.965689 0.788903 0.169465 3 0 6 
7872 5 0.820429 0.825184 0.16105 5 3 -4 
7632 5 0.724226 0.828439 0.146588 0 1 5 
7185 6 0.799321 0.861838 0.187994 -2 -5 2 
7415 6 0.52576 0.872545 0.143875 -6 4 -2 
8032 5 0.747986 0.91416 0.135313 1 3 -2 
8521 5 0.976573 0.911064 0.126738 -4 -8 -2 
7745 6 0.249837 0.972476 0.15607 -2 5 1 
6821 6 0.0373697 0.000159629 0.107803 0 -2 -1 
6311 6 0.122029 0.986208 0.121328 1 0 1 
8757 6 0.186883 0.969664 0.173887 2 -5 -1 
7888 6 0.337203 0.969703 0.13235 2 0 3 
7290 6 0.428972 0.986601 0.121381 -2 -2 1 
8473 5 0.0731764 0.982533 0.173763 -1 1 5 
6529 6 0.57144 0.0138562 0.157485 0 -2 -5 
8031 6 0.236979 0.043694 0.17366 7 -1 -4 
7455 6 0.564202 0.0850061 0.15169 -1 4 2 
7694 6 0.748517 0.0777304 0.190209 -2 -5 0 
8859 5 0.958644 0.104827 0.159347 0 1 2 
6628 5 0.242939 0.0451684 0.192774 0 3 -2 
7867 5 0.23849 0.0914116 0.13934 -2 2 -3 
5633 6 0.452126 0.0726981 0.161786 0 2 -1 
8959 5 0.912424 0.0795386 0.177497 -1 2 7 
8794 5 0.64064 0.154809 0.178458 1 0 3 
6816 5 0.926924 0.10425 0.188438 3 -1 -3 
5185 6 0.960854 0.111338 0.153371 0 1 1 
7609 6 0.979887 0.125712 0.123564 -2 0 -2 
7843 5 0.105157 0.15952 0.1849 0 1 2 
5012 6 0.502574 0.0972735 0.179402 1 -1 2 
6697 6 0.552148 0.115101 0.142948 -4 -8 1 
6768 6 0.667706 0.112792 0.192482 1 4 -1 
5071 6 0.0152227 0.151346 0.171226 0 -1 2 
6518 6 0.721774 0.159789 0.181755 -1 0 1 
6730 5 0.749173 0.171559 0.173649 4 -6 0 
6571 5 0.209423 0.211665 0.171792 3 3 4 
7522 6 0.510483 0.161498 0.160951 0 -2 4 
7865 5 0.0163183 0.223539 0.213037 7 0 -4 
8070 6 0.678686 0.235577 0.126627 2 1 6 
8142 5 0.646935 0.209871 0.163453 -1 3 -2 
5805 5 0.677374 0.269243 0.175408 -2 -2 0 
6728 6 0.0593353 0.289805 0.165136 4 -5 -7 
7969 5 0.357227 0.295824 0.15456 -1 1 1 
6639 6 0.392516 0.309178 0.154348 -2 0 -3 
8292 6 0.0216305 0.357882 0.12583 -1 -6 2 
6712 5 0.275393 0.356043 0.151971 6 1 6 
8110 6 0.780732 0.285701 0.162958 1 -2 2 
7743 6 0.94196 0.349159 0.176682 -2 -2 1 
8028 6 0.200964 0.356883 0.143013 -2 -1 -2 
8967 5 0.71828 0.374696 0.165605 -3 0 1 
6856 5 0.720006 0.365075 0.180422 -3 2 6 
7621 6 0.422929 0.407491 0.168587 -1 3 0 
8104 6 0.813396 0.345451 0.140647 2 -2 -1 
5114 6 0.589353 0.407061 0.176991 -2 7 -3 
5465 5 0.724429 0.404646 0.167345 1 -2 -2 
8626 6 0.223644 0.426931 0.159787 2 -1 2 
7903 6 0.400357 0.392463 0.162268 -3 1 -1 
6830 5 0.483769 0.402454 0.172519 -1 0 -2 
7938 6 0.0193968 0.435203 0.192628 -4 3 2 
5717 5 0.704162 0.437064 0.164908 0 -6 -1 
8831 6 0.398076 0.490164 0.172891 7 0 -1 
6129 5 0.592489 0.487858 0.175665 -5 1 -5 
7698 5 0.365355 0.520587 0.174921 0 1 4 
6190 5 0.955443 0.530785 0.190207 -7 2 2 
8640 6 0.973349 0.536612 0.155754 3 -2 1 
8883 5 0.841391 0.517754 0.181951 1 -4 -3 
6583 6 0.244665 0.573282 0.165488 -1 2 3 
7409 5 0.643899 0.566632 0.168019 3 2 -5 
5096 6 0.628502 0.52563 0.193691 -1 -3 3 
6757 5 0.851704 0.595199 0.175298 -7 4 -1 
6283 6 0.910281 0.616525 0.157995 2 0 4 
5234 5 0.15219 0.668435 0.154806 0 -1 2 
5675 5 0.443255 0.618798 0.160937 0 1 2 
7922 6 0.0343875 0.614672 0.186576 1 0 0 
6112 6 0.128629 0.643433 0.135573 2 -5 0 
6985 6 0.220644 0.649565 0.145249 2 0 1 
7230 6 0.473795 0.666828 0.19038 0 -1 5 
5507 6 0.0561762 0.667917 0.18602 -4 0 -2 
5491 6 0.0857322 0.654866 0.165872 0 0 1 
8656 6 0.174274 0.660156 0.159318 0 0 2 
7023 5 0.82512 0.670507 0.186641 -7 1 7 
6235 5 0.204377 0.631346 0.150334 1 2 -3 
8546 6 0.930829 0.634973 0.167525 2 -1 -1 
7755 5 0.0505311 0.710961 0.207859 0 -2 7 
6797 6 0.963368 0.696436 0.179184 2 3 -2 
8468 5 0.845177 0.699853 0.148951 -2 -5 0 
7142 6 0.022207 0.740036 0.169691 -1 0 4 
8982 6 0.456735 0.760105 0.15149 -4 3 -4 
6931 6 0.677495 0.720383 0.163789 -2 6 3 
8357 6 0.305259 0.766696 0.204482 0 -6 -4 
8828 6 0.405298 0.725796 0.202387 0 3 0 
5179 6 0.590398 0.781414 0.171083 2 -2 0 
8393 5 0.891763 0.766547 0.160858 -1 -2 2 
5291 6 0.181795 0.827925 0.199246 0 3 5 
6200 5 0.313264 0.823436 0.160119 -2 6 -1 
5607 6 0.405868 0.849476 0.148858 -6 1 -1 
6908 5 0.0764778 0.855149 0.170247 -8 -2 2 
6513 6 0.1399 0.883163 0.178391 -1 -3 0 
7316 6 0.797095 0.862497 0.17616 0 1 -1 
8869 5 0.956838 0.885173 0.189537 -1 3 3 
5670 6 0.748405 0.900142 0.195314 -2 2 -2 
6762 5 0.707317 0.9178 0.1654 -1 3 5 
7667 6 0.904145 0.929428 0.14645 1 -4 2 
5765 6 0.903557 0.905273 0.207453 1 -5 1 
8682 5 0.619437 0.932484 0.213949 -4 1 5 
5486 6 0.667595 0.928746 0.188465 -1 -3 -4 
7298 5 0.915733 0.972285 0.169914 -8 0 -9 
8812 5 0.157509 0.95918 0.188561 2 -3 -1 
5530 6 0.576457 0.958911 0.187934 -6 0 2 
7593 5 0.925387 0.945984 0.169722 -3 1 2 
8689 5 0.434964 0.0321188 0.176937 0 -3 -4 
8677 5 0.43986 0.0011708 0.145507 1 1 6 
6920 5 0.751807 0.0410974 0.166315 -4 -2 -3 
6147 6 0.0871347 0.0436591 0.190362 2 -4 1 
6266 5 0.411299 0.0474745 0.1631 -7 0 4 
5044 5 0.524733 0.0897878 0.21193 0 3 4 
5149 5 0.520992 0.0888204 0.182269 2 7 0 