ITEM: TIMESTEP
20000000
ITEM: NUMBER OF ATOMS
9000
ITEM: BOX BOUNDS pp pp pp
-75 75
-75 75
-75 75
ITEM: ATOMS id type xs ys zs ix iy iz 
7255 6 0.831483 0.983394 0.0158017 -3 -1 9 
6534 5 0.547858 0.041597 0.999102 -7 0 -1 
7883 6 0.172012 0.0257832 0.0259696 -2 0 2 
5020 6 0.162953 0.057818 0.994065 -2 2 3 
6119 5 0.290066 0.0887961 0.00833968 3 1 2 
5501 6 0.564278 0.0595607 0.00189258 2 -1 -4 
6867 5 0.73761 0.0757253 0.00428278 3 1 -3 
5125 6 0.392354 0.128323 0.00846809 -3 1 7 
6603 5 0.577361 0.0705047 0.0235991 1 -5 3 
7756 6 0.664912 0.119773 0.0237748 -2 0 0 
6902 5 0.693197 0.122757 0.0159018 7 2 6 
5589 5 0.267834 0.162537 0.0465826 2 -1 3 
6075 6 0.469987 0.148733 0.980048 -4 -8 -3 
8780 5 0.0260323 0.108942 0.00373444 1 -4 8 
5760 5 0.205958 0.143539 0.0101963 -2 -1 -5 
5938 6 0.178629 0.177716 0.0257556 5 0 2 
8145 6 0.55513 0.17441 0.963625 3 -7 -5 
5826 6 0.552853 0.197688 0.0148201 0 -4 0 
6665 6 0.166337 0.236238 0.0246212 0 -1 0 
7256 5 0.19051 0.200867 0.989795 0 -1 3 
6124 5 0.518923 0.195661 0.967887 0 3 0 
6892 5 0.561278 0.224172 0.0166485 0 -5 -5 
7075 5 0.814587 0.206477 0.0226706 -3 4 -3 
8334 5 0.666347 0.243841 0.00736635 -6 2 3 
5319 6 0.227089 0.305821 0.0275734 2 -2 2 
8774 6 0.654734 0.311716 0.0186828 0 -3 6 
5540 6 0.677431 0.318634 0.999642 -4 0 1 
5075 6 0.194608 0.336716 0.0415009 1 0 6 
7073 6 0.570872 0.349308 0.0270798 3 -7 -2 
6267 5 0.099466 0.421877 0.0317154 1 -1 -1 
7729 6 0.272399 0.414194 0.990307 -3 6 -3 
5195 5 0.302929 0.391264 0.0408777 1 3 -4 
6289 6 0.180129 0.407047 0.0111691 3 -1 2 
5144 6 0.287922 0.413563 0.00382376 1 4 -3 
6881 5 0.337722 0.442872 0.994961 -3 0 0 
6848 6 0.805448 0.471487 0.0142591 -6 3 5 
7264 6 0.731826 0.444277 0.0382056 -2 -3 5 
7071 6 0.395418 0.476301 0.985396 -4 9 2 
6355 6 0.466915 0.537515 0.992823 1 1 0 
5964 6 0.624072 0.518436 0.055681 2 0 -2 
6528 6 0.785258 0.539641 0.0414791 6 -1 -2 
8289 6 0.333322 0.542836 0.99637 -2 4 3 
6401 5 0.0897718 0.563344 0.998767 4 3 -3 
8038 6 0.523013 0.539779 0.0139993 1 -1 -2 
8109 6 0.442609 0.588481 0.989142 1 -2 3 
6275 5 0.586602 0.601196 0.0224847 0 -1 4 
8422 6 0.320154 0.643021 0.0243736 -1 1 -5 
5702 6 0.608176 0.573845 0.050155 0 0 5 
8010 5 0.604698 0.578482 0.997428 -2 -7 -3 
5639 5 0.687783 0.583458 0.0410304 2 -1 1 
7657 5 0.0744507 0.6382 0.987058 1 -2 0 
5735 6 0.4838 0.652371 0.0177643 -1 -1 -3 
5626 5 0.686482 0.629044 0.000812977 -1 0 0 
7944 6 0.657589 0.672225 0.0138128 -1 0 -1 
8518 6 0.826546 0.616862 0.0237278 -7 6 -5 
6797 5 0.00798437 0.658419 0.0109943 -1 1 0 
6469 5 0.719361 0.706524 0.02825 -2 0 -1 
7314 6 0.0272328 0.687714 0.0482942 0 -1 1 
6064 5 0.462274 0.717534 0.0258953 1 -2 1 
8608 6 0.623766 0.687607 0.0188176 -3 0 -2 
5386 5 0.498378 0.723975 0.00533077 -1 -5 1 
5337 5 0.91593 0.749566 0.0175706 -3 2 1 
5988 6 0.595052 0.751558 0.983618 -2 3 -1 
5122 6 0.601213 0.752806 0.0342806 6 -2 -5 
5032 6 0.658027 0.755673 0.0232097 -1 -1 0 
6091 5 0.748245 0.746509 0.0130344 -2 -1 1 
6033 6 0.964857 0.781015 0.0120401 0 1 1 
7319 6 0.114601 0.775167 0.982056 3 -2 0 
7808 5 0.0953321 0.824663 0.024954 -1 -2 -9 
6703 6 0.651547 0.821225 0.9921 -3 -3 0 
6427 5 0.705931 0.827059 0.972433 3 -1 5 
5727 5 0.182112 0.842907 0.0247532 1 -4 -3 
5773 5 0.165632 0.843488 0.0103284 3 -5 5 
6090 5 0.838691 0.861647 0.0408242 1 2 6 
5106 6 0.352225 0.858581 0.980424 1 1 1 
5570 6 0.498804 0.906679 0.998816 -1 6 -1 
6107 6 0.518848 0.879503 0.0362287 5 2 3 
7745 5 0.708892 0.878151 0.0137995 -1 -6 3 
7118 5 0.0317316 0.923612 0.991699 3 4 2 
8285 6 0.767439 0.914019 0.0317732 -4 4 4 
7373 5 0.512611 0.954786 0.00573258 -5 3 2 
6511 5 0.896529 0.939817 0.021646 -1 -1 2 
6099 6 0.418311 0.930878 0.985758 0 -1 -1 
6092 6 0.512824 0.00402202 0.0457788 -4 4 1 
5056 6 0.756854 0.979921 0.011748 2 -1 -1 
7887 6 0.933916 0.962965 0.997386 -2 5 3 
7678 5 0.0549787 0.986924 0.0374092 1 1 -4 
8287 5 0.130122 0.0333214 0.0404687 6 2 0 
6240 5 0.1846 0.00386094 0.0818402 0 5 1 
5466 6 0.410829 0.0436073 0.0295915 -1 4 3 
8159 5 0.460747 0.0258501 0.0659692 0 -5 2 
6205 6 0.144307 0.0263405 0.04533 -1 2 0 
5390 5 0.513697 0.0695967 0.00990813 0 2 2 
5153 6 0.679633 0.0410158 0.0460424 2 3 -2 
6994 6 0.0013021 0.0629344 0.00887566 1 -5 -4 
5572 6 0.515404 0.0663166 0.048371 -2 -1 1 
8017 5 0.191232 0.0702056 0.0251964 0 4 4 
5794 6 0.231095 0.0714051 0.0357527 3 3 -1 
5982 5 0.292749 0.0842863 0.0562527 -5 8 -3 
8080 6 0.342858 0.100149 0.0271041 1 0 -2 
8142 6 0.608911 0.0886546 0.0366711 3 -1 2 
5796 5 0.695277 0.108734 0.0413875 -3 4 2 
6776 6 0.960941 0.118108 0.998432 0 2 -4 
8234 6 0.378029 0.104446 0.0565344 -4 0 2 
7056 6 0.757853 0.126666 0.0184628 4 -1 2 
8504 6 0.984473 0.105476 0.00800137 2 -3 -3 
8194 5 0.474213 0.152899 0.0288495 -4 -4 0 
7092 6 0.621363 0.196341 0.0708883 -1 -4 3 
6760 6 0.283795 0.225587 0.0403568 1 -6 3 
7038 6 0.0231204 0.219373 0.017472 0 0 -1 
6540 5 0.0929207 0.213827 0.0332827 1 2 -2 
8120 5 0.441732 0.236177 0.0149487 5 -2 2 
6878 5 0.103146 0.259109 0.992953 0 -1 -1 
8740 5 0.878188 0.282868 0.0115735 -2 -2 3 
5831 5 0.283776 0.302434 0.0494029 1 -2 3 
8620 6 0.390974 0.3005 0.00851911 -3 2 3 
7575 6 0.932045 0.332269 0.996787 0 -2 2 
8553 5 0.274796 0.326131 0.0320485 0 2 4 
8227 6 0.50367 0.300466 0.018279 1 2 2 
8098 5 0.761799 0.34706 0.0217222 4 -3 -6 
5779 6 0.374622 0.396762 0.0158447 -3 4 6 
7936 5 0.664117 0.353006 0.0501646 1 -3 3 
5236 6 0.970601 0.397091 0.0495236 0 1 0 
8775 5 0.362928 0.502414 0.00662843 -2 4 3 
8961 5 0.409806 0.474029 0.0265859 2 7 4 
6808 6 0.500522 0.499469 0.034243 -2 2 1 
5586 5 0.534538 0.497382 0.0291994 -1 0 3 
5920 6 0.615817 0.512951 0.0496977 0 3 0 
6816 6 0.712741 0.470135 0.0441466 0 4 3 
5886 5 0.977154 0.46413 0.049059 -5 1 -2 
5597 5 0.367326 0.517982 0.025723 2 4 2 
8092 5 0.570423 0.516464 0.0287283 1 1 1 
6772 6 0.684834 0.522775 0.0320548 -4 0 1 
7043 6 0.164203 0.558947 0.987628 1 0 -1 
5382 5 0.0746504 0.587318 0.0594125 4 -2 1 
8873 6 0.414391 0.579897 0.0369213 -4 2 1 
7067 5 0.864384 0.593937 0.0247536 6 6 -1 
8458 5 0.488374 0.613802 0.0386331 5 0 1 
5211 6 0.81735 0.550597 0.0288992 -5 -6 0 
6131 5 0.0240933 0.583077 0.0727654 1 2 2 
7803 6 0.158333 0.627463 0.00361725 -1 1 5 
8828 5 0.804728 0.621755 0.0329242 -4 -4 1 
5201 6 0.0948575 0.640158 0.032628 -4 -3 5 
6348 5 0.910978 0.692838 0.0233702 -3 -3 1 
7204 5 0.659269 0.683946 0.0562236 -1 1 -1 
7727 6 0.315452 0.716848 0.0669867 -4 3 1 
7974 6 0.525571 0.751211 0.0701311 3 -4 -3 
6396 5 0.858386 0.717265 0.010183 -2 0 4 
7547 5 0.932955 0.728108 0.0427443 1 -1 -10 
8036 5 0.659024 0.769306 0.0501026 2 -1 1 
5989 5 0.945982 0.770083 0.0438838 -2 -2 -1 
6793 5 0.763608 0.795099 0.041865 -3 -1 1 
6727 6 0.110361 0.797343 0.0510177 -1 0 3 
5542 5 0.689661 0.80701 0.0874023 -5 0 -2 
8319 5 0.357641 0.818463 0.0448281 5 2 3 
6578 5 0.619943 0.831038 0.0322165 1 0 4 
8472 5 0.331953 0.908502 0.0757637 5 -1 2 
7911 6 0.832476 0.886215 0.0709055 -1 1 -9 
6441 5 0.454809 0.974787 0.027258 0 -3 1 
6903 6 0.196983 0.964759 0.00749109 -1 5 4 
5907 5 0.012782 0.934254 0.0201442 -3 1 -2 
5389 5 0.263515 0.982858 0.0354411 -1 1 0 
6309 6 0.491597 0.937685 0.0508001 1 0 -4 
6882 6 0.0731329 0.985593 0.0464616 -1 0 0 
6001 6 0.17875 0.0127108 0.0675562 -2 -1 3 
7614 5 0.549661 0.0897152 0.0359794 2 3 0 
6202 6 0.566075 0.0415247 0.0876584 -1 0 -2 
8027 6 0.268296 0.0845548 0.0596271 -3 -4 4 
8834 5 0.330917 0.0814948 0.0415944 0 -2 0 
7943 5 0.493698 0.0711547 0.022543 -1 0 1 
7885 6 0.295512 0.0211513 0.080874 5 0 -1 
7234 5 0.407381 0.0639218 0.0674079 1 6 4 
8930 5 0.594787 0.096636 0.0564491 -4 -1 2 
8127 6 0.0527116 0.155404 0.0900219 -1 4 -4 
5923 5 0.453605 0.118053 0.0590955 0 3 5 
6542 5 0.773549 0.124642 0.0218707 0 -1 0 
6145 5 0.758341 0.150376 0.0726286 -4 -1 4 
8250 5 0.342169 0.163304 0.0655634 0 0 -1 
6506 5 0.447332 0.16721 0.100495 1 -3 1 
5175 6 0.260632 0.174124 0.0867037 -3 3 -3 
5095 5 0.871207 0.194902 0.0692688 -1 -1 3 
5081 5 0.885519 0.189408 0.082947 1 0 0 
8942 5 0.184358 0.243512 0.0505032 1 2 2 
6752 5 0.84884 0.164321 0.0472093 -1 0 -1 
5609 5 0.878558 0.229329 0.0771667 3 -1 -3 
5476 6 0.21706 0.239602 0.0472739 -1 -2 0 
5481 5 0.4152 0.234347 0.058495 -4 -4 2 
5193 5 0.201988 0.240496 0.0282963 -1 -1 0 
6175 6 0.972308 0.24794 0.0650165 -1 1 3 
8256 5 0.39019 0.261724 0.0464606 -1 -2 -3 
8206 5 0.652649 0.296807 0.0658116 -4 -3 -1 
8523 6 0.857356 0.294376 0.0534609 -2 1 2 
7215 6 0.326436 0.328188 0.0292258 0 -2 -5 
5994 6 0.0185688 0.354205 0.0902482 3 1 2 
5700 6 0.325076 0.343403 0.0798549 -2 0 -3 
5647 5 0.90047 0.325257 0.0376341 0 -4 2 
7481 5 0.913705 0.339747 0.0853887 -2 1 -1 
6965 5 0.949212 0.365972 0.0537098 -2 5 0 
8065 6 0.0811605 0.395363 0.105964 -1 3 0 
8379 5 0.628287 0.431936 0.0486182 1 1 1 
7923 5 0.890606 0.409294 0.0827994 0 3 -7 
5905 6 0.48371 0.48638 0.0750254 -1 2 0 
6004 6 0.932581 0.434822 0.0595968 -2 -3 0 
7774 6 0.00920057 0.520665 0.0618447 3 -1 1 
5788 5 0.170742 0.483454 0.0611729 4 3 -2 
5856 6 0.235477 0.46787 0.0556404 4 0 -3 
7587 5 0.0253059 0.511879 0.0583986 -7 -1 3 
8179 5 0.794648 0.512126 0.0466812 1 2 3 
7834 6 0.608119 0.553361 0.100486 -1 2 3 
8355 5 0.887714 0.520304 0.0757271 2 -2 1 
8308 6 0.0469535 0.551791 0.0485893 0 -4 6 
6931 5 0.071833 0.607379 0.0807636 0 -1 -1 
6273 5 0.325443 0.594025 0.0242893 -1 1 2 
7445 6 0.340465 0.62357 0.0721325 0 -1 -1 
7065 6 0.563574 0.580111 0.0564387 3 2 2 
8062 5 0.571868 0.595987 0.0634573 0 -5 4 
8943 5 0.494957 0.624329 0.0489581 0 -2 2 
5902 6 0.544849 0.672502 0.044635 5 3 2 
5883 5 0.254267 0.661348 0.0751956 0 -1 1 
5217 5 0.466174 0.695096 0.063653 2 -7 1 
5784 5 0.101721 0.719756 0.0777468 -1 -2 1 
7791 6 0.660426 0.778618 0.0633124 -2 -5 -1 
8222 6 0.749966 0.785079 0.0396599 -2 2 -2 
5289 6 0.961059 0.808012 0.044663 -2 6 0 
7078 6 0.675712 0.824595 0.0601545 -2 1 3 
8623 5 0.846059 0.885076 0.0878207 0 -1 -4 
6716 6 0.0644108 0.879038 0.0778872 0 -4 0 
6764 5 0.0939897 0.839721 0.0359112 1 7 -7 
7465 6 0.225184 0.915024 0.0697577 5 4 -1 
6946 6 0.486182 0.887449 0.0930411 -3 -2 1 
5769 6 0.630078 0.904292 0.0565887 1 1 0 
5575 6 0.698505 0.877741 0.0590718 1 -3 -2 
6979 6 0.955926 0.901804 0.058722 0 3 1 
7816 5 0.642724 0.952472 0.0874856 -5 6 3 
5517 6 0.18463 0.957207 0.0399088 4 -3 2 
7728 6 0.166944 0.962342 0.059463 0 2 1 
7125 6 0.919242 0.993201 0.0597206 -3 -3 2 
7519 6 0.910535 0.986272 0.0720167 -1 -1 7 
7109 6 0.109647 0.0247201 0.0807887 5 1 -4 
8874 5 0.877002 0.0253469 0.0691699 -2 0 2 
5226 5 0.0197934 0.0369215 0.0463954 1 2 -3 
5614 6 0.233766 0.051216 0.0357425 -7 2 1 
8685 6 0.547973 0.0752692 0.0861747 3 6 7 
7368 6 0.230113 0.0440892 0.0980007 -1 -2 -1 
8335 6 0.31401 0.0796407 0.096832 2 0 -4 
6341 5 0.757449 0.059441 0.0651594 6 -2 -1 
7539 6 0.0121258 0.0559383 0.0933744 1 5 1 
5009 6 0.0278447 0.113454 0.0548201 -4 2 -4 
6277 6 0.248143 0.0894223 0.098409 3 6 -4 
8360 6 0.526686 0.0638467 0.0886633 2 1 1 
8654 6 0.0111129 0.154564 0.0833004 -2 1 2 
8177 5 0.12963 0.0666607 0.0779379 -3 -3 -3 
8979 5 0.385538 0.104788 0.0657896 4 -3 1 
7170 5 0.698325 0.116586 0.0544128 -1 -3 4 
6183 5 0.223024 0.189554 0.0786355 -4 0 1 
8413 6 0.299352 0.161878 0.0932046 -1 -2 -2 
8519 6 0.884503 0.174643 0.0743617 -4 -2 1 
6572 6 0.601845 0.151348 0.0724437 -1 5 8 
8798 5 0.502457 0.21082 0.0713537 2 0 2 
8713 6 0.683634 0.185629 0.0833621 2 0 3 
5612 6 0.240979 0.201545 0.0741234 1 -3 4 
7411 5 0.52101 0.208944 0.0980844 4 2 3 
8280 6 0.919817 0.216356 0.0838155 -3 -3 3 
6966 6 0.304026 0.223204 0.0969474 -2 2 0 
8043 5 0.764695 0.254335 0.0811678 2 3 -2 
8728 6 0.817002 0.250672 0.0982387 -1 2 1 
8936 6 0.19271 0.258437 0.0651048 -1 2 -2 
7840 6 0.665959 0.291594 0.0432267 2 -6 -1 
7532 5 0.674292 0.253659 0.0904711 -1 3 0 
5376 6 0.781265 0.289152 0.0447197 0 2 5 
6646 6 0.143489 0.280418 0.052946 1 0 0 
7886 6 0.129622 0.30054 0.0836506 1 1 -1 
7533 6 0.250288 0.320863 0.0835328 0 3 1 
5918 5 0.624243 0.310771 0.0529036 0 1 0 
6833 5 0.889464 0.334802 0.0933819 3 0 5 
7076 5 0.0961165 0.369357 0.038687 1 1 -3 
8037 5 0.344785 0.434598 0.0738926 0 -1 5 
5420 5 0.836922 0.385251 0.0832583 -1 -1 0 
8315 6 0.94249 0.436536 0.0753371 -1 -1 4 
8765 5 0.950454 0.473264 0.0876323 -2 0 3 
8005 6 0.163801 0.519152 0.0835349 3 -1 1 
5167 5 0.538987 0.498283 0.0881139 0 0 -2 
5436 5 0.753912 0.515459 0.0890357 -4 0 4 
5054 5 0.567933 0.497392 0.100515 -2 2 -1 
7841 5 0.55494 0.489682 0.0548005 -9 1 2 
7137 6 0.900006 0.473273 0.0659435 0 0 3 
7920 6 0.226995 0.508427 0.0581442 -6 3 0 
8328 5 0.261525 0.567037 0.084968 3 1 7 
7101 5 0.719657 0.531487 0.0566144 -1 3 -3 
6298 6 0.322215 0.567758 0.0600743 0 -2 5 
5253 6 0.45758 0.575715 0.0566126 0 -2 1 
8897 5 0.234806 0.589071 0.0823762 4 0 -6 
8606 6 0.849832 0.640826 0.0763138 -2 1 1 
7592 6 0.969304 0.638149 0.0859636 -7 -1 0 
8275 5 0.887865 0.668642 0.0826542 2 1 -1 
5060 6 0.139398 0.696648 0.0479912 1 -1 2 
8758 6 0.695231 0.699534 0.0719186 -1 3 0 
6480 5 0.749036 0.712223 0.0996503 4 4 -3 
5942 6 0.467205 0.696957 0.104159 -1 5 5 
5505 6 0.578925 0.744167 0.0710859 2 1 1 
6212 5 0.682051 0.705845 0.0657334 -1 -2 11 
8580 5 0.605423 0.764617 0.0368469 9 -4 -6 
8527 5 0.888208 0.759744 0.070006 0 -3 7 
8886 5 0.311116 0.817341 0.119369 1 1 0 
8850 5 0.407552 0.803731 0.0732727 1 0 3 
7994 5 0.64549 0.849942 0.0747982 -6 0 2 
8402 6 0.885472 0.816096 0.0925385 1 -4 -1 
5284 5 0.093783 0.836064 0.0945753 0 -4 5 
6458 5 0.6979 0.814395 0.0984941 -8 4 1 
6888 6 0.068647 0.86408 0.0813035 3 -2 -1 
5197 6 0.0467602 0.863668 0.0689077 2 1 -3 
8395 5 0.170126 0.860554 0.0993965 2 -3 0 
7181 6 0.751465 0.848036 0.0687353 1 -1 4 
5068 6 0.0704213 0.892632 0.058833 2 2 1 
8849 6 0.48938 0.859168 0.0799558 -2 -2 -1 
7962 6 0.699951 0.904023 0.0891551 -7 -2 3 
8754 6 0.900208 0.89197 0.0386728 0 0 1 
5393 6 0.271831 0.867291 0.0848558 -2 2 -6 
8570 6 0.268852 0.894724 0.0414497 2 2 2 
5549 6 0.383401 0.924728 0.0832528 5 -2 -2 
6945 6 0.524557 0.894587 0.0687998 2 3 -3 
5720 6 0.681992 0.949325 0.0585133 -5 2 -4 
7784 5 0.717001 0.940412 0.049527 0 -1 -5 
8618 6 0.329145 0.994127 0.0842301 -2 -5 4 
5553 5 0.358383 0.991876 0.0944005 -3 -4 -1 
5694 5 0.0505715 0.0423718 0.0945443 1 -4 -2 
5548 6 0.236587 0.0328935 0.116916 4 1 -5 
6585 5 0.60976 0.0150703 0.0957734 -3 0 3 
5281 6 0.431292 0.0662447 0.0805778 1 4 5 
8569 5 0.638989 0.0981755 0.127725 3 -8 2 
8248 6 0.359506 0.149711 0.128201 -3 -1 -4 
7428 6 0.901172 0.0978056 0.115247 -1 1 0 
7893 5 0.549105 0.163008 0.0920496 -2 -2 2 
8021 6 0.683604 0.139998 0.111545 -2 1 3 
5935 5 0.734999 0.195587 0.0959869 4 -3 -1 
5790 5 0.964237 0.199574 0.0933395 1 -6 -2 
6060 6 0.527896 0.203523 0.116652 0 -2 3 
7390 5 0.729549 0.180802 0.0936434 3 2 2 
7211 6 0.822794 0.205043 0.0903304 1 2 -2 
8230 6 0.0836195 0.256998 0.0961858 1 1 3 
8247 6 0.895745 0.23281 0.124771 1 -3 2 
5991 6 0.0638795 0.222954 0.0802385 -5 4 0 
8358 5 0.264745 0.250918 0.0822434 1 -2 3 
6587 5 0.336005 0.22826 0.0961121 -2 -1 6 
8913 5 0.723307 0.209544 0.119392 1 6 1 
8746 5 0.229047 0.250705 0.110615 -1 -2 2 
8405 5 0.318635 0.234831 0.110522 4 -3 1 
8007 6 0.405367 0.239897 0.120005 0 1 -2 
6566 6 0.456325 0.248404 0.0827817 2 0 9 
8307 6 0.798766 0.261644 0.0902522 0 -4 5 
6317 6 0.201354 0.256724 0.0731093 0 -5 1 
7041 5 0.794 0.270606 0.105308 5 2 2 
8123 6 0.110553 0.326089 0.0703057 -4 1 -5 
6437 5 0.153868 0.321896 0.0896671 -1 2 1 
7210 5 0.52995 0.356776 0.0809795 -1 0 6 
8753 5 0.440558 0.359805 0.145361 2 -2 3 
7055 6 0.593732 0.308152 0.0737012 0 1 -6 
6162 6 0.580784 0.332349 0.0565611 1 -4 -3 
5516 6 0.377576 0.362815 0.105458 -2 2 4 
5333 5 0.161255 0.38093 0.103895 -2 6 -1 
5876 6 0.561023 0.395591 0.10457 1 0 1 
6952 6 0.07068 0.436537 0.111304 -2 -5 1 
7880 6 0.151325 0.409646 0.126964 1 0 4 
8514 6 0.44359 0.482624 0.0636574 3 -2 -1 
6519 5 0.457707 0.460578 0.126727 -1 1 -1 
7309 5 0.985555 0.481054 0.121754 -5 3 2 
8617 6 0.152952 0.515902 0.0773614 0 0 6 
8639 5 0.804876 0.535066 0.109432 2 -3 -3 
6471 6 0.945928 0.553161 0.0774816 4 -2 3 
8544 5 0.16621 0.52445 0.119397 -1 -2 -1 
6041 6 0.49785 0.576676 0.113036 -3 0 -1 
6879 5 0.667884 0.544937 0.0731574 -2 -2 3 
5361 5 0.128123 0.571514 0.0748154 2 -5 -1 
8414 6 0.175131 0.558094 0.096584 0 -1 1 
7989 5 0.343705 0.612761 0.123143 2 -3 5 
5641 5 0.324204 0.615676 0.132232 -1 3 -2 
8866 5 0.597822 0.616101 0.092225 -4 2 -4 
7672 5 0.675094 0.638094 0.105319 1 0 -3 
6420 6 0.390698 0.596826 0.0740703 3 1 0 
8220 5 0.132609 0.65569 0.0816784 1 3 -2 
5055 6 0.489878 0.679412 0.0966862 2 7 0 
6334 5 0.0193995 0.720335 0.113072 6 -1 3 
5884 6 0.146568 0.724063 0.110788 1 1 0 
8321 5 0.205318 0.711344 0.0580053 -1 1 -2 
5274 6 0.401698 0.68696 0.0795777 -2 1 4 
7340 5 0.302182 0.726781 0.0921924 1 0 -5 
8938 5 0.298324 0.734975 0.0938018 2 -2 -2 
5484 5 0.499482 0.78247 0.0824849 -1 3 0 
7676 5 0.789115 0.712308 0.0989704 -2 -2 6 
7227 6 0.0689879 0.782163 0.134069 -1 1 2 
6740 6 0.196685 0.772246 0.139438 5 2 -1 
5368 6 0.929731 0.805459 0.0751224 0 -5 -1 
7371 6 0.924795 0.813073 0.0630552 1 0 1 
6652 6 0.982694 0.820645 0.0804284 3 -1 0 
8461 5 0.213312 0.890703 0.109073 5 -3 3 
8576 6 0.344656 0.898387 0.0974771 0 0 -5 
8540 6 0.721083 0.925606 0.0767858 -2 -1 -8 
7836 6 0.32318 0.942189 0.130907 -3 0 -6 
5317 6 0.605427 0.911942 0.0761861 -4 -2 3 
7173 6 0.675471 0.932484 0.0551486 0 -4 2 
7662 6 0.120575 0.920246 0.115099 -5 -2 1 
5115 6 0.207165 0.956867 0.136764 -1 2 0 
5596 5 0.290709 0.934127 0.0830599 -3 4 -3 
7763 5 0.172222 0.983976 0.0743957 3 -2 -5 
5438 5 0.934158 0.950268 0.102185 5 -1 1 
5243 6 0.519848 0.010503 0.126896 -4 2 -3 
6721 6 0.364248 0.018566 0.142506 3 8 3 
8104 5 0.320778 0.964759 0.122857 1 7 2 
6739 5 0.503679 0.0280246 0.10205 0 -2 3 
5708 5 0.188646 0.0497663 0.0871254 2 3 -6 
7098 5 0.494175 0.0774484 0.121143 -6 -3 5 
8702 5 0.575139 0.036701 0.135896 1 2 2 
7010 5 0.310342 0.0205214 0.136384 1 -4 -2 
7176 5 0.588976 0.0801194 0.1161 1 2 -1 
7129 6 0.616983 0.0353857 0.100243 -3 3 5 
6631 6 0.70808 0.102889 0.160301 1 5 -7 
5249 6 0.370352 0.107353 0.138988 -1 -2 1 
7574 5 0.175792 0.10429 0.110861 0 0 0 
5212 6 0.310026 0.0822092 0.0677658 4 1 3 
6457 5 0.355437 0.0616732 0.165974 2 1 0 
8050 6 0.763063 0.0803719 0.113935 2 4 -1 
7365 5 0.921272 0.118532 0.127065 0 -1 0 
8490 6 0.338592 0.12052 0.0983152 -4 2 4 
6500 6 0.80757 0.139573 0.133632 -3 -4 0 
8029 6 0.63618 0.129997 0.0941975 0 -1 2 
5146 5 0.867512 0.183804 0.134563 0 3 -3 
6338 6 0.341538 0.200463 0.116567 3 0 -4 
6068 6 0.261864 0.196472 0.103595 0 3 4 
8175 5 0.920557 0.212167 0.0967192 -2 -3 -1 
8940 5 0.391574 0.267607 0.162045 0 0 -2 
8933 6 0.899394 0.27138 0.108933 -1 0 -3 
7174 6 0.195578 0.288271 0.134224 -1 3 3 
6531 5 0.721415 0.312553 0.0910811 0 -1 3 
5043 6 0.152907 0.309709 0.134827 8 0 -3 
8688 6 0.166077 0.365097 0.11609 -1 1 -2 
8290 6 0.37999 0.378949 0.113126 -2 2 1 
6074 6 0.995284 0.34783 0.117938 -3 -2 -1 
8273 6 0.0562041 0.317056 0.144635 1 4 2 
6291 6 0.43445 0.334813 0.142414 -3 1 -1 
5546 5 0.472273 0.377676 0.103261 0 0 4 
6862 6 0.809104 0.347331 0.0848755 2 2 -1 
5917 5 0.820783 0.311963 0.138463 -5 1 5 
7420 5 0.188671 0.36778 0.122555 -2 1 5 
8823 5 0.36534 0.374259 0.124955 2 -5 4 
8928 6 0.439818 0.376434 0.103481 3 -3 2 
5751 6 0.626152 0.371109 0.104352 3 2 4 
8332 6 0.661033 0.377322 0.13535 0 0 -2 
6407 5 0.295106 0.431909 0.152757 0 1 -6 
5667 5 0.682802 0.439166 0.105132 3 1 0 
5220 6 0.0621335 0.447378 0.145643 0 5 2 
8612 6 0.709405 0.490144 0.107858 0 -4 -1 
7015 6 0.893786 0.404943 0.108825 1 1 0 
8463 5 0.948202 0.421653 0.116389 4 -1 -4 
8877 6 0.278812 0.497875 0.12173 -1 -4 1 
6176 5 0.653555 0.432591 0.126655 1 0 0 
6713 6 0.184469 0.504757 0.101464 -2 -1 -1 
6447 6 0.622464 0.508277 0.112667 2 1 2 
7664 5 0.946104 0.521441 0.150801 -3 -1 4 
6465 6 0.496384 0.542168 0.148381 2 -2 2 
6536 6 0.736254 0.526334 0.109521 3 -2 -3 
5404 5 0.979673 0.542584 0.138838 -3 3 2 
6662 5 0.357944 0.544723 0.0846927 1 1 5 
7345 6 0.683851 0.532234 0.13286 -5 -2 0 
6045 5 0.153058 0.565149 0.131978 -2 1 -4 
7860 5 0.139119 0.567109 0.11514 1 2 -2 
8909 6 0.532909 0.606615 0.137696 1 1 -2 
8578 5 0.561745 0.604205 0.121916 1 -1 7 
7610 5 0.629797 0.585153 0.107256 2 -2 -2 
7736 6 0.357251 0.569909 0.114338 2 0 0 
6223 5 0.381665 0.637299 0.0927979 -3 -3 -2 
6766 5 0.807779 0.581317 0.142089 -3 -2 4 
6345 5 0.160844 0.632372 0.154491 6 -4 1 
5063 6 0.448886 0.621951 0.123029 1 0 2 
8821 6 0.0691965 0.654421 0.0981001 5 -1 -1 
7570 6 0.0989827 0.667029 0.135455 0 0 0 
7555 5 0.465094 0.670441 0.129566 1 0 0 
5320 6 0.998456 0.688998 0.135006 -3 -2 -2 
8678 6 0.414176 0.701466 0.115746 1 3 -2 
8366 6 0.47457 0.746442 0.155256 2 2 -2 
8269 6 0.547659 0.698989 0.138795 2 1 4 
5178 6 0.578134 0.677676 0.109622 -3 0 3 
8662 5 0.701804 0.734232 0.180114 -2 -1 2 
5117 6 0.69515 0.75209 0.15188 6 1 4 
7318 6 0.322097 0.701328 0.0968165 5 5 -1 
5295 6 0.558128 0.774754 0.131009 7 -1 0 
5004 6 0.332957 0.739273 0.124283 0 3 2 
8956 5 0.218043 0.756546 0.133085 8 1 0 
7049 5 0.533832 0.779907 0.135143 2 0 1 
8079 5 0.782072 0.786815 0.130323 -3 0 2 
8107 6 0.722424 0.783469 0.156627 0 6 1 
7916 5 0.201035 0.845338 0.150405 2 2 1 
6815 5 0.738023 0.813369 0.0840894 -3 -1 5 
6127 5 0.879857 0.882696 0.141823 -4 0 2 
6676 6 0.917862 0.863611 0.118967 4 0 3 
7302 6 0.0480668 0.895193 0.10091 2 -6 -2 
5568 6 0.412693 0.891051 0.0989022 1 0 2 
7586 6 0.559079 0.917351 0.0739459 1 3 1 
8724 6 0.951722 0.920588 0.0997272 -2 5 -3 
5189 5 0.0305305 0.939101 0.100477 -4 -1 7 
6805 5 0.210563 0.929165 0.140877 2 -1 -1 
7012 6 0.443703 0.919313 0.14497 0 4 -1 
5509 6 0.736413 0.948145 0.139947 4 2 0 
6455 5 0.890796 0.966221 0.113315 2 1 0 
6035 6 0.942875 0.959424 0.115917 -4 0 -1 
5813 5 0.0525012 0.959653 0.166426 2 2 -1 
8359 5 0.189537 0.950111 0.143506 0 -4 -1 
8868 6 0.387449 0.0193346 0.12818 0 0 7 
5026 5 0.562887 0.012518 0.154273 1 -1 2 
5405 6 0.449573 0.0606098 0.155143 -1 -2 2 
6959 6 0.898516 0.0689335 0.127537 -3 -1 2 
7412 6 0.00609261 0.112766 0.124585 2 2 -6 
5599 5 0.149986 0.0720649 0.126046 1 -5 -1 
5880 6 0.407025 0.0960659 0.111774 3 -2 -1 
8605 6 0.649555 0.0659537 0.138406 0 4 3 
6637 6 0.6366 0.0940234 0.141127 -3 -4 -2 
6875 6 0.776639 0.109612 0.116566 -3 3 -3 
7500 5 0.908427 0.116822 0.172394 0 -2 2 
7998 5 0.11492 0.202085 0.169182 -1 3 1 
7150 6 0.702473 0.170861 0.130714 1 0 2 
7042 5 0.976549 0.220367 0.141655 0 1 0 
6448 5 0.0926355 0.237591 0.140963 -1 1 3 
6663 5 0.259847 0.184653 0.159334 -4 1 4 
8383 6 0.336665 0.192081 0.11555 -2 2 0 
7360 5 0.335592 0.210023 0.154044 0 -2 1 
5489 6 0.543088 0.208298 0.18619 2 3 0 
7127 6 0.740984 0.260855 0.126146 0 2 -3 
5815 5 0.803455 0.24845 0.124204 -1 0 1 
5704 6 0.980406 0.220281 0.154725 -1 1 1 
6972 6 0.255953 0.26906 0.157732 1 2 0 
5906 6 0.509064 0.233102 0.15202 0 1 -2 
8627 6 0.717271 0.251055 0.182904 0 -2 3 
6108 6 0.871017 0.291481 0.120289 -1 3 3 
6915 5 0.957239 0.233255 0.128336 -1 8 -3 
7104 6 0.31004 0.283096 0.11824 2 4 3 
7631 5 0.558619 0.361471 0.138119 1 0 1 
8559 5 0.7896 0.342245 0.149872 -4 2 1 
6943 6 0.0133477 0.340649 0.103983 0 -2 3 
7844 5 0.131164 0.374776 0.151429 3 7 1 
5067 5 0.178566 0.365341 0.160337 0 4 -3 
6417 6 0.157265 0.408022 0.179073 -2 -4 6 
7164 6 0.00966075 0.438619 0.162257 -1 1 1 
8870 5 0.243071 0.444467 0.183522 -4 -4 3 
8326 5 0.568386 0.458904 0.152096 -3 -3 -3 
5076 6 0.68234 0.353402 0.17381 -1 4 -1 
8210 6 0.00183096 0.472265 0.141249 2 6 4 
5526 5 0.229041 0.449055 0.179504 0 7 4 
5521 6 0.543227 0.484738 0.156258 1 1 -3 
6069 6 0.631732 0.453603 0.154347 -4 0 -2 
7449 6 0.681922 0.494807 0.16939 2 1 4 
6849 6 0.8495 0.407291 0.125461 -2 0 2 
6409 5 0.0425828 0.487917 0.1612 1 3 -1 
5414 5 0.524828 0.490285 0.159466 2 1 0 
6980 6 0.617722 0.4754 0.159483 4 0 2 
6380 6 0.387398 0.514421 0.152838 -1 0 -1 
5798 5 0.438597 0.510028 0.128491 0 -1 4 
8302 5 0.533562 0.49387 0.13948 3 1 3 
5086 6 0.65133 0.492982 0.142393 4 -2 2 
7762 6 0.935697 0.495066 0.173765 -1 0 1 
5814 6 0.431284 0.567016 0.167174 1 -3 4 
6040 5 0.465562 0.561711 0.134422 5 -2 2 
6963 5 0.376869 0.601393 0.147267 -2 2 -2 
8841 5 0.452089 0.637998 0.125279 4 1 -2 
7348 6 0.48454 0.615622 0.151733 0 -2 1 
8562 6 0.720452 0.743555 0.169945 3 1 1 
6241 6 0.97339 0.678959 0.160882 -2 0 2 
5980 5 0.400799 0.703332 0.175304 -3 -5 3 
8900 5 0.422491 0.735095 0.183274 0 -1 -2 
5718 6 0.933575 0.699859 0.146094 5 0 -2 
8033 6 0.00704339 0.76023 0.159228 -3 1 0 
7419 5 0.144257 0.734509 0.16568 -8 2 0 
7349 5 0.877161 0.750161 0.125901 -4 -5 -3 
5025 5 0.997243 0.727685 0.164192 -2 -4 0 
8761 6 0.153106 0.771902 0.136672 -2 2 -1 
6019 6 0.513344 0.764622 0.194518 0 2 1 
5349 5 0.828046 0.786758 0.136972 -1 1 0 
6660 5 0.0308927 0.813756 0.183174 -4 -2 1 
5724 5 0.0840687 0.758003 0.163526 1 2 -2 
8184 6 0.130926 0.79262 0.145253 -2 1 2 
6689 5 0.180071 0.786028 0.151666 -5 -3 3 
7910 5 0.22261 0.777851 0.185179 -6 -3 2 
5578 6 0.705442 0.826688 0.144694 -1 -1 2 
7871 5 0.0133162 0.819404 0.153847 -1 3 2 
7991 5 0.361551 0.811084 0.154999 2 2 0 
5536 5 0.639883 0.83293 0.186458 6 -3 1 
6314 6 0.129731 0.848519 0.132148 -6 1 0 
6182 5 0.419225 0.854978 0.15673 -9 -4 1 
8682 5 0.351474 0.869532 0.172455 -1 -2 3 
6832 6 0.791401 0.876296 0.134109 1 -2 1 
8224 5 0.965203 0.902481 0.148989 1 6 -2 
8586 6 0.342163 0.869651 0.129376 1 -2 0 
7543 5 0.497627 0.884041 0.152593 -1 0 -4 
6368 6 0.804597 0.887365 0.168921 -5 -3 1 
7748 6 0.145283 0.922676 0.181273 1 -3 3 
5766 5 0.135466 0.904048 0.149492 -3 1 1 
6936 5 0.10469 0.963194 0.165547 0 -5 1 
7203 6 0.239823 0.911335 0.125275 0 -1 -2 
8368 6 0.465088 0.956035 0.172605 -6 0 -7 
5092 6 0.690604 0.999566 0.125132 2 5 3 
7497 5 0.745572 0.988835 0.196678 -2 -1 2 
5209 5 0.0313855 0.0305141 0.169305 0 5 -3 
6935 5 0.263922 0.0433565 0.158306 2 3 1 
5072 5 0.412042 0.00774117 0.185035 -2 -3 -5 
8491 6 0.36594 0.040555 0.165062 -2 2 3 
6561 6 0.377675 0.0825847 0.157992 0 -1 -6 
7080 6 0.670965 0.0821659 0.131519 4 -3 3 
8733 5 0.00509066 -0.000588799 0.135872 4 -2 3 
8475 6 0.273156 0.0321054 0.167365 2 0 -2 
8539 5 0.414635 0.0572872 0.159561 0 0 -1 
8130 5 0.554971 0.0738529 0.16613 4 3 3 
6516 6 0.0240299 0.0747357 0.167661 -4 -2 -6 
5275 6 0.281992 0.103356 0.134817 -4 2 -4 
6058 5 0.500686 0.0794561 0.155167 -2 -3 -3 
7711 5 0.774083 0.0903019 0.19281 -3 -1 0 
8342 6 0.859401 0.0488899 0.170161 -9 -7 2 
5357 5 0.404375 0.0871753 0.149056 -3 -1 2 
5199 6 0.712952 0.157574 0.172283 -2 5 5 
6841 6 0.0508274 0.204162 0.222712 0 1 2 
5640 6 0.868399 0.179021 0.193112 -10 2 -3 
5214 5 0.422613 0.207284 0.151613 1 3 -3 
6052 6 0.609626 0.239958 0.119231 -1 3 0 
5825 6 0.742891 0.270305 0.204321 -1 0 6 
8652 5 0.718524 0.240947 0.165287 0 2 3 
5958 5 0.052527 0.328874 0.185213 4 3 1 
7929 5 0.078636 0.294907 0.138655 4 3 -3 
7692 5 0.281901 0.331834 0.205123 2 -1 -2 
5091 6 0.622992 0.313773 0.17677 1 1 -1 
7387 6 0.330814 0.333491 0.176693 1 -5 3 
6845 6 0.430802 0.319329 0.132188 1 3 4 
8474 6 0.79147 0.29447 0.152952 1 0 1 
7980 5 0.864996 0.312413 0.190262 3 -3 3 
7333 6 0.49258 0.362363 0.170839 3 2 -2 
8700 5 0.759313 0.4089 0.183364 -1 -3 0 
8795 6 0.224093 0.428858 0.175473 -3 -2 -6 
5143 5 0.516943 0.389993 0.171354 -3 4 0 
6839 5 0.113697 0.401853 0.19695 -2 -1 5 
6951 5 0.125626 0.466752 0.166192 1 -1 2 
5344 5 0.666429 0.505147 0.190851 1 3 -1 
7642 6 0.826878 0.53125 0.195223 -1 4 0 
6268 5 0.936434 0.505394 0.15343 0 1 1 
5576 5 0.997573 0.519948 0.155268 0 -4 4 
8303 6 0.0826639 0.520082 0.16108 1 1 2 
6922 5 0.18204 0.536824 0.151543 1 1 4 
7618 6 0.803068 0.51338 0.177965 4 5 2 
5535 6 0.859028 0.551637 0.192599 -1 -3 0 
6018 5 0.618745 0.605632 0.182913 -1 -3 3 
8564 5 0.83444 0.6094 0.1633 -2 -1 1 
7248 5 0.0424401 0.646187 0.179659 1 2 6 
5524 6 0.39116 0.590383 0.142874 -2 -1 0 
7328 5 0.745922 0.662175 0.171788 -6 0 -2 
7475 5 0.746556 0.629071 0.160482 4 -4 1 
5018 6 0.485304 0.617974 0.188162 -1 1 -2 
6594 5 0.228369 0.688778 0.135131 3 3 4 
8881 5 0.586147 0.669783 0.192813 -3 -3 1 
6135 6 0.698054 0.642818 0.203613 2 5 0 
5288 6 0.845378 0.672517 0.17028 0 2 -2 
6159 5 0.333983 0.698154 0.166255 1 4 3 
5049 5 0.45827 0.725041 0.18518 2 -5 1 
6754 5 0.729271 0.700162 0.149931 -1 0 0 
7933 5 0.218049 0.727813 0.201482 -2 4 3 
5722 6 0.692141 0.718071 0.217517 4 -1 1 
8825 5 0.777264 0.67894 0.174061 -1 5 3 
6509 5 0.259756 0.770998 0.179477 -4 2 -2 
5364 6 0.55012 0.731798 0.167834 3 -2 -4 
5754 6 0.737416 0.773805 0.169561 6 0 -3 
6671 5 0.78567 0.770906 0.173342 0 0 2 
8093 5 0.743602 0.780465 0.19611 1 -5 3 
5971 5 0.510605 0.79704 0.205751 0 2 0 
7926 6 0.596338 0.803304 0.174286 -6 1 -2 
7948 6 0.772913 0.771483 0.126825 0 1 -5 
8593 5 0.928868 0.810195 0.188517 1 4 -1 
8455 6 0.251559 0.839075 0.151132 -3 -2 1 
8914 6 0.442267 0.858868 0.220164 0 2 -3 
6692 6 0.424923 0.83863 0.147223 0 0 -4 
6830 6 0.853424 0.886603 0.182427 2 6 -4 
5745 6 0.474502 0.8532 0.166072 -1 3 0 
7105 6 0.477529 0.872004 0.18435 3 6 -1 
6272 6 0.502103 0.90398 0.169713 -3 1 -2 
5468 5 0.769099 0.838023 0.16571 1 5 3 
7518 5 0.834113 0.886309 0.201599 3 -1 -1 
8561 6 0.971844 0.88172 0.17244 -2 7 2 
8257 5 0.773868 0.911824 0.15079 1 -5 3 
5280 6 0.0639505 0.928169 0.177883 0 4 2 
6186 5 0.311613 0.973425 0.159539 1 -3 -1 
6861 6 0.378356 0.923901 0.147668 2 0 1 
7993 6 0.530067 0.918826 0.175823 3 1 2 
8191 6 0.666697 0.943962 0.184737 0 1 -4 
7524 6 0.929218 0.947715 0.178264 -4 -2 1 
8095 6 0.357653 0.963528 0.191401 3 0 1 
8583 6 0.399063 0.968595 0.199544 -3 -6 5 
7757 6 0.861921 0.983601 0.160396 -6 -3 1 
8736 6 0.928156 0.981935 0.180274 -3 4 -2 
7307 5 0.452846 0.0069763 0.212274 -3 -1 -3 
7716 6 0.0742447 0.0160928 0.207671 1 0 0 
6211 5 0.0942348 0.0225802 0.179341 -2 2 5 
8975 5 0.764301 0.0524459 0.186106 0 -2 0 
5857 5 0.955161 0.0686942 0.176917 -5 -2 -1 
6130 6 0.533663 0.0869233 0.158143 -2 -1 -2 
7392 6 0.237671 0.0987049 0.188519 -2 0 -2 
6155 5 0.593397 0.0746129 0.155421 -3 2 0 
5770 5 0.057811 0.143599 0.170045 -6 1 3 