ITEM: TIMESTEP
50000000
ITEM: NUMBER OF ATOMS
9000
ITEM: BOX BOUNDS pp pp pp
-75 75
-75 75
-75 75
ITEM: ATOMS id type xs ys zs ix iy iz 
6365 6 0.715448 0.989822 0.0198119 4 2 1 
7482 6 0.71757 0.0478831 0.0127688 6 -4 -6 
7449 5 0.764574 0.0903214 0.000954546 8 -5 5 
5867 6 0.774379 0.0789207 0.00704108 1 0 1 
6711 6 0.122209 0.112875 0.00361984 0 2 -1 
7947 6 0.647344 0.0880223 0.0514016 7 3 3 
7021 6 0.0163859 0.128064 0.971289 2 -1 3 
5223 5 0.188858 0.137504 0.00926312 -4 -7 5 
8079 6 0.692128 0.130302 0.0343038 5 -6 5 
7039 5 0.597268 0.123542 0.0136342 2 -2 -6 
5280 5 0.867466 0.139271 0.0128786 4 8 0 
6189 5 0.443587 0.196536 0.0359781 5 4 10 
8371 5 0.744374 0.225343 0.0546854 1 -9 5 
8246 5 0.961617 0.230598 0.00735152 -2 3 -3 
8355 6 0.873579 0.189372 0.00823787 3 -3 0 
7913 6 0.74006 0.259238 0.991985 -1 -1 -1 
6631 5 0.101322 0.293539 0.0389125 3 2 0 
6146 5 0.201032 0.305083 0.0112422 -8 -3 -3 
5377 6 0.493656 0.29888 0.018468 -8 4 3 
8003 6 0.158865 0.32813 -0.000153193 6 -7 -4 
5367 6 0.302011 0.337396 0.971958 -4 2 3 
8435 5 0.859559 0.323504 0.0304779 7 4 -1 
5488 6 0.0229142 0.299514 0.0392913 2 5 9 
6069 6 0.531998 0.379576 0.976193 -1 7 -5 
8830 5 0.845633 0.32021 0.0413131 0 2 3 
6021 5 0.239991 0.376805 0.00926206 -3 -2 -2 
8178 6 0.449225 0.355184 0.00746669 3 -2 -1 
5814 5 0.514193 0.347709 0.0387218 1 -4 -8 
7030 6 0.788024 0.386215 0.0154204 1 -2 3 
5171 6 0.470804 0.402462 0.0399824 -7 -3 2 
6205 6 0.737359 0.387179 0.981024 11 -2 -3 
5118 5 0.833299 0.376596 -0.000383934 -5 3 5 
7095 6 0.937015 0.370152 0.987229 -5 -2 -7 
6807 5 0.307182 0.413365 0.0413775 -4 0 -2 
5626 5 0.0627817 0.448364 0.0164679 6 4 -3 
7944 6 0.146738 0.449995 0.987664 4 5 0 
8768 6 0.426239 0.481997 0.0113135 6 -8 0 
8171 6 0.712991 0.46881 0.0013415 2 -1 2 
5457 5 0.653105 0.487804 0.00617354 3 2 -6 
7728 5 0.00770705 0.462977 0.0451143 -1 -8 0 
5534 6 0.483401 0.471427 0.0252599 -1 -4 -1 
8796 6 0.705994 0.47767 0.0328458 -3 6 0 
6717 6 0.912676 0.458177 0.0158935 -6 12 -3 
8122 6 0.641723 0.485148 0.00457661 -2 1 -1 
7031 5 0.732661 0.48089 0.988037 -7 1 3 
5269 6 0.32401 0.482829 0.974707 7 -3 -2 
7530 5 0.87538 0.486494 0.983947 0 -4 6 
7854 6 0.981041 0.548369 -0.00255111 -6 1 -5 
8050 6 0.176437 0.531541 0.00863722 3 2 -4 
5347 5 0.69243 0.537057 0.0225549 2 5 -9 
7256 6 0.713791 0.515837 0.0163152 2 11 0 
7211 6 0.942961 0.540237 0.0112286 5 3 -5 
5751 6 0.109945 0.584887 0.98523 2 -3 2 
6778 6 0.356964 0.604674 0.0319417 -1 3 5 
6515 5 0.404425 0.599154 0.0174965 0 -5 0 
7400 5 0.874437 0.59175 0.997174 6 4 8 
6218 5 0.808285 0.65782 0.952444 0 -6 -4 
7664 6 0.619051 0.638353 0.0105851 -4 -4 -1 
8508 5 0.358691 0.672457 0.00146733 -1 -7 -6 
6703 6 0.560367 0.672447 0.0216281 -7 8 3 
5583 5 0.778016 0.638882 0.0157289 0 7 2 
7824 6 0.406565 0.629128 0.0126077 5 -4 1 
7607 5 0.499963 0.685475 0.0191621 -6 6 -2 
6209 5 0.855846 0.713761 1.0019 -2 -14 -3 
7490 5 0.880666 0.732354 0.0316599 -2 8 6 
7827 5 0.634598 0.703619 0.0145942 -5 -3 5 
6902 6 0.4513 0.770241 0.00399607 2 -3 6 
5326 5 0.0514549 0.795023 -0.00300687 2 1 2 
7340 6 0.539475 0.798085 0.0251301 -10 1 1 
5492 6 0.695838 0.88435 0.983335 -9 3 5 
5695 5 0.0265357 0.890309 0.0143609 2 -2 -5 
6392 6 0.27666 0.86729 0.0212872 6 4 -1 
6086 5 0.745304 0.868214 0.0254617 -1 1 -2 
5114 5 0.151247 0.926214 0.0170615 -2 0 5 
8458 6 0.367854 0.93293 0.000258923 0 -1 -8 
8553 6 0.412233 0.849529 0.972076 -1 8 0 
8942 6 0.866235 0.915405 0.0274704 -2 2 -3 
5467 5 0.843301 0.930093 0.973236 8 0 -8 
7563 5 0.453812 0.953918 0.012527 0 -2 3 
8756 6 0.900812 0.985525 0.0127112 -2 -2 -6 
6221 6 0.926943 0.957309 0.0114595 -1 5 3 
5557 5 0.0999458 0.928993 0.986169 -7 -4 6 
7869 6 0.97039 0.934201 0.021863 -5 5 1 
8657 6 0.973716 0.970798 0.0200341 4 1 2 
7901 5 0.15698 0.986782 0.017922 2 3 -2 
6144 6 0.332321 0.986018 0.031362 -11 -3 -7 
8088 6 0.85659 0.0087144 0.0137305 -2 -3 -7 
8487 6 0.926594 0.998163 0.0628897 -7 -1 -8 
8984 6 0.940848 0.986518 0.0225343 2 -2 -5 
5896 5 0.206901 0.0492917 0.0299792 1 -9 -7 
8300 5 0.221281 0.00161994 0.0428305 -3 4 0 
7558 6 0.331109 0.0473475 0.985382 3 4 -1 
8187 5 0.517915 0.980982 0.00795093 3 -3 -1 
5296 6 0.554659 0.0345567 0.0219352 3 5 6 
5351 6 0.947804 0.0288711 0.986836 -1 5 -1 
6325 5 0.19952 0.0640478 0.0283403 -9 6 6 
5454 6 0.525494 0.0653501 0.0465982 -5 8 3 
7678 6 0.721041 0.0711638 0.0688187 3 -5 5 
7219 5 0.0381429 0.163524 0.0386095 6 2 1 
5786 5 0.320887 0.117492 0.041484 -4 0 -2 
5529 6 0.545418 0.118106 0.0410671 3 -8 2 
8265 5 0.762784 0.118753 1.00194 -8 -3 -3 
8280 5 0.965621 0.110309 0.0447679 5 2 0 
8319 6 0.465789 0.160704 0.0440949 -3 3 7 
8640 6 0.246272 0.14882 0.0129873 -7 -4 1 
8594 5 0.269164 0.190658 0.0497355 -6 -1 -1 
5672 6 0.149154 0.19822 0.0256333 -3 -9 -4 
5538 5 0.262205 0.234136 0.000720783 4 1 3 
5464 6 0.639146 0.23531 0.0260086 1 -1 -9 
7769 5 0.431386 0.262766 0.0500287 -3 5 -6 
5085 5 0.464791 0.296076 0.0362487 -1 6 3 
6198 5 0.907417 0.245274 0.0547945 1 9 -2 
7188 6 0.98874 0.242146 0.0402436 1 4 2 
6447 6 0.261405 0.257936 0.998813 -3 3 -2 
8893 6 0.289442 0.255967 0.0410602 -5 -12 -3 
8628 6 0.721813 0.267014 0.0629717 -4 0 -7 
7445 5 0.773299 0.287271 0.0272523 2 -4 0 
5960 5 0.705082 0.292731 0.0374264 3 -5 2 
8119 5 0.334651 0.303892 0.0503071 1 -2 2 
5371 5 0.391541 0.324211 0.0323491 -4 3 -6 
8699 5 0.337043 0.363693 0.0101461 6 2 -2 
8966 5 0.898366 0.331122 0.0696291 7 -1 -2 
8287 5 0.0649367 0.384806 0.0306632 4 -6 10 
7552 6 0.416782 0.344592 0.024976 5 9 8 
7681 5 0.866205 0.38526 0.0206653 -10 -6 12 
5748 5 0.161935 0.37614 0.0691178 1 -7 -3 
8980 5 0.399167 0.404465 0.0369986 -2 -4 -2 
8034 5 0.575785 0.383747 0.0372115 5 -1 -2 
6358 6 0.0367295 0.418608 0.048963 0 1 3 
7662 5 0.12281 0.43937 0.0393937 0 0 -5 
7091 6 0.281054 0.43629 0.996376 3 -10 3 
8749 5 0.260724 0.44023 0.0400067 1 1 8 
7259 5 0.395171 0.448157 0.0313401 5 -1 -4 
7483 6 0.957098 0.410798 0.99159 -2 -3 3 
5230 6 0.16215 0.427561 0.0127582 -2 -3 7 
8821 5 0.32344 0.511692 0.049264 1 9 -2 
6552 5 0.222854 0.538459 0.0366276 5 0 0 
6722 5 0.559474 0.54384 0.0433814 0 0 6 
6906 5 0.758364 0.564531 0.0317748 -2 -9 -6 
6609 5 0.980187 0.543998 0.0356722 -4 1 1 
7371 5 0.628846 0.572085 0.0480778 -1 0 1 
7700 5 0.575548 0.589807 0.0768436 -1 6 0 
6361 5 0.101124 0.595839 0.0392941 -5 -4 -3 
8915 6 0.22101 0.663915 0.0233082 4 2 3 
7434 6 0.23134 0.654026 0.0442294 6 -3 1 
7917 6 0.261253 0.644853 0.077535 -1 -3 -7 
6191 6 0.864277 0.679153 0.0453904 6 -4 2 
5889 6 0.840922 0.660324 0.0690653 5 -8 5 
6056 5 0.976756 0.688831 0.00402167 -5 -2 -5 
5011 5 0.0114931 0.639648 0.00312936 4 -4 4 
5336 5 0.0976418 0.67859 0.016434 -3 6 -3 
7743 6 0.279012 0.656127 0.0570301 4 1 1 
5168 6 0.319658 0.708164 0.045566 8 -4 -4 
8737 6 0.437484 0.701728 0.0569239 -2 -1 -5 
5405 6 0.104377 0.729153 0.0285831 -2 -8 -5 
7132 6 0.294558 0.758846 0.013628 -5 -2 1 
5670 6 0.375457 0.709411 0.0445177 -4 -2 -3 
5962 5 0.551867 0.706555 0.0410273 2 -9 -4 
7846 6 0.0450352 0.745347 0.0119271 1 -4 -3 
5664 6 0.217661 0.794144 0.0277999 0 -1 2 
8934 6 0.715324 0.749547 0.0267863 0 -1 -10 
6803 6 0.880235 0.80828 0.0598712 0 2 -1 
7937 6 0.726905 0.733402 0.0388094 -9 -12 4 
8616 5 0.990426 0.754086 0.0183138 -4 -9 7 
5013 6 0.623905 0.788356 0.0513001 -2 4 7 
8228 5 0.626227 0.837625 0.0371964 2 -2 -4 
5671 6 0.205686 0.836853 0.0226937 -6 1 -4 
6175 5 0.124397 0.86346 0.00869914 3 14 -2 
8496 5 0.113849 0.874465 0.00854512 5 3 2 
8133 6 0.990914 0.873842 0.000416681 2 -2 -6 
6777 6 0.120248 0.910423 0.0481159 2 -3 -6 
5838 6 0.685259 0.905719 0.036082 -1 -1 6 
6851 5 0.713218 0.933541 0.0432861 3 -6 4 
5837 6 0.10471 0.921449 0.995845 -2 4 -9 
6830 6 0.119044 0.962186 0.0212403 -3 1 -3 
5144 5 0.616829 0.941769 0.0173794 -1 -1 10 
5072 6 0.984308 0.964131 0.0477224 -3 6 6 
8672 6 0.31527 0.0102177 0.027212 6 -3 -7 
8973 5 0.480728 0.995824 0.0202956 -2 -6 -5 
6257 6 0.812826 0.948643 0.995895 -8 -6 5 
6918 6 0.855808 0.0242227 0.0119289 -8 -5 -1 
7065 5 0.292918 -1.53788e-05 0.0508563 -1 -2 2 
5132 5 0.364937 0.992151 0.0754871 1 0 -2 
7657 5 0.860624 0.986425 0.0619487 -3 2 -8 
7203 6 0.641791 0.0136347 0.0396617 3 -8 -7 
6981 6 0.146901 0.0479173 0.057993 3 1 -2 
5005 6 0.924164 0.0758847 0.0350178 -3 0 1 
5422 6 0.0733437 0.103195 0.0751058 1 3 0 
6818 6 0.0784198 0.0519971 0.0817701 -3 7 4 
5162 5 0.122128 0.109539 0.0235838 3 -5 0 
6946 5 0.176394 0.0757952 0.0433318 -3 5 -1 
5058 6 0.240771 0.181505 0.0192816 -1 8 4 
6202 6 0.472196 0.126568 0.0424569 -4 -1 4 
6246 6 0.111872 0.181808 0.0713214 -2 4 0 
8636 6 0.826092 0.178149 0.0643947 1 3 0 
5675 5 -0.000121508 0.151429 0.0972984 5 -6 -3 
8439 6 0.537728 0.178139 0.0512568 -3 -1 -9 
8801 5 0.255429 0.211304 0.0428902 -5 -4 1 
5767 6 0.755483 0.251103 0.0395474 2 5 -5 
7286 6 0.827921 0.227015 0.068613 0 5 7 
6606 5 0.969759 0.237805 0.0733504 -1 -4 0 
6930 5 0.0844713 0.27097 0.0521031 -7 7 -1 
5380 5 0.27323 0.229439 0.057024 0 -8 -6 
8027 5 0.27959 0.241774 0.100801 4 -5 6 
5932 6 0.0788758 0.266941 0.0773139 1 -5 0 
7410 6 0.523023 0.283541 0.06521 2 10 5 
8121 6 0.936088 0.291237 0.0766334 -4 -6 1 
7738 5 0.963976 0.281561 0.0482673 2 0 10 
7506 6 0.435093 0.339022 0.0213655 4 -2 -4 
5201 6 0.954082 0.321028 -0.00443813 -2 3 5 
6270 6 0.431609 0.35098 0.0719323 6 -6 3 
5612 5 0.504011 0.32921 0.00663798 2 0 10 
8540 6 0.600126 0.310518 0.0651374 1 -4 -2 
7305 6 0.715443 0.333956 0.0656422 -6 -2 4 
7276 6 0.727195 0.323746 0.0586477 -3 16 0 
5800 6 0.963895 0.396641 0.0503873 -4 -3 -6 
7008 6 0.741485 0.355582 0.0651914 -1 -5 0 
6744 6 0.0481327 0.438989 0.0627219 -1 2 7 
6173 6 0.753665 0.43131 0.058256 0 6 5 
7877 5 0.931 0.408084 0.0359467 2 2 -1 
5332 6 0.133059 0.488959 0.0164698 0 6 -3 
5150 6 0.0358294 0.484312 0.0263885 5 5 -4 
5778 6 0.481747 0.473886 0.0410372 -2 -2 5 
7868 5 0.977813 0.528164 0.0365643 0 -5 -4 
8804 5 0.473681 0.542895 0.088982 0 1 5 
8608 6 0.829572 0.525623 0.0511893 3 2 2 
6977 6 0.177712 0.578827 0.0452975 -2 4 2 
5706 5 0.260111 0.638552 0.0397981 4 0 -6 
5395 6 0.371151 0.618946 0.0588884 3 3 2 
6129 6 0.852658 0.69645 0.0482684 8 3 2 
8746 5 0.231882 0.70318 0.0832843 -4 3 -2 
6576 6 0.578065 0.68503 0.0201951 2 0 3 
5282 6 0.91385 0.699698 0.0723684 5 1 -1 
8437 6 0.963319 0.688577 0.0196931 -6 3 -4 
8663 5 0.145145 0.772857 0.0676966 0 -9 -1 
8431 5 0.639213 0.776115 0.0802978 -4 -4 13 
5768 6 0.840319 0.746691 0.0358887 -2 -2 2 
6615 6 0.317125 0.740666 0.0504436 0 -9 3 
6986 6 0.387768 0.748813 0.0593311 -4 4 -1 
7568 6 0.147767 0.785817 0.0861049 5 0 -15 
6329 6 0.37289 0.805928 0.076744 -3 -3 -4 
7479 6 0.622347 0.783791 0.0743471 -3 4 -1 
8052 6 0.676062 0.857043 0.0992546 4 1 3 
6575 5 0.0604768 0.843755 0.0917503 1 5 -6 
5151 6 0.0527474 0.83853 0.0786627 3 3 -4 
5473 6 0.486059 0.849304 0.033935 2 -2 -1 
5878 5 0.287599 0.853204 0.0914262 8 1 2 
8241 6 0.536962 0.860481 0.0651503 -7 4 -6 
6427 5 0.556963 0.884242 0.0940557 1 -2 6 
5799 6 0.73859 0.893198 0.0534071 -1 -3 -2 
6350 6 0.964669 0.886277 0.0906401 6 3 2 
6347 5 0.924279 0.91336 0.10014 -7 0 -1 
6943 6 0.237172 0.916675 0.0694434 -2 1 0 
8302 6 0.421336 0.95891 0.0974506 -3 -3 -3 
8940 5 0.416676 0.921024 0.0439089 3 2 -3 
8030 6 0.771376 0.929769 0.0556631 -2 5 -2 
8894 6 0.0501732 0.961685 0.0679758 0 -3 0 
6307 5 0.807719 0.950633 0.0512907 0 -1 -4 
7471 6 0.14801 0.0276189 0.0667899 0 9 1 
5884 5 0.285422 0.980512 0.0398774 10 1 -4 
8659 5 0.860569 0.0324756 0.0585904 -1 2 0 
5091 6 0.158063 0.0746703 0.0862826 6 -1 1 
7771 5 0.645487 0.0667279 0.0756621 1 -2 1 
5232 5 0.432871 0.0568567 0.100161 -3 3 -4 
6267 6 0.171121 0.11221 0.0813063 4 7 -1 
8996 6 0.223629 0.0978096 0.0866711 1 14 -3 
6788 6 0.89189 0.0988558 0.0629368 0 7 5 
7373 6 0.898292 0.0781882 0.0664585 0 3 -1 
5994 6 0.51549 0.0970204 0.0840134 2 0 9 
8775 5 0.584445 0.110109 0.0617271 0 3 2 
7533 6 0.0139648 0.112365 0.0909658 -5 4 3 
6735 5 0.0647105 0.104056 0.0606546 3 -1 -1 
5555 6 0.376408 0.174553 0.090305 1 5 4 
6089 6 0.421573 0.165972 0.0914414 8 2 3 
7106 6 0.0988748 0.215998 0.0955364 7 1 -2 
6448 5 0.202648 0.205289 0.0950228 2 1 -1 
8714 6 0.985816 0.221479 0.0198034 -1 -1 -1 
7950 6 0.536828 0.249831 0.108057 -2 -1 4 
5914 6 0.588349 0.248106 0.0735212 4 -5 11 
7230 5 0.870364 0.223156 0.0503127 2 3 1 
6647 5 0.542916 0.309703 0.0961833 3 -1 -4 
8358 6 0.825234 0.302061 0.0887518 2 1 -4 
7217 6 0.40499 0.313648 0.0838168 0 4 4 
7857 6 0.74602 0.273498 0.0710359 0 -8 1 
8258 5 0.811694 0.334443 0.0869004 -1 -6 -4 
5155 5 0.360887 0.294624 0.0469213 1 -3 -2 
6543 5 0.750026 0.311581 0.107496 -2 4 3 
5465 6 0.184018 0.350915 0.0950156 -1 -1 7 
7257 6 0.23623 0.36234 0.0830309 -6 -7 0 
5506 6 0.535239 0.361734 0.0803064 -3 -12 0 
5791 5 0.856399 0.395741 0.0616326 0 -4 3 
8305 6 0.916066 0.386312 0.103742 -5 -4 0 
5181 5 0.101212 0.411095 0.0726905 6 -6 0 
7825 6 0.82649 0.463419 0.104649 -1 1 0 
8456 5 0.946841 0.429457 0.0955599 -7 1 2 
6904 6 0.995563 0.452165 0.0718302 -8 -14 2 
5893 6 0.75623 0.455328 0.0748644 -3 -4 -8 
6290 5 0.171431 0.51709 0.0797994 0 -9 6 
5702 5 0.344213 0.468096 0.0285744 1 3 -1 
8384 6 0.427453 0.475746 0.0657595 3 2 0 
8010 5 0.224999 0.482425 0.103052 -3 2 3 
6786 5 0.703128 0.515098 0.0861816 5 1 -9 
6932 5 0.913388 0.516798 0.060163 8 -1 0 
5571 5 0.47447 0.543644 0.0516313 -1 -4 -7 
8135 6 0.901634 0.530012 0.0964028 -1 -3 -2 
6242 5 0.0240079 0.59216 0.0982171 3 4 -5 
8164 6 0.157191 0.626048 0.0710824 5 -2 1 
7904 5 0.179208 0.611496 0.0964236 0 0 -3 
8512 6 0.216811 0.668944 0.0931015 0 -7 -3 
6699 6 0.973944 0.655028 0.0842622 0 6 -3 
6757 5 0.0394849 0.687857 0.0694618 14 0 -5 
8967 6 0.395156 0.660602 0.0445532 -1 7 -10 
5902 5 0.18269 0.654802 0.0674369 1 2 0 
6438 6 0.340473 0.666964 0.0771898 6 -1 -4 
8157 6 0.152881 0.683059 0.0700707 -8 4 -8 
8372 6 0.460867 0.714389 0.0458963 3 3 10 
8641 6 0.579739 0.719537 0.116542 -4 -1 4 
8558 6 0.402684 0.714817 0.0742357 -6 -4 -3 
7519 6 0.135393 0.758567 0.106323 -3 -3 1 
8551 5 0.378972 0.716834 0.0775415 4 -1 3 
8730 5 0.807225 0.81292 0.0432413 -1 -3 2 
5453 5 0.164426 0.788194 0.0816752 4 3 1 
6714 5 0.137514 0.841888 0.04637 2 -1 5 
8548 5 0.268214 0.824055 0.0673271 -2 -6 9 
7245 6 0.834068 0.855376 0.101167 2 2 -1 
8631 5 0.0775842 0.832762 0.0610991 -2 -1 -2 
7386 5 0.788105 0.805073 0.0915384 -1 8 -2 
7392 5 0.926977 0.858201 0.0871145 -4 1 1 
5793 5 0.106987 0.888493 0.0523404 1 -6 4 
8225 5 0.969079 0.893963 0.119631 0 -4 5 
7074 6 0.99485 0.892155 0.0882132 -3 11 -3 
8035 6 0.244179 0.944751 0.0614672 -1 2 -7 
6292 5 0.505473 0.922388 0.0582693 8 -1 7 
6681 5 0.850565 0.928442 0.0644945 5 -1 -6 
6327 6 0.3184 0.946674 0.0457361 1 3 6 
5508 6 0.913601 0.964923 0.0373146 -2 2 6 
5154 6 0.0306058 0.0296421 0.0949807 3 -3 4 
8931 5 0.416536 0.996571 0.0853336 6 0 3 
5063 6 0.275006 0.985073 0.0813751 0 1 1 
6751 6 0.525778 0.0274271 0.101399 -3 0 0 
8056 6 0.260699 0.0570829 0.0827633 -3 -6 -6 
6837 5 0.522836 0.118697 0.121887 3 6 -3 
5495 6 0.140638 0.0491397 0.116324 4 1 -1 
7666 6 0.0383832 0.111566 0.116503 0 7 -1 
7249 6 0.120747 0.14331 0.12442 2 10 2 
5643 6 0.320384 0.0808769 0.0780162 -3 0 1 
7839 5 0.345013 0.115987 0.0883098 -6 -7 -3 
6027 6 0.514496 0.109509 0.10988 -7 2 -1 
6828 6 0.790936 0.169441 0.150139 -3 2 3 
5227 5 0.0667792 0.160674 0.0693208 0 2 2 
6183 6 0.504716 0.140426 0.113149 1 3 4 
6043 6 0.635772 0.152805 0.0999739 3 6 -1 
5008 6 0.765142 0.151867 0.113107 0 1 6 
7181 6 0.806262 0.177861 0.0878895 -8 2 3 
5709 6 0.991983 0.180655 0.11585 0 6 4 
6041 5 0.154881 0.149343 0.121777 -1 -1 -3 
7222 5 0.307335 0.154499 0.0847587 6 7 9 
7314 5 0.264587 0.187562 0.0712862 -9 -3 -10 
7631 6 0.817068 0.176983 0.0780612 -8 5 0 
6820 5 0.0782314 0.237747 0.12889 8 -2 5 
5698 6 0.286699 0.232099 0.0889115 0 5 0 
5251 5 0.308123 0.229802 0.124386 2 0 2 
7467 6 0.837662 0.201032 0.121891 2 2 10 
6627 6 0.95681 0.249996 0.107017 -7 5 -1 
6533 6 0.388783 0.257463 0.0986517 3 3 6 
8099 5 0.174994 0.251455 0.129206 4 -2 -3 
6810 5 0.219519 0.281486 0.0958979 5 -3 -1 
6048 6 0.813263 0.291192 0.0739054 9 -4 -6 
6360 6 0.457945 0.346163 0.136146 3 6 2 
5452 5 0.78525 0.303261 0.088929 3 4 4 
6068 5 0.0590897 0.386474 0.151352 -2 0 1 
8314 5 0.307012 0.420696 0.0949794 1 6 4 
6164 6 0.504192 0.385404 0.0783309 -5 7 3 
5546 6 0.801814 0.414822 0.0923549 -2 1 3 
8418 6 0.751067 0.440005 0.096224 -6 -4 -2 
8335 6 0.518137 0.456902 0.0927341 -4 2 6 
5673 6 0.609251 0.463559 0.113956 3 -1 1 
6237 6 0.93898 0.457792 0.0806898 2 -2 6 
5684 5 0.392415 0.494072 0.110649 -8 -2 0 
8968 5 0.463091 0.519456 0.107725 2 9 -8 
5992 5 0.0464994 0.588047 0.144456 -8 2 -3 
6743 6 0.146996 0.556567 0.0824928 9 0 0 
8547 5 0.18867 0.547733 0.078662 3 0 8 
5941 6 0.177207 0.576391 0.131035 4 3 -4 
8452 6 0.660578 0.567775 0.0923315 -1 6 2 
5772 5 0.859058 0.599479 0.127617 -6 1 10 
8375 5 0.478599 0.662543 0.0893572 2 -1 -4 
7207 6 0.902509 0.662418 0.089525 5 8 4 
6811 6 0.118691 0.66723 0.0907326 -8 2 -2 
7377 5 0.540289 0.698912 0.0937197 -4 0 -11 
7121 6 0.826016 0.703209 0.0989572 -1 1 3 
6244 5 0.860289 0.684272 0.0750602 -1 0 -7 
5255 6 0.839318 0.706831 0.106163 3 -2 -4 
5167 5 0.713387 0.754836 0.103313 1 2 -3 
8054 6 0.943975 0.790747 0.109116 -4 -10 0 
8578 6 0.258144 0.778873 0.113398 3 -1 0 
6317 6 0.625284 0.735112 0.131466 -5 0 2 
5245 6 0.978353 0.759935 0.105159 -3 -9 5 
8477 5 0.233752 0.846892 0.0917293 2 -6 5 
8243 5 0.873478 0.84254 0.128457 2 2 -4 
6925 6 0.58688 0.839779 0.123877 2 4 -6 
8494 6 0.0447426 0.917493 0.116572 -1 -4 6 
6690 6 0.275193 0.903004 0.117123 -4 -1 2 
6120 5 0.450259 0.92127 0.135115 0 1 6 
8633 6 0.993508 0.948172 0.0721231 -9 -9 -5 
8794 6 0.711608 0.983736 0.117406 2 7 -1 
6373 6 0.464594 0.984646 0.11081 7 4 0 
5732 5 0.121783 0.0462931 0.11584 -5 5 2 
7701 5 0.403602 0.00334645 0.109691 2 -2 8 
6652 5 0.624888 0.0111402 0.12876 -3 -10 8 
5024 5 0.705329 0.0608996 0.140966 -1 -3 -6 
7079 6 0.039011 0.0419338 0.162525 -1 4 1 
5951 6 0.0678557 0.0365538 0.100438 6 -7 7 
8081 5 0.413138 0.063815 0.116446 0 0 1 
8194 6 0.369137 0.108281 0.134014 3 -4 6 
6341 5 0.767137 0.0652623 0.134557 0 1 3 
6238 5 0.946197 0.063819 0.12707 -2 -2 -5 
8520 5 0.965429 0.0492148 0.124295 -9 1 3 
8723 6 0.957582 0.0518616 0.183002 -10 -5 -6 
8625 6 0.738538 0.0787634 0.126977 2 -5 4 
7498 6 0.722154 0.108632 0.123354 -4 -7 4 
5366 5 0.698558 0.118977 0.127778 -1 -1 3 
6072 5 0.417205 0.166708 0.123981 -2 -7 1 
5124 6 0.492072 0.169562 0.129714 2 0 -4 
6962 6 0.823609 0.186032 0.138329 -3 -2 -3 
7810 6 0.150345 0.183837 0.0919635 3 0 6 
7108 6 0.0676749 0.199124 0.128195 -7 7 -1 
8739 6 0.373362 0.21932 0.114121 1 9 -2 
6498 6 0.803446 0.19803 0.151811 -3 -7 8 
8026 5 0.0775901 0.251634 0.12679 0 0 -5 
5267 5 0.218235 0.265625 0.0890982 3 8 1 
5573 6 0.292832 0.262736 0.135063 -2 1 1 
5556 6 0.228967 0.22453 0.139368 7 2 -3 
8685 5 0.31837 0.235405 0.117447 2 6 0 
8266 6 0.650537 0.263871 0.10304 2 -1 0 
5104 5 0.776831 0.239105 0.136016 2 8 -1 
8275 5 0.97671 0.261019 0.125844 -3 -8 0 
7689 5 0.030805 0.28492 0.133293 -3 2 3 
5834 6 0.0680428 0.282273 0.134095 -3 1 -4 
7716 6 0.583026 0.283907 0.159094 9 -2 -4 
6742 6 0.642914 0.285075 0.133202 -3 10 2 
8874 5 0.0438311 0.318654 0.144014 2 -5 -3 
7781 6 0.105409 0.323488 0.148368 -3 -1 2 
6433 5 0.673002 0.303202 0.126564 -4 -3 8 
7059 5 0.245205 0.445204 0.134987 0 -9 -1 
8117 6 0.357162 0.388455 0.159422 6 3 1 
5059 6 0.128421 0.467189 0.11507 1 -1 2 
8065 6 0.308914 0.442799 0.126285 -1 -5 -3 
8652 5 0.504695 0.462211 0.114716 5 -3 -15 
6264 5 0.266773 0.449893 0.12097 -2 -9 6 
7829 6 0.729957 0.500669 0.124977 3 1 0 
5350 6 0.258381 0.491143 0.157627 -3 5 3 
6737 6 0.81118 0.550774 0.115252 -1 1 -3 
5509 6 0.180484 0.532395 0.137963 3 -5 0 
7006 5 0.644386 0.559001 0.15058 -4 1 -1 
5021 5 0.474712 0.568052 0.154463 4 -1 -1 
8445 6 0.667874 0.572309 0.0973289 -1 -4 -4 
5288 5 0.911054 0.592588 0.133748 3 0 -6 
8808 5 0.893719 0.563867 0.103777 -2 5 3 
7627 6 0.0434809 0.618004 0.132164 0 1 -13 
5761 6 0.194545 0.55642 0.137102 -4 -3 -2 
7174 6 0.670631 0.604141 0.0744555 4 1 2 
7953 5 0.794385 0.568682 0.14701 0 0 6 
7229 6 0.179386 0.619869 0.146555 1 3 2 
6541 6 0.561926 0.625347 0.166732 8 -6 -8 
8543 6 0.479197 0.623677 0.133044 7 -3 4 
5044 6 0.545891 0.682569 0.145937 2 0 1 
7014 5 0.992284 0.689845 0.153297 -1 -2 5 
7765 6 0.598794 0.702331 0.0970303 -3 3 1 
8267 6 0.106129 0.701902 0.0904237 -1 -7 -9 
6633 6 0.301448 0.762581 0.106677 -5 1 8 
6118 6 0.542425 0.762681 0.138315 4 5 -4 
5010 6 0.207844 0.797044 0.137913 1 -3 -3 
5335 5 0.389434 0.784809 0.166392 5 2 2 
6640 5 0.479845 0.770747 0.113577 2 3 -1 
5831 5 0.947026 0.760565 0.117739 -2 -4 -4 
5173 6 0.0892198 0.821296 0.12073 -2 -3 -1 
8867 6 0.634893 0.836281 0.135043 -1 3 -4 
6725 6 0.968918 0.813666 0.0837891 -7 -4 -4 
7732 5 0.0931724 0.839051 0.108079 4 -3 1 
8952 5 0.761872 0.845988 0.12389 1 0 2 
7194 5 0.864176 0.840778 0.123663 -7 -1 0 
6108 6 0.61802 0.853691 0.122153 -6 4 2 
8653 5 0.190354 0.858644 0.127958 -1 3 2 
8051 5 0.332994 0.941095 0.114755 -7 -2 -6 
8240 5 0.497632 0.940266 0.133315 0 0 -10 
6121 5 0.050928 0.958253 0.1166 1 0 1 
5569 6 0.173261 0.954997 0.13716 -4 6 -3 
5542 6 0.486721 0.951786 0.136108 -1 5 -2 
6362 6 0.248413 0.985465 0.105515 -2 5 -3 
5689 5 0.799738 0.979955 0.14773 1 -2 4 
6670 6 0.329821 0.00574451 0.138593 2 1 -5 
6584 5 0.811581 0.0178482 0.166471 1 -2 7 
8356 5 0.675387 0.0602088 0.160481 -9 -1 1 
8902 6 0.73526 0.0551752 0.123107 15 -6 0 
7547 6 0.802129 0.0283276 0.139177 -2 0 -2 
7795 6 0.203949 0.079446 0.171268 2 9 -9 
8678 6 0.273212 0.0747493 0.154037 4 1 0 
6938 6 0.0466541 0.076686 0.159177 2 2 2 
8792 5 0.713995 0.0673811 0.161156 -1 1 3 
7668 5 0.247461 0.12552 0.191949 -2 9 2 
5343 5 0.577525 0.0986107 0.136894 4 -4 -6 
5502 6 0.836215 0.141525 0.175218 2 -4 2 
5526 6 0.899583 0.126108 0.170329 1 -4 4 
8765 6 0.518122 0.155779 0.142009 -2 5 1 
8745 5 0.517596 0.169316 0.156251 11 -2 6 
6112 6 0.847251 0.158909 0.178088 3 -2 7 
8136 6 0.8159 0.13679 0.157118 2 -3 5 
5683 5 0.858955 0.189257 0.131174 -11 7 -4 
6390 6 0.162875 0.184144 0.139953 2 2 -8 
6514 6 0.289278 0.235464 0.156826 -3 1 -9 
5289 5 0.505593 0.214014 0.145392 1 7 -4 
7799 5 0.508897 0.238199 0.136339 2 -1 1 
6374 6 0.569931 0.22427 0.153583 2 -8 -10 
6014 6 0.669868 0.265882 0.166986 4 -5 7 
8875 5 0.928238 0.283399 0.132394 -8 9 6 
6516 5 0.946955 0.274351 0.17615 9 2 -2 
6299 6 0.180722 0.292338 0.153661 -1 -2 1 
6215 6 0.663097 0.294122 0.161147 3 0 3 
5763 6 0.740597 0.25774 0.132112 -4 0 -2 
8812 5 0.0102291 0.325682 0.133801 0 -9 7 
5450 5 0.406646 0.32023 0.160015 4 -4 -9 
8186 5 0.481459 0.337897 0.165913 2 1 -3 
8330 5 0.443692 0.347658 0.1334 -9 -1 4 
6949 6 0.925198 0.335526 0.156027 -2 4 6 
6598 6 0.0956072 0.388457 0.150406 4 5 4 
8901 6 0.65416 0.391974 0.135346 -4 -1 -5 
7313 6 0.435129 0.396726 0.150665 -5 3 -2 
8918 5 0.69948 0.396178 0.183012 -2 5 -10 
8552 6 0.754458 0.43851 0.149751 1 0 9 
7472 6 0.828317 0.484142 0.171458 1 3 -1 
5753 6 0.470092 0.437361 0.126947 -2 -4 4 
5434 5 0.556681 0.497047 0.145443 4 11 -1 
5708 5 0.628846 0.490867 0.172559 -1 -5 -2 
6813 5 0.731417 0.496258 0.162091 -6 1 -6 
8972 6 0.158951 0.554958 0.156398 7 8 0 
6682 5 0.311408 0.559259 0.123632 -3 -2 2 
6047 5 0.517863 0.601207 0.162241 2 -2 9 
5824 5 0.837076 0.591216 0.159901 1 2 -1 
7241 6 0.93862 0.614148 0.150097 2 3 8 
6375 5 0.658296 0.622208 0.162115 3 -11 5 
5352 5 0.893715 0.650585 0.14217 3 0 -7 
6876 6 0.513429 0.651662 0.130476 1 -4 -2 
8020 6 0.561837 0.660872 0.132263 5 1 -5 
7756 5 0.0671693 0.676333 0.179691 -8 -2 -5 
8935 5 0.656121 0.687828 0.154424 0 -1 3 
8516 6 0.768468 0.626036 0.155634 -3 0 3 
5050 6 0.080423 0.693188 0.168715 1 3 4 
6957 6 0.835829 0.66358 0.143894 2 -4 7 
8758 6 0.177836 0.72114 0.150669 1 1 4 
7951 5 0.365401 0.724213 0.188826 -2 -2 -1 
7653 5 0.470847 0.752137 0.143964 -3 3 -1 
8590 5 0.823233 0.722087 0.138331 -2 9 -6 
8045 6 0.885818 0.729576 0.159301 3 -2 4 
7752 5 0.648981 0.735788 0.155998 -3 3 -9 
5601 6 0.266373 0.752553 0.149639 -5 -5 1 
5225 5 0.636168 0.793316 0.109567 1 -4 0 
8168 6 0.787467 0.726561 0.125722 -2 -3 0 
6193 5 0.971214 0.80011 0.119749 -6 7 1 
6352 6 0.970634 0.838571 0.1269 4 8 -3 
8021 6 0.0825163 0.867911 0.136186 1 4 -2 
6190 6 0.865552 0.881514 0.101656 3 -8 -1 
6119 5 0.303223 0.868446 0.153197 4 5 7 
6905 6 0.430273 0.871291 0.122544 8 -1 -3 
6994 5 0.730589 0.885488 0.165167 -10 0 1 
7493 5 0.0289828 0.876191 0.133264 6 3 0 
7212 5 0.666627 0.908722 0.13625 -2 4 3 
8727 6 0.899907 0.868781 0.162938 5 -2 -1 
6950 5 0.188585 0.914948 0.147774 -4 -5 0 
5087 5 0.810312 0.908467 0.148004 2 -3 3 
5286 5 0.828708 0.890374 0.146914 -2 -4 -2 
7133 5 0.990451 0.958573 0.120073 -2 3 0 
6474 6 0.0187551 0.955681 0.161002 -12 -2 3 
5301 6 0.887058 0.913759 0.148244 -11 -1 -3 
8291 5 0.616654 0.958637 0.107673 -5 -10 -1 
6406 5 0.0631648 0.962133 0.15479 1 3 -9 
8537 5 0.489246 0.0269224 0.15573 5 -10 1 
8483 6 0.855809 0.953235 0.158006 2 3 7 
8567 5 0.975151 0.0208973 0.198113 3 -1 -3 
8677 6 0.401596 0.988175 0.16349 -5 3 -11 
8415 6 0.0691364 0.0558326 0.172393 -1 2 0 
5661 6 0.0530603 0.0410849 0.173115 6 5 -9 
7034 5 0.357913 0.0805549 0.16384 0 -1 -1 
7422 6 0.971716 0.0711504 0.154342 -3 3 -5 
6557 6 0.106714 0.0603872 0.185447 10 3 6 
7476 6 0.780208 0.121198 0.143942 3 -2 1 
8704 5 0.133255 0.129893 0.178512 6 -1 4 
5965 6 0.786285 0.134388 0.15866 3 -3 1 
6104 6 0.857385 0.138823 0.213013 2 -4 1 
5652 6 0.675881 0.174445 0.164021 0 -2 -4 
6320 6 0.777358 0.181303 0.128558 -3 6 6 
6470 6 0.786346 0.164321 0.181609 -4 2 -6 
5504 5 0.810708 0.161498 0.191198 0 3 4 
5399 6 0.625525 0.153758 0.159936 5 6 -7 
6426 5 0.908162 0.176388 0.150633 -2 3 1 
8341 6 0.505784 0.219044 0.19344 1 -5 5 
6477 6 0.787219 0.230625 0.120684 -5 1 -2 
8682 6 0.785409 0.225446 0.17344 2 4 1 
7541 5 0.438892 0.212577 0.161744 -7 -3 -6 
5966 5 0.511619 0.255695 0.158742 -2 1 0 
8880 5 0.762227 0.229239 0.175739 4 2 -4 
5551 6 0.855855 0.295346 0.130742 1 -4 5 
8743 6 0.869707 0.244671 0.206589 -14 -3 -11 
7127 6 0.966922 0.245985 0.186703 -8 2 -5 
8610 6 0.435391 0.288789 0.190314 5 3 0 
5204 5 0.519883 0.290151 0.15771 -3 2 0 
8582 6 0.177801 0.332463 0.201493 3 -4 1 
8455 5 0.247925 0.311445 0.149166 -2 -2 -2 
8504 6 0.655375 0.337884 0.153777 3 -6 -5 
5988 6 0.85229 0.340036 0.176874 4 5 3 
5216 6 0.0345799 0.399944 0.187496 -1 4 0 
6859 5 0.0654303 0.356856 0.209973 4 2 1 
7161 5 0.210615 0.312563 0.149979 3 3 -1 
7265 5 0.301325 0.342389 0.175405 4 -9 4 
7260 6 0.460403 0.369649 0.177412 -4 0 1 
5278 5 0.24804 0.430903 0.1645 3 -8 4 
7707 5 0.872421 0.387097 0.163163 -4 4 2 
6507 5 0.0848636 0.422605 0.193411 -12 -5 -3 
6637 6 0.000134724 0.413529 0.210117 0 -3 3 
6784 5 0.540634 0.462902 0.154122 0 1 -3 
7404 6 0.337346 0.430681 0.181697 11 0 3 
5840 6 0.0327885 0.492041 0.222329 -5 0 10 
6858 5 0.601399 0.49549 0.137263 5 -11 -2 
6658 5 0.98645 0.490989 0.183558 1 3 6 
5617 6 0.0265505 0.508497 0.187492 2 0 -3 
5025 5 0.284905 0.515722 0.155738 -5 -4 3 
7485 5 0.288948 0.519984 0.162082 -5 2 4 
6328 6 0.609406 0.484988 0.179791 -1 0 -9 
7986 5 0.280817 0.5741 0.152542 -2 -1 2 
7887 5 0.633112 0.533822 0.164348 11 -1 2 
6040 5 0.015796 0.608912 0.145753 -2 5 3 
7622 6 0.73062 0.563463 0.115236 -6 0 -1 
6140 6 0.0663557 0.594137 0.166374 0 2 -3 
8218 6 0.361759 0.559062 0.188099 -2 -5 -3 
6058 6 0.191331 0.575007 0.179003 -2 -1 0 
6234 5 0.378063 0.618372 0.165611 8 -2 -1 
8944 6 0.190944 0.636102 0.152338 -1 2 5 
8124 6 0.048399 0.643182 0.179541 1 5 0 
7166 5 0.583302 0.689861 0.166318 -8 -6 -2 
8082 5 0.702823 0.626163 0.195521 4 -1 2 
5439 5 0.0681184 0.687929 0.171618 -4 -5 -3 
8183 6 0.923816 0.674892 0.156036 -5 4 5 
8605 5 0.369154 0.751253 0.127251 1 2 -1 
7695 5 0.389836 0.745161 0.151005 8 5 0 
6314 5 0.880539 0.699569 0.190309 3 1 -3 
5721 5 0.290029 0.737847 0.170756 0 -1 -4 
6644 6 0.594649 0.767367 0.144166 -5 -8 3 
6253 6 0.538016 0.771619 0.177723 -10 -4 -3 
8340 6 0.792682 0.747703 0.160286 6 -2 5 
5823 6 0.863361 0.77376 0.211378 -3 -2 0 
6425 6 0.946615 0.76099 0.19817 2 -4 2 
6892 6 0.212294 0.828718 0.158738 1 -6 4 
7384 5 0.372533 0.819399 0.170255 -7 0 8 
5428 6 0.853174 0.841475 0.201978 4 7 -5 
7105 6 0.997426 0.819077 0.157502 -2 -7 4 
6614 6 0.53936 0.830857 0.174596 3 -11 -7 
6976 5 0.823816 0.823592 0.179056 1 -4 2 
8823 6 0.954432 0.83077 0.192595 5 -1 5 
6605 6 0.645308 0.873262 0.175207 -1 -4 11 
7792 5 0.758711 0.885789 0.171423 1 8 10 
7187 5 0.843072 0.902298 0.176188 3 -1 -4 
6965 6 0.63066 0.896306 0.158983 -2 -3 0 
5620 5 0.74086 0.97791 0.141671 2 0 -6 
7425 6 0.585159 0.946207 0.17103 -1 -7 -2 
7162 6 0.808538 0.992831 0.19264 2 8 6 
6668 6 0.0651346 0.973772 0.170894 4 1 1 
5716 6 0.437224 0.9717 0.125909 8 -1 -11 
8179 5 0.644939 0.991678 0.160368 -9 8 -1 
5832 6 0.836931 0.0363354 0.146693 -13 4 6 
8712 6 0.558984 0.0827203 0.166131 7 2 -8 
7910 6 0.415292 0.0741364 0.203081 5 -4 -5 
8112 6 0.835406 0.0855896 0.197436 -11 4 2 
7327 6 0.528357 0.0978716 0.16702 5 1 -1 
6623 6 0.59593 0.103331 0.206426 -4 -4 11 
6504 6 0.149579 0.164497 0.211018 -8 5 -2 
7367 6 0.247672 0.107641 0.195416 6 6 3 
7924 6 0.22156 0.175121 0.232885 10 6 1 
7085 6 0.244917 0.141708 0.174192 -6 -1 2 
5145 6 0.858242 0.138301 0.190867 -2 -10 -1 
8962 6 0.262968 0.171869 0.173715 -2 1 -1 
5121 6 0.999885 0.150318 0.204187 7 3 -3 
7773 5 0.573667 0.224548 0.215047 6 0 1 
8103 6 0.660559 0.19555 0.223867 7 7 -4 
6765 6 0.310307 0.240468 0.199531 -4 3 0 
5958 5 0.282497 0.19842 0.213438 4 9 6 
7380 6 0.357133 0.199578 0.228191 -3 4 6 
8598 5 0.288565 0.226212 0.182948 4 8 -3 
8783 6 0.621385 0.255979 0.199959 -3 -2 8 
5312 5 0.288839 0.243419 0.17993 0 -3 5 
8403 5 0.631639 0.305693 0.210421 -1 -4 7 
8354 5 0.804508 0.285993 0.173168 -2 3 -5 
5318 5 0.125332 0.27104 0.139808 5 -1 -4 
8109 6 0.482131 0.309315 0.208173 -4 0 9 
7338 5 0.342637 0.291796 0.157947 -5 -4 3 
5491 6 0.544093 0.36263 0.243876 4 -7 -7 
6464 5 0.385019 0.4019 0.194947 -3 6 3 