ITEM: TIMESTEP
20000000
ITEM: NUMBER OF ATOMS
9000
ITEM: BOX BOUNDS pp pp pp
-75 75
-75 75
-75 75
ITEM: ATOMS id type xs ys zs ix iy iz 
5876 5 0.440938 0.0181081 0.00464296 1 2 0 
6952 6 0.483022 0.0562035 0.0321202 -1 2 4 
6209 5 0.576105 0.0128081 0.0116542 0 1 3 
7901 6 0.485782 0.0874681 0.0350425 1 -2 0 
7546 5 0.160257 0.0599725 1.00039 2 -1 3 
7639 5 0.413664 0.161773 0.00905649 -1 0 -6 
6120 6 0.503713 0.133424 0.981207 1 3 -3 
7379 6 0.621498 0.144876 0.995607 -3 0 1 
8146 6 0.759391 0.156769 0.0125448 -4 1 0 
8174 6 0.961287 0.209934 0.00596496 0 1 2 
5803 6 0.733693 0.214663 0.0190604 1 1 -3 
8121 6 0.0124082 0.187496 0.0207082 1 0 0 
8300 6 0.789315 0.20755 0.000654917 -4 0 5 
6028 6 0.704853 0.232397 0.996289 -2 1 -1 
7176 6 0.692918 0.233989 0.00448889 -4 -4 2 
5296 6 0.825351 0.23921 0.9925 3 -2 -3 
8751 6 0.433675 0.265692 0.0284496 0 -2 -5 
5373 6 0.839701 0.340365 0.975408 2 -2 1 
8844 6 0.00618203 0.33338 0.982114 -1 1 1 
5745 6 0.0668659 0.348065 0.0287484 2 3 2 
7508 5 0.151837 0.314602 0.0336104 -3 -2 3 
8998 5 0.343358 0.370936 0.0468646 -2 -4 5 
6543 6 0.719391 0.360691 0.98011 -1 4 5 
7851 5 0.0660731 0.40856 0.0218922 -3 -5 -1 
6363 5 0.496444 0.404464 0.0187179 -5 1 -3 
8170 6 0.968984 0.343217 0.0295099 -1 2 -4 
6645 5 0.0225276 0.475444 0.986796 1 3 -3 
5184 6 0.238895 0.418512 0.0198465 5 -1 -1 
6430 5 0.311447 0.442101 0.0308066 5 3 2 
5528 6 0.985012 0.423048 0.99611 1 -4 0 
8054 5 0.173176 0.458299 0.0453361 -3 -5 -3 
7079 6 0.0169841 0.476498 0.0298949 5 -1 -3 
6052 5 0.339752 0.481555 0.0216437 -3 -5 2 
7557 6 0.863211 0.446333 0.997315 4 1 0 
5280 6 0.339803 0.52627 0.0127102 1 1 0 
7689 5 0.564651 0.513917 0.00768523 -3 3 2 
7888 6 0.825007 0.538281 0.0330655 2 -2 9 
6019 5 0.497371 0.5845 0.0267705 5 6 2 
5293 5 0.19717 0.625355 0.0431316 4 2 -1 
5968 6 0.38791 0.627119 0.0261139 5 -2 3 
7717 6 0.955578 0.596649 0.997753 -5 3 -2 
5610 6 0.979611 0.603731 0.0273141 -4 1 2 
5704 6 0.431512 0.656102 0.0290407 0 -5 6 
5017 6 0.627923 0.627084 0.0322812 -2 1 -1 
8793 6 0.0927938 0.686295 0.00355083 1 0 0 
7564 6 0.747472 0.667138 0.0322881 2 5 4 
8478 6 0.359908 0.706379 0.0134201 3 4 0 
6453 6 0.457026 0.714077 0.00757443 6 0 2 
6723 5 0.154074 0.772868 0.0455156 0 4 2 
5656 5 0.251766 0.755826 0.0240816 -2 3 -4 
6108 6 0.3627 0.729784 0.994983 3 -2 1 
8742 5 0.231425 0.820689 0.00476865 -7 -2 2 
5508 5 0.046821 0.843744 0.0534263 0 5 -1 
6956 6 0.652976 0.84222 0.035157 0 -2 6 
8826 6 0.0222233 0.838716 0.0048851 5 -2 4 
7655 5 0.399292 0.859924 0.00336512 4 -2 -1 
5190 5 0.469294 0.793628 0.973736 1 -1 -3 
8413 6 0.868718 0.866589 0.967434 0 -5 7 
7731 6 0.89761 0.849322 0.994664 -3 -2 -2 
5085 6 0.2662 0.885474 0.0384391 4 -3 0 
5422 5 0.332741 0.852361 0.00295378 -1 3 -2 
7158 6 0.832358 0.908638 0.0132813 -5 -3 -2 
5554 6 0.927693 0.876123 0.0563135 0 -1 2 
7226 6 0.709373 0.907705 0.0240101 -3 -3 2 
6788 6 0.0832956 0.974297 0.00286065 -1 -2 5 
5902 6 0.102285 0.995524 0.0228901 4 0 0 
5984 6 0.885254 0.937282 0.0111566 0 -2 -4 
5165 6 0.264821 0.99357 0.000993692 4 -2 -4 
5914 6 0.414158 0.0113079 0.0202136 0 -1 -3 
7395 6 0.428856 0.975954 0.0356576 5 -3 -1 
7121 6 0.940772 0.00420758 0.0280706 0 0 -1 
5068 6 0.11198 0.0552171 0.997043 8 0 -2 
8589 6 0.156076 0.0496209 0.0434049 -1 -1 -5 
7136 5 0.188032 0.0371985 0.0444931 -3 4 0 
5135 5 0.250885 0.0640947 0.000941117 -1 -1 0 
8012 6 0.410199 0.0794836 0.015255 2 -2 2 
8760 5 0.933241 0.0529439 0.0377499 4 -4 3 
7461 5 0.148145 0.086229 0.0666293 -3 -7 1 
7377 5 0.871285 0.0898124 0.0585983 -5 2 -1 
6642 6 0.883394 0.0629558 0.0460031 4 -1 -4 
8670 5 0.884733 0.104719 0.0471497 4 2 -1 
5052 5 0.275252 0.111309 0.0350216 -2 1 0 
7727 6 0.883237 0.11901 0.0328754 -3 0 6 
6240 5 0.796185 0.159607 0.00835338 4 4 8 
5006 5 0.00282494 0.14223 0.0401338 1 2 0 
6279 5 0.0751172 0.138372 0.0177008 -1 1 -3 
7391 6 0.189885 0.191112 0.978734 -4 2 -6 
6167 5 0.307004 0.130832 0.0729153 -3 2 -2 
6060 5 0.83051 0.174865 0.0364918 1 -3 0 
8959 5 0.950337 0.172241 0.0543242 0 -1 4 
6561 6 0.614369 0.191611 0.0288942 -4 -1 1 
5065 6 0.918833 0.184716 0.0423599 -3 1 0 
7516 5 0.0819761 0.207138 0.0260681 3 0 3 
7365 6 0.707339 0.147802 0.0399424 6 1 1 
7337 6 0.99361 0.258342 0.0575074 -4 2 0 
5001 6 0.456803 0.23941 0.0155552 -2 -1 4 
6308 6 0.830555 0.252152 0.0577948 1 -4 0 
5217 5 0.899872 0.21625 0.0449385 2 -3 2 
5589 6 0.000552825 0.242084 0.0397373 -1 -2 -2 
5197 6 0.264948 0.264649 0.0180233 4 2 -5 
5063 6 0.850021 0.272843 0.998758 2 -1 -2 
8556 5 0.394603 0.284942 0.031657 4 0 -4 
7973 6 0.804967 0.306896 0.00813124 -1 6 5 
7376 5 0.371677 0.318432 0.0306205 -4 -1 2 
6745 6 0.0457755 0.357155 0.0303207 0 -2 2 
7632 5 0.216005 0.34251 0.0196347 -6 2 2 
8889 6 0.488287 0.324264 0.0514559 1 -2 2 
7706 6 0.675979 0.324068 0.0632032 2 2 1 
7290 5 0.832443 0.431909 0.0312699 4 0 0 
5172 5 0.735311 0.397628 0.00787425 1 2 5 
6474 6 0.849935 0.445919 0.0617405 -3 0 2 
5238 5 0.918887 0.476916 0.0364877 -6 -2 2 
7947 5 0.312567 0.496897 0.032323 1 3 -1 
5110 6 0.850529 0.458213 0.0246057 3 0 1 
5570 6 0.32729 0.552075 0.0359907 -3 3 0 
8245 5 0.477408 0.542213 0.998144 1 1 1 
5162 5 0.357789 0.5643 0.0657079 0 1 -1 
7486 5 0.126818 0.562426 0.0309662 2 -2 1 
6003 6 0.262048 0.612388 0.0355865 1 1 -7 
8276 6 0.589402 0.606683 0.0585495 -1 4 1 
6766 6 0.602389 0.590901 0.0362663 -5 0 4 
5555 6 0.930402 0.585306 0.0304573 -2 -5 2 
6933 6 0.123724 0.617525 0.0526586 1 -2 -2 
5413 5 0.371918 0.629935 0.0835467 3 -5 -1 
8099 6 0.0893846 0.636392 0.0310678 1 -4 0 
7545 6 0.660897 0.656662 0.99299 -2 -9 0 
7858 6 0.850265 0.633052 0.0559553 -1 -2 3 
7002 6 0.634906 0.649235 0.0410681 -3 3 -5 
5830 6 0.852994 0.694708 0.0445708 1 -3 -2 
6606 6 0.16397 0.669813 0.0343458 -1 0 2 
7411 6 0.616205 0.675132 0.0541455 2 -2 0 
7230 6 0.748661 0.693004 0.0705836 -5 2 1 
5224 6 0.146468 0.781539 0.00624492 2 -1 0 
6379 5 0.242619 0.79391 1.0006 6 -1 -1 
6965 6 0.43399 0.794776 0.0451398 2 -3 0 
5972 5 0.413147 0.80842 0.0284742 -4 -1 -4 
8776 5 0.796295 0.781653 0.0727363 -2 -1 1 
6869 5 0.213615 0.847688 0.0696343 2 -4 -4 
6016 6 0.866194 0.821809 0.0252172 -1 4 -1 
6196 5 0.257114 0.879981 0.0549681 3 2 1 
7955 5 0.838292 0.795748 -0.000394178 2 -4 0 
8462 5 0.00551193 0.832086 0.0613752 -1 -1 -3 
6100 5 0.162016 0.854885 0.04284 4 2 0 
8030 6 0.145103 0.856391 0.0242849 -2 -3 0 
5479 5 0.40203 0.885919 0.0408747 -3 -3 -2 
8142 6 0.557003 0.893444 0.0378138 -3 2 -5 
8904 5 0.368683 0.881478 0.0197598 1 7 0 
5396 5 0.498203 0.900311 0.0450196 3 -3 -2 
8285 5 0.991155 0.952943 0.0546315 0 0 -3 
6589 5 0.612672 0.963398 0.0447436 -1 4 -2 
7794 5 0.855116 0.953341 0.040434 3 -3 0 
6780 5 0.972064 0.942893 0.0146208 -2 -1 -4 
8431 5 0.103996 0.989618 0.0582833 7 1 0 
5987 5 0.587043 0.971039 0.0137847 1 1 -1 
6553 6 0.207253 0.00764846 0.0431654 3 -5 3 
5519 5 0.792734 0.998221 0.0246339 0 -3 3 
8649 5 0.426765 0.147012 0.0925413 -1 4 1 
5625 6 0.684242 0.126041 0.0978739 4 1 1 
8794 5 0.738118 0.113219 0.0837586 -1 -2 1 
8229 6 0.247886 0.109644 0.0786518 2 -2 -5 
5261 6 0.584007 0.127566 0.0596402 -2 4 5 
7028 6 0.799015 0.104351 0.0719456 3 -2 -3 
6771 6 0.744642 0.153104 0.117135 -2 2 1 
8369 5 0.70821 0.246453 0.0659766 0 1 -1 
7401 6 0.0178386 0.227388 0.0438066 6 -2 2 
5283 5 0.134079 0.265353 0.0238969 7 -1 0 
5981 5 0.214316 0.259141 0.0544719 0 -1 3 
7163 6 0.917116 0.202168 0.0525776 -1 1 4 
6564 6 0.237782 0.267148 0.0476933 0 -2 5 
8828 6 0.561576 0.256141 0.0929056 -1 -1 -2 
5370 6 0.778397 0.28666 0.069761 -3 1 0 
6281 6 0.713405 0.296737 0.0633749 2 2 1 
6290 5 0.813222 0.283133 0.0493406 3 2 1 
6440 6 0.524426 0.316167 0.056184 -1 -4 -1 
8710 6 0.681688 0.306327 0.0610868 -1 -4 -1 
8130 5 0.66214 0.302608 0.0462436 0 0 1 
6544 5 0.133753 0.362947 0.0562499 1 3 1 
6833 6 0.770011 0.339144 0.0850777 -4 1 3 
8819 5 0.803953 0.332532 0.0629146 0 0 4 
8977 5 0.351202 0.33987 0.0438732 0 -2 0 
6393 6 0.0038826 0.340712 0.0746392 5 -2 0 
6716 6 0.582347 0.361478 0.07247 -2 2 -1 
6588 5 0.79401 0.387043 0.00394439 -2 4 6 
7471 6 0.18792 0.412114 0.0492201 -2 6 0 
7455 6 0.586074 0.456589 0.0523434 -1 -3 1 
7687 6 0.0327062 0.486406 0.0691715 6 0 4 
7140 6 0.504458 0.492525 0.0567672 0 -3 -1 
8914 6 0.735895 0.457422 0.0511805 -1 -1 -6 
8803 6 0.761512 0.481715 0.0454339 -3 -2 -4 
8356 5 0.871825 0.514765 0.113776 1 -1 2 
8317 5 0.0536098 0.556264 0.0150251 -3 2 -4 
5380 5 0.567382 0.568708 0.0545147 2 -3 -2 
8421 5 0.384552 0.612036 0.069973 1 2 0 
7153 6 0.452666 0.575455 0.0382476 0 6 -2 
6059 6 0.864586 0.577316 0.0471638 -3 -4 5 
7651 6 0.305379 0.607473 0.079748 2 -6 3 
5142 6 0.256618 0.589141 0.0468943 5 1 5 
6946 6 0.62074 0.625081 0.0867353 5 -3 3 
7260 6 0.940234 0.587785 0.0513804 1 -2 6 
6522 5 0.724776 0.689668 0.0658069 -3 3 -3 
5455 5 0.68323 0.692818 0.0396616 4 -3 -2 
5522 5 0.804659 0.67546 0.0508818 0 1 2 
8991 5 0.674486 0.702405 0.0822317 0 0 0 
7007 5 0.590533 0.727172 0.0903073 0 2 -3 
6258 6 0.405663 0.735697 0.0888295 -1 1 -1 
5865 6 0.470288 0.726762 0.0382644 2 0 7 
7165 6 0.479157 0.742821 0.077512 1 -1 4 
6155 6 0.535915 0.764044 0.0162389 -4 0 2 
7702 5 0.815869 0.767289 0.0988396 1 1 1 
8109 5 0.0565876 0.772108 0.0674504 5 -5 -3 
6047 5 0.532652 0.758034 0.0520985 -5 2 -3 
6466 6 0.970398 0.803237 0.0474112 -6 2 -1 
7820 6 0.307216 0.794758 0.0759183 1 1 1 
5692 5 0.863234 0.801553 0.0704308 -2 4 5 
7327 5 0.578047 0.861795 0.0578239 2 6 4 
6149 6 0.603471 0.841531 0.0388095 1 -1 4 
5582 5 0.706233 0.84191 0.0730585 -4 -2 -2 
5544 5 0.627645 0.830559 0.0449993 1 -2 -3 
7830 5 0.892722 0.844984 0.0526983 4 -1 -7 
5028 5 0.24768 0.920042 0.060324 2 0 4 
6759 5 0.833181 0.877187 0.075429 -2 -2 2 
8517 6 0.0264759 0.9072 0.0804592 -1 0 2 
5466 5 0.178694 0.926986 0.0339605 5 -3 6 
6093 5 0.796269 0.878967 0.0596792 -2 -5 6 
6326 5 0.954684 0.897683 0.0575804 5 -3 -1 
8284 5 0.954668 0.914954 0.0467631 -3 0 -5 
7127 6 0.345979 0.93918 0.032517 2 3 -1 
7053 6 0.566979 0.956013 0.0467653 -2 -2 -4 
5094 6 0.56124 0.952742 0.0307641 4 1 1 
6623 5 0.601893 0.955724 0.0707828 -1 -4 3 
8894 6 0.879529 0.965368 0.0252225 -1 -2 4 
6079 5 0.50791 0.9676 0.0585619 -1 -1 -2 
8910 6 0.963712 0.963137 0.0539864 -2 2 4 
5086 6 0.227259 0.0368719 0.0914553 -1 -1 1 
7263 6 0.477854 0.0480297 0.0679446 3 4 -3 
8050 6 0.693094 0.00456067 0.0465409 -2 2 1 
6467 6 0.915435 0.0390936 0.12384 0 3 1 
5340 6 0.968083 0.0748634 0.0794035 -4 -1 3 
8096 6 0.555881 0.0767638 0.125628 4 -2 3 
8111 6 0.858089 0.133593 0.0927884 -6 -2 4 
5462 5 0.103917 0.130875 0.120669 2 2 1 
7044 6 0.170528 0.0964416 0.0529882 1 2 3 
7219 6 0.608483 0.088634 0.0569451 6 -3 -1 
5141 5 0.650243 0.111542 0.0968995 1 0 -2 
5332 6 0.911356 0.115285 0.0696039 0 5 3 
8499 5 0.189261 0.139646 0.0791041 0 5 -3 
6035 5 0.822668 0.15275 0.0597881 5 4 4 
5307 6 0.941946 0.1177 0.0820939 0 -4 -4 
7048 6 0.514275 0.203236 0.0945855 -4 4 2 
8551 6 0.8829 0.15106 0.0612546 4 -6 -3 
5400 6 0.295625 0.240565 0.069682 2 0 11 
7941 6 0.430733 0.243715 0.0764082 3 -1 2 
7709 5 0.571141 0.217908 0.0761145 3 -1 0 
5921 5 0.335887 0.270368 0.0461376 -3 2 -1 
5066 6 0.652794 0.245508 0.0837973 -3 -4 -2 
5004 5 0.262659 0.277764 0.105966 1 0 2 
7656 6 0.354458 0.269644 0.0984579 0 4 0 
7745 6 0.509552 0.224218 0.101214 -3 -1 -3 
6000 5 0.0175975 0.302384 0.0518923 3 -5 -5 
6151 5 0.286108 0.275751 0.0976134 2 -4 -1 
7767 6 0.792172 0.326283 0.116382 -3 -5 -1 
6784 5 0.177104 0.306446 0.0721971 -2 4 4 
6128 5 0.336695 0.307627 0.0554526 -1 0 0 
8939 5 0.486475 0.304775 0.0854348 8 -7 3 
6921 6 0.218118 0.374409 0.0959576 2 1 -4 
7444 6 0.270939 0.422612 0.100503 2 0 3 
6703 6 0.549222 0.387743 0.0451612 -3 -1 -2 
5643 6 0.307949 0.36552 0.0847995 -1 3 0 
6272 6 0.493435 0.455857 0.0850495 -1 2 -4 
6932 5 0.885652 0.470404 0.0898935 -7 -2 3 
5018 6 0.74175 0.489793 0.0584862 -1 -2 3 
5770 6 0.974457 0.466361 0.0991822 -1 -2 3 
6462 6 0.136327 0.466936 0.116204 -1 -2 -1 
6580 6 0.222014 0.488727 0.10439 -4 1 3 
6201 5 0.322743 0.546943 0.0828435 2 3 5 
8716 6 0.827091 0.538371 0.0543918 -4 0 -2 
6131 5 0.459842 0.491175 0.0925316 -1 0 1 
5350 6 0.448767 0.577373 0.0920438 -7 2 -3 
6683 6 0.522779 0.608848 0.0576274 1 1 -3 
7608 6 0.619322 0.643956 0.096722 -4 -1 0 
8676 6 0.786781 0.702761 0.0752193 1 -2 2 
8887 5 0.263443 0.684127 0.0826036 3 2 4 
5868 5 0.530261 0.717453 0.0735686 -1 1 1 
7705 5 0.720917 0.71655 0.0940224 2 2 2 
5163 5 0.878021 0.723564 0.084897 3 0 4 
7685 6 0.0323719 0.712091 0.134021 1 -5 0 
7049 5 0.443171 0.698182 0.12567 1 0 -3 
7502 6 0.706031 0.676614 0.0938678 -1 -2 -1 
8402 5 0.00835965 0.736395 0.086629 2 -5 6 
6842 5 0.549669 0.748835 0.067567 -5 8 1 
7318 5 0.941078 0.778283 0.0485382 -2 2 2 
5793 6 0.334082 0.731803 0.102537 1 -5 5 
8524 6 0.622413 0.738631 0.0719254 0 -2 4 
5058 5 0.737126 0.794447 0.0544363 0 -2 -1 
6807 6 0.373924 0.827036 0.0814568 3 1 -4 
6884 6 0.705159 0.789268 0.11504 0 -1 1 
5168 5 0.888928 0.793353 0.0805589 3 0 4 
7307 6 0.280164 0.814287 0.0714644 -3 -2 2 
5512 6 0.497958 0.854194 0.103628 5 -1 5 
5904 6 0.142854 0.836353 0.111206 1 -3 -1 
7237 6 0.520553 0.889953 0.081132 -5 -1 -3 
5845 6 0.589224 0.859349 0.0947265 -2 1 8 
5239 6 0.990138 0.867692 0.103062 -1 2 -1 
5640 6 0.565816 0.924636 0.0651108 3 -1 -4 
7104 5 0.636302 0.899852 0.101974 0 -2 7 
6931 5 0.19156 0.967868 0.0501719 1 -3 -1 
6523 6 0.282557 0.981235 0.0694773 -2 -3 3 
6915 5 0.391221 0.981046 0.0784979 0 5 -1 
8106 5 0.526981 0.00252024 0.0775256 1 2 8 
8103 5 0.0122892 0.0560657 0.137059 3 1 -1 
8399 6 0.362488 0.995042 0.100883 2 -4 1 
5534 6 0.98903 0.0705518 0.107349 0 2 -2 
5147 5 0.104229 0.0316054 0.119917 0 3 -4 
8837 6 0.244998 0.0570533 0.120895 4 3 -2 
6498 5 0.92745 0.0597848 0.0818421 3 1 -3 
6204 6 0.313902 0.120199 0.140088 -1 0 -2 
5148 5 0.851342 0.095823 0.0777662 -4 1 4 
8708 5 0.49031 0.15342 0.109192 0 1 0 
5485 5 0.710613 0.174487 0.0674488 2 0 -3 
7172 6 0.891137 0.174798 0.114396 2 2 0 
8943 5 0.178992 0.169734 0.0921501 -2 -2 2 
7847 5 0.655701 0.198211 0.121825 -1 -4 -3 
5300 6 0.804865 0.175561 0.0852497 0 4 1 
7839 6 0.833706 0.16415 0.07738 -3 3 2 
5536 5 0.914888 0.215876 0.117659 2 -1 2 
6119 5 0.150528 0.241989 0.0919258 1 6 4 
5729 5 0.0969321 0.255208 0.0683526 -2 -3 2 
7426 6 0.456228 0.174518 0.0943149 1 3 4 
8513 6 0.170603 0.260639 0.084214 2 -2 1 
8962 5 0.36474 0.245684 0.084073 3 -2 0 
6778 5 0.381514 0.274038 0.114217 -3 0 1 
5013 5 0.58385 0.237896 0.101931 -1 3 1 
6566 5 0.793425 0.240219 0.115367 -1 1 1 
5031 6 0.763226 0.269441 0.102386 0 1 2 
5062 5 0.628615 0.254239 0.105586 2 -2 3 
7227 6 0.726497 0.265957 0.118264 -1 -1 4 
8092 5 0.475331 0.301672 0.119611 2 1 -1 
7034 5 0.493925 0.298383 0.129147 1 -2 -1 
8010 5 0.980155 0.341423 0.131447 -1 0 5 
8441 5 0.494043 0.329074 0.0928164 4 -1 -2 
6500 5 0.28716 0.340782 0.137901 -3 -1 -2 
6672 5 0.437782 0.350733 0.10712 4 0 -4 
6772 5 0.749218 0.324371 0.120416 1 -1 -1 
7317 5 0.973285 0.374851 0.087335 -2 -5 2 
8864 6 0.154967 0.413884 0.127974 -1 1 3 
8502 6 0.585773 0.43243 0.112185 -1 2 1 
8797 5 0.0175685 0.438246 0.125317 -3 0 -2 
5843 6 0.237973 0.454892 0.0743238 1 4 6 
6908 6 0.390162 0.452113 0.0657707 -2 -3 0 
7275 6 0.165595 0.418474 0.0958532 0 6 2 
7078 5 0.392267 0.434674 0.0932594 -1 0 4 
7813 6 0.83844 0.39747 0.0963214 -1 6 2 
7817 5 0.217433 0.471774 0.114901 0 3 0 
6439 6 0.274591 0.517047 0.107351 2 -3 -1 
5393 6 0.0986276 0.509612 0.104894 2 5 4 
6322 6 0.359684 0.531825 0.0787629 6 -5 -2 
5781 5 0.80203 0.521255 0.117672 -2 2 -4 
8443 5 0.157448 0.54475 0.108029 3 1 0 
5232 6 0.365957 0.527274 0.0773429 2 2 3 
8752 5 0.695988 0.538819 0.0528363 -4 2 2 
5478 6 0.259462 0.589689 0.1293 -1 -4 -2 
8666 6 0.100654 0.619172 0.10981 0 1 -4 
7441 6 0.203845 0.575423 0.100196 4 -6 6 
6165 6 0.28783 0.616135 0.072967 0 -1 -1 
5736 6 0.497328 0.586103 0.144666 -8 1 1 
6617 5 0.0526545 0.652588 0.114394 3 -3 9 
5713 5 0.452935 0.640831 0.115558 4 2 -3 
7284 5 0.419682 0.620215 0.102792 -2 -3 -1 
7333 6 0.736186 0.621352 0.138444 -2 5 1 
5585 6 0.780429 0.659732 0.0752446 -3 2 2 
6635 6 0.87947 0.622905 0.120324 1 4 4 
6828 6 0.241845 0.606151 0.121639 3 5 2 
5240 5 0.984876 0.677325 0.113217 4 2 -1 
7295 6 0.0799706 0.722941 0.0950619 -1 3 -4 
6694 6 0.673219 0.656781 0.0738353 -4 2 -1 
8202 5 0.170678 0.705213 0.134628 1 3 6 
7766 5 0.50588 0.693119 0.082941 -1 1 1 
8471 6 0.33935 0.739905 0.12628 4 -2 -1 
8961 6 0.617891 0.742323 0.107972 3 3 1 
6499 6 0.88934 0.680081 0.115815 1 0 2 
7265 5 0.58114 0.782306 0.112261 0 5 1 
8845 6 0.39297 0.83458 0.0918358 -1 1 -4 
6786 5 0.982072 0.863662 0.106524 1 1 -3 
8976 5 0.464284 0.81935 0.121443 2 -2 0 
5896 5 0.59866 0.845271 0.126094 2 -1 4 
7135 6 0.66884 0.851916 0.104886 -4 3 -1 
5867 6 0.469145 0.853663 0.121064 -2 2 -3 
6262 5 0.64683 0.900925 0.113682 1 4 -2 
7759 6 0.162125 0.885033 0.100709 4 2 1 
6629 5 0.246242 0.905877 0.0953574 0 5 -3 
7288 6 0.236495 0.905282 0.0877567 -1 2 -1 
8173 6 0.656185 0.89351 0.124667 4 4 -2 
7574 6 0.240542 0.942273 0.0862872 2 -6 -2 
5832 6 0.680855 0.96764 0.0703135 3 2 2 
7703 6 0.338642 0.969097 0.099488 -2 -4 2 
6411 5 0.502544 0.969841 0.115309 -2 1 -5 
6682 6 0.930847 0.980983 0.087556 -2 -2 1 
5976 5 0.937467 0.979896 0.107581 -1 -3 4 
5173 6 0.0122444 0.00877292 0.117689 -3 -1 0 
6183 6 0.0742779 0.0413261 0.110009 -4 7 4 
5461 5 0.808727 0.0840347 0.127099 4 -2 0 
5627 6 0.0711143 0.0542914 0.140654 -3 0 -1 
8411 5 0.539737 0.0852748 0.124679 -2 -3 3 
5937 5 0.648796 0.100788 0.122649 6 0 1 
5404 6 0.00875373 0.149717 0.126024 0 3 1 
5538 5 0.141379 0.14521 0.10576 -2 -4 -3 
8816 5 0.505497 0.0940902 0.148746 -2 5 2 
6006 5 0.750041 0.157553 0.136445 1 1 -5 
7572 5 0.958668 0.140322 0.14358 -2 1 0 
7985 6 0.114157 0.168021 0.121733 0 3 -2 
8223 6 0.417962 0.111547 0.0916432 -3 2 0 
6113 5 0.638012 0.143104 0.0788251 3 0 -1 
8183 5 0.720056 0.159568 0.156575 -2 2 3 
6364 5 0.189193 0.202276 0.13242 2 -2 -1 
7771 5 0.5341 0.198154 0.157385 1 3 -2 
5501 5 0.920313 0.189715 0.117813 3 1 5 
8483 5 0.737353 0.221606 0.109552 1 0 2 
5507 6 0.76326 0.175795 0.118079 -2 -3 -3 
6024 5 0.232804 0.228385 0.0942776 3 -1 1 
8005 6 0.776272 0.221444 0.144639 2 -2 -2 
5049 5 0.91879 0.235054 0.125535 1 2 2 
5603 5 0.173129 0.296014 0.116841 -2 3 0 
7232 5 0.897424 0.251347 0.120985 -2 -1 2 
5673 6 0.908804 0.28402 0.11271 -6 -1 0 
5514 5 0.0290412 0.289531 0.139816 0 -3 1 
7345 5 0.846033 0.316808 0.110158 -1 2 1 
5754 5 0.536501 0.336681 0.129282 3 1 -4 
8472 5 0.616035 0.306281 0.168038 -2 -1 2 
6482 5 0.711819 0.33252 0.0962474 2 3 -1 
8843 5 0.729705 0.308937 0.128723 2 -2 -5 
5022 5 0.996558 0.361173 0.118171 -2 1 -2 
5040 5 0.400282 0.322855 0.124658 1 0 4 
6213 5 0.77461 0.36841 0.100456 3 -1 2 
7698 6 0.734785 0.389041 0.133801 1 -3 4 
7531 6 0.996831 0.376814 0.135747 -7 -1 6 
7357 6 0.810576 0.412596 0.141416 -2 -3 -1 
7021 5 0.992388 0.459993 0.113532 -2 1 0 
7270 6 0.858468 0.449806 0.125705 -1 1 5 
8852 6 0.0111071 0.467724 0.0894456 0 1 0 
5323 5 0.670983 0.518007 0.119769 5 4 -3 
5254 6 0.742575 0.479067 0.12794 -1 -1 2 
6794 6 0.526979 0.474483 0.155474 -3 4 2 
5980 5 0.0103379 0.47784 0.0977139 1 1 -1 
5705 5 0.301689 0.513613 0.12135 -2 -3 2 
5888 5 0.772896 0.509583 0.126681 -2 1 0 
7494 6 0.0702951 0.512986 0.124525 1 1 3 
6673 5 0.0745932 0.595055 0.136276 1 2 3 
5134 5 0.605192 0.594628 0.131964 -1 0 10 
7180 5 0.612038 0.590696 0.122927 0 1 -2 
7320 6 0.744292 0.578766 0.109865 1 2 0 
6488 5 0.0466047 0.638171 0.151501 4 2 1 
8334 5 0.0515961 0.58676 0.116527 2 0 -2 
6369 5 0.558437 0.61505 0.112533 1 1 0 
5355 5 0.0884181 0.619534 0.132786 2 -4 -4 
7972 6 0.526303 0.633077 0.153703 -1 -2 -4 
7638 6 0.665265 0.657437 0.153533 -3 0 0 
5788 6 0.960417 0.636262 0.0817661 -4 3 3 
6988 6 0.338511 0.679855 0.123567 -1 0 3 
5020 5 0.359248 0.693702 0.130008 2 2 -5 
7681 6 0.921445 0.682347 0.100709 -2 0 4 
8008 6 0.503675 0.697774 0.118922 1 -4 3 
5857 5 0.584692 0.74529 0.122565 3 -3 -3 
8714 6 0.878556 0.733921 0.127508 -1 1 -1 
7442 5 0.78257 0.791126 0.112136 -3 2 -2 
7868 6 0.266888 0.803681 0.0729433 -2 2 -5 
7492 5 0.376288 0.805649 0.155827 3 -1 -4 
7108 5 0.581604 0.774633 0.119785 2 -6 5 
5818 6 0.584996 0.764332 0.137263 1 -3 -3 
5268 6 0.545778 0.7693 0.0775459 -2 -1 3 
7837 6 0.539782 0.832993 0.160707 -2 -3 -4 
7286 5 0.8133 0.808424 0.134108 6 -7 -4 
6412 6 0.691591 0.833466 0.178923 0 5 2 
6251 5 0.272385 0.8716 0.122178 2 -6 2 
5742 5 0.349047 0.880467 0.130676 4 3 1 
7974 5 0.877773 0.869369 0.121304 1 5 -5 
5539 5 0.83506 0.889029 0.117271 -2 1 1 
7984 5 0.988709 0.887317 0.150526 -4 0 -1 
5838 6 0.0148353 0.968216 0.149917 2 3 1 
6037 6 0.456964 0.933029 0.122014 6 -6 -7 
8631 6 0.554988 0.952146 0.137185 -5 1 4 
7905 5 0.914619 0.937093 0.130728 -2 -4 2 
6722 5 0.936775 0.959473 0.123263 1 -5 -2 
6053 5 0.318746 0.0127532 0.0685817 1 4 1 
6331 5 0.333841 0.997121 0.113915 0 -5 -2 
5406 6 0.611609 0.973753 0.148127 -5 2 -4 
6949 5 0.776251 0.998503 0.0865161 -1 3 3 
8368 5 0.0843676 0.00911329 0.17185 2 1 3 
7341 6 0.239041 0.0120791 0.0941051 -2 1 0 
8869 5 0.751734 0.978392 0.137504 2 0 0 
8862 5 0.855651 0.0186708 0.164396 4 -1 -3 
6395 6 0.853179 0.0253272 0.172939 -2 -1 2 
6203 6 0.978388 0.0532954 0.141441 -1 2 1 
7676 5 0.998679 0.103688 0.164579 -4 -3 2 
7779 6 0.0956261 0.0645628 0.112902 1 -2 3 
7624 5 0.0962588 0.0456757 0.12671 -1 1 -3 
6824 6 0.361232 0.0373867 0.107204 2 1 2 
8486 6 0.349886 0.0809481 0.1558 -2 1 1 
7178 6 0.862968 0.090548 0.139471 -5 4 1 
6646 6 0.376414 0.154344 0.154324 -1 4 -4 
6248 6 0.592564 0.157841 0.156372 0 -2 3 
8381 5 0.957369 0.152456 0.0991363 -4 3 2 
6776 6 0.302128 0.157254 0.135103 -2 3 -1 
8980 5 0.332455 0.211504 0.158167 1 0 1 
6086 6 0.684783 0.169415 0.127778 0 3 1 
5318 5 0.660455 0.208129 0.126651 1 1 0 
8144 6 0.368945 0.195672 0.144783 1 1 -5 
6959 5 0.734037 0.229825 0.157879 4 -1 2 
5615 5 0.853527 0.194931 0.155628 -4 -3 -2 
5552 6 0.863658 0.211014 0.143295 -3 3 3 
7498 6 0.205461 0.23904 0.113432 4 -1 2 
8699 6 0.98144 0.290143 0.141597 0 3 -3 
7416 5 0.226138 0.23163 0.124909 7 -1 0 
8789 6 0.719902 0.289713 0.149702 1 4 -4 
5407 6 0.291711 0.295323 0.120768 3 -1 5 
5367 6 0.282715 0.277678 0.168628 6 5 3 
7882 6 0.640905 0.328124 0.152442 2 -7 4 
6801 6 0.16048 0.313955 0.151498 -3 -6 -1 
5618 6 0.968136 0.313414 0.151295 0 -1 1 
7234 5 0.360458 0.350018 0.164376 1 0 -1 
7912 6 0.789774 0.367978 0.149464 -7 2 8 
5129 6 0.828899 0.381791 0.178212 0 -3 4 
6799 6 0.98219 0.364383 0.106632 2 2 6 
8930 5 0.403087 0.388595 0.167753 -2 2 0 
7435 6 0.46502 0.376359 0.144491 5 1 9 
7736 5 0.53566 0.400876 0.104127 7 1 0 
8022 5 0.258743 0.399226 0.121466 4 3 0 
7247 6 0.374703 0.424639 0.11506 2 -2 4 
7448 5 0.638071 0.384965 0.181616 2 -4 -2 
5091 6 0.732236 0.425071 0.180107 -1 -4 -2 
8662 5 0.564625 0.422063 0.13932 -1 -1 -2 
6316 5 0.884456 0.43537 0.172622 -4 4 5 
8026 5 0.056409 0.452207 0.159788 -1 -2 -1 
8945 6 0.533689 0.466358 0.123151 2 -1 -5 
8740 6 0.863141 0.449552 0.154892 -3 0 1 
7950 6 0.119712 0.504674 0.166732 -2 4 0 
7825 6 0.243691 0.481011 0.102281 1 0 2 
7223 6 0.2584 0.49946 0.139372 1 0 -1 
5167 5 0.468692 0.499672 0.123291 5 7 1 
5303 5 0.723327 0.481286 0.146489 0 -2 5 
7674 5 0.525035 0.527237 0.167472 -1 2 -3 
8447 6 0.968683 0.538597 0.144158 4 2 -2 
8446 5 0.00112849 0.493212 0.156887 4 1 -3 
7005 5 0.426622 0.551487 0.156604 2 -2 2 
7480 6 0.199521 0.545747 0.131302 3 -7 1 
7872 6 0.593777 0.572919 0.0825026 -3 -1 1 
5123 6 0.564117 0.619922 0.146021 3 1 5 
8120 5 0.658043 0.588698 0.184264 -2 4 2 
7542 6 0.681892 0.584887 0.149482 3 -3 2 
5697 5 0.761641 0.586147 0.157385 1 5 0 
6954 5 0.31499 0.623052 0.15523 -1 0 -2 
5576 5 0.472833 0.601508 0.136729 4 2 0 
7428 5 0.303799 0.599496 0.190446 7 -4 2 
6554 5 0.548767 0.59347 0.124995 5 -4 -1 
8581 6 0.925858 0.624377 0.17655 1 0 -1 
8764 5 0.194118 0.657151 0.135976 0 3 3 
7453 5 0.894923 0.62493 0.158547 1 5 9 
8123 5 0.185987 0.655788 0.143411 -1 2 2 
5266 6 0.893621 0.65462 0.167271 5 0 1 
5448 5 0.378841 0.743481 0.161536 0 0 1 
6531 6 0.5762 0.775873 0.149919 -1 -2 -1 
8510 5 0.145197 0.764186 0.175835 8 -5 -1 
7152 5 0.311803 0.753103 0.11905 -3 -4 0 
7953 6 0.567067 0.780666 0.196159 1 4 1 
5146 6 0.677702 0.748089 0.128197 -2 -2 1 
7139 5 0.787609 0.761355 0.165276 -6 -2 0 
8067 6 0.933644 0.752865 0.15057 1 1 4 
6418 5 0.00648144 0.767514 0.154574 2 -2 -2 
6066 6 0.231024 0.790208 0.158443 0 -2 -1 
7700 6 0.473886 0.800671 0.165502 2 2 -2 
6625 5 0.488779 0.839571 0.19782 2 3 -1 
8503 5 1.00007 0.838035 0.181616 -2 2 2 
5703 6 0.341732 0.872763 0.128116 -2 -3 4 
8271 5 0.0290271 0.940422 0.142491 3 -1 0 
5883 6 0.120583 0.915649 0.179448 8 -2 -2 
6595 5 0.633372 0.888724 0.168937 -3 -4 -5 
5919 5 0.47547 0.952719 0.147791 4 -3 3 
5010 6 0.780333 0.936194 0.137591 -1 1 1 
7183 5 0.0461232 0.0176312 0.128463 -6 0 1 
5008 6 0.671791 0.930386 0.147544 -4 -1 2 
8428 5 0.739437 0.958535 0.16575 -3 2 0 
7279 5 0.426035 0.0192498 0.161632 0 2 -2 
8062 6 0.876608 0.00801468 0.177691 5 -2 -3 
7649 6 0.0902595 0.00925758 0.161974 4 2 4 
5209 6 0.523382 0.0593226 0.156162 -3 4 5 
7869 5 0.365749 0.0310022 0.150745 -2 7 1 
8119 6 0.748618 0.0747183 0.143907 -3 2 2 
5841 5 0.332651 0.0819115 0.145082 5 2 -4 
5152 6 0.701019 0.120668 0.16262 0 0 1 
6269 6 0.717354 0.0736227 0.167227 3 4 -1 
6811 5 0.906681 0.112469 0.201599 0 -6 1 
6070 6 0.328361 0.141576 0.162683 -2 -1 -3 
7489 6 0.707825 0.104987 0.16532 -2 -4 5 
5769 6 0.836071 0.0864483 0.226029 0 -1 0 
6980 6 0.856182 0.0900495 0.132536 -1 -2 -1 
6199 5 0.068529 0.128761 0.16291 -1 1 -2 
5530 6 0.653966 0.110645 0.160843 9 2 -3 
7173 6 0.565617 0.172033 0.155121 3 -1 3 
6484 6 0.677307 0.175563 0.177069 -6 6 3 
7999 5 0.131271 0.201751 0.190854 -2 -1 -1 
7522 6 0.326997 0.193484 0.171765 -2 1 8 
5320 5 0.444583 0.219075 0.14441 3 3 2 
8723 6 0.396398 0.23966 0.175692 3 -1 -6 
8823 6 0.734854 0.268525 0.132484 3 -4 0 
5670 5 0.40457 0.269625 0.1789 2 -1 3 
7747 5 0.804845 0.214859 0.205924 -1 -4 2 
6747 5 0.165086 0.304131 0.184548 0 1 5 
6508 6 0.527457 0.283552 0.171271 4 1 -3 
6292 6 0.153523 0.327989 0.18969 0 -2 5 
8895 5 0.994528 0.297089 0.139903 -1 -2 5 
8198 6 0.5711 0.344048 0.183156 -1 -2 -1 
8444 6 0.115692 0.351064 0.20393 0 1 -6 
6460 5 0.445926 0.374174 0.180673 1 -1 4 
6689 6 0.842015 0.375904 0.161747 -2 1 -3 
5880 5 0.938337 0.353674 0.177797 -1 -1 2 
8875 5 0.0591478 0.412497 0.144612 -2 -3 1 
8360 6 0.817512 0.454983 0.151797 -1 1 -6 
6618 6 0.426743 0.464736 0.161954 -4 -1 1 
7903 5 0.790044 0.455606 0.202654 -1 -2 0 
5683 6 0.0341226 0.4866 0.200738 3 3 1 
8916 5 0.0354898 0.480839 0.157975 -1 -3 3 
8488 5 0.0400011 0.495548 0.192578 -3 -8 -2 
5193 6 0.715413 0.487293 0.226915 -2 -2 -1 
6841 6 0.988077 0.557093 0.175112 0 0 -5 
5977 6 0.485734 0.507321 0.194384 1 -2 -4 
8000 6 0.569311 0.564934 0.164711 3 -5 -5 
6532 5 0.684085 0.5404 0.187901 3 -3 2 
6864 6 0.525231 0.588192 0.188996 6 1 -2 
6513 6 0.546724 0.638976 0.128993 1 0 0 
6903 6 0.822191 0.572668 0.199722 4 9 5 
8485 5 0.895363 0.600584 0.185636 -7 0 4 
8655 5 0.315566 0.643866 0.199119 3 0 2 
8055 6 0.43004 0.643725 0.184319 -6 1 4 
8562 5 0.674723 0.621629 0.181178 0 1 -3 
5948 5 0.803814 0.617999 0.134318 -2 -1 -1 
6748 6 0.252134 0.625107 0.129912 0 4 -4 
8032 5 0.65603 0.67801 0.140372 -3 -1 -1 
8593 6 0.196574 0.671744 0.178575 -3 -1 4 
6171 6 0.171233 0.649046 0.124318 -4 -2 0 
8432 6 0.683096 0.676417 0.152637 -4 -2 2 
6057 5 0.554968 0.669378 0.157342 -1 1 1 
8391 5 0.688608 0.72896 0.165207 -3 -1 -4 
6658 5 0.863474 0.751015 0.135662 0 -1 0 
5651 6 0.889438 0.7345 0.195971 -4 -2 -1 
7809 6 0.138818 0.743927 0.160383 5 4 -1 
6122 5 0.572616 0.78431 0.143697 0 0 -2 
8701 6 0.956257 0.780733 0.181474 -1 -1 -4 
6187 6 0.981181 0.773063 0.178161 -5 -3 0 
6858 5 0.163588 0.799935 0.201767 1 -3 6 
8777 6 0.477426 0.796539 0.171295 2 -2 -1 
5460 6 0.780116 0.798065 0.152725 -6 -4 1 
8896 5 0.300155 0.846752 0.196629 6 1 -1 
8203 5 0.541442 0.891417 0.175502 -1 0 -1 
8448 5 0.539246 0.869525 0.146797 4 0 4 
8855 6 0.614223 0.841964 0.185753 0 1 -4 
7613 6 0.617051 0.883089 0.185162 -1 -1 2 
8735 5 0.127325 0.877126 0.178047 1 0 -1 
7093 6 0.534789 0.907118 0.180203 -2 6 1 
5955 6 0.563951 0.899182 0.160352 -4 -6 1 
8937 6 0.671474 0.906636 0.149709 0 0 2 
5912 5 0.570673 0.880339 0.17516 0 2 1 
6541 6 0.388502 0.938273 0.159762 -3 0 0 
7174 6 0.583156 0.946671 0.19152 0 -3 0 
8273 6 0.598347 0.952599 0.157278 1 -2 6 
5196 5 0.403064 0.044998 0.18372 -2 3 -3 
7797 6 0.481201 0.0126719 0.20686 -1 2 -3 
6644 6 0.0256545 0.0500053 0.164389 -2 1 0 
8480 5 0.5492 0.0438904 0.169366 -2 2 0 
5078 5 0.753292 0.0236045 0.179539 2 -3 0 
8525 6 0.0840048 0.0505029 0.229848 4 1 3 
5244 5 0.477132 0.0862366 0.167297 -1 -5 4 
5083 5 0.543004 0.0683358 0.192124 0 0 -2 
5899 5 0.113363 0.12609 0.204406 -1 3 -3 
7412 5 0.0805218 0.144491 0.224026 -3 4 2 
6490 6 0.149407 0.155745 0.224239 5 -2 -3 
6417 6 0.319823 0.0910786 0.2194 -2 -2 -5 
5290 5 0.536803 0.14171 0.186062 1 2 3 
8041 6 0.995235 0.097985 0.218226 -7 1 3 
5253 5 0.442028 0.148429 0.171215 0 -4 0 
6885 6 0.919458 0.126448 0.189379 -3 0 1 
7553 5 0.931755 0.151981 0.193328 1 -2 1 
6810 5 0.241887 0.159641 0.155427 0 1 1 
7449 6 0.430296 0.141099 0.201738 0 2 -5 
6742 6 0.5462 0.187174 0.225044 -3 2 -1 
7518 6 0.695877 0.147169 0.196599 1 1 1 
6256 6 0.745142 0.170789 0.196885 -1 5 3 
6549 5 0.462312 0.148186 0.20557 2 -2 -2 
5080 6 0.832631 0.210386 0.195237 -2 1 0 
7602 6 0.418828 0.24635 0.205623 0 -6 1 
8384 5 0.661933 0.225195 0.206176 -1 3 1 
7834 6 0.494772 0.260056 0.177783 -6 2 0 
5674 6 0.681182 0.244061 0.195292 1 -1 -3 
7539 5 0.799654 0.259128 0.168057 -2 -8 5 
6200 5 0.111938 0.282178 0.197824 -5 0 -1 
8072 6 0.302968 0.279549 0.224803 0 -1 0 
6973 6 0.3109 0.295961 0.221135 1 -3 -4 
7650 6 0.343806 0.332028 0.153584 -3 7 -1 
7988 5 0.592036 0.275639 0.180653 0 -1 0 
5872 6 0.272125 0.33207 0.161798 -6 -2 3 
5105 5 0.961005 0.327335 0.17914 -1 0 -1 
5903 6 0.240316 0.356427 0.215174 1 6 2 