ITEM: TIMESTEP
20000000
ITEM: NUMBER OF ATOMS
9000
ITEM: BOX BOUNDS pp pp pp
-75 75
-75 75
-75 75
ITEM: ATOMS id type xs ys zs ix iy iz 
6418 5 0.0858493 0.986618 1.00146 -2 1 1 
8965 6 0.428866 0.0262901 0.0235206 1 0 -1 
8478 6 0.168386 0.0244199 0.00646646 -5 -2 2 
8995 6 0.291682 0.00549422 0.0048495 3 -1 1 
8789 5 0.426183 0.044872 0.980577 1 -3 4 
8419 6 0.897083 0.984191 0.995179 -1 -1 -1 
8229 5 0.974738 0.0110089 -0.00399227 -3 -4 -3 
7052 5 0.891064 0.0274004 0.0370942 5 -2 -5 
5792 5 0.165821 0.0586808 0.0103729 6 -1 1 
7751 6 0.594002 0.0659754 0.013456 0 3 -1 
7810 5 0.118424 0.0788539 0.994368 6 0 0 
8780 5 0.185393 0.0658477 0.0148836 4 1 7 
7623 5 0.295373 0.0633675 0.0135782 2 0 3 
8967 5 0.513896 0.0475925 0.0300198 0 3 -4 
6671 5 0.636947 0.0680737 0.0121456 -4 3 3 
7471 5 0.967795 0.0887436 0.0538241 1 1 0 
5782 5 0.328454 0.148822 0.99253 -1 -2 0 
7335 5 0.346065 0.0959817 -0.00162534 0 3 1 
5500 6 0.32767 0.132589 0.0347096 4 0 0 
6026 6 0.0775172 0.164138 0.0161987 1 0 0 
5839 5 0.312085 0.158099 0.990816 -2 1 -3 
6092 6 0.382015 0.171034 0.993503 0 -2 0 
6315 6 0.496482 0.180727 0.0198569 -5 -3 0 
8829 6 0.63742 0.161446 0.0343187 -4 2 8 
5482 6 0.976716 0.163827 0.0214694 -2 0 4 
6319 6 0.42528 0.186311 0.0351955 -2 -1 -1 
8293 5 0.655681 0.205624 0.0120223 -2 2 -1 
6659 6 0.345162 0.257283 0.0162372 7 1 4 
8727 6 0.246063 0.289566 0.0060157 3 5 1 
5337 6 0.599134 0.252859 0.00682594 -5 -1 -4 
8657 5 0.781107 0.279672 0.00836412 2 1 2 
8844 6 0.254368 0.323529 0.0181674 1 1 -2 
7484 5 0.00602843 0.289973 0.0141235 -5 -5 -1 
5513 6 0.308611 0.296322 0.0406757 1 2 1 
8174 6 0.582371 0.341172 1.00561 -6 -3 -1 
8011 5 0.818981 0.331815 0.0234436 2 -4 -5 
8130 6 0.934044 0.345955 0.0454298 -3 -3 3 
8748 5 1.00216 0.330268 0.00933044 2 2 1 
6133 6 0.0195809 0.376804 0.0504392 -2 6 -1 
8315 5 0.327559 0.315422 0.993322 0 1 -2 
8289 5 0.584495 0.362439 0.0287284 -2 5 2 
7196 5 0.10946 0.394194 0.961269 -6 3 -1 
5825 6 0.182255 0.368298 0.0229957 -2 -3 0 
6165 6 0.451959 0.3685 0.017287 1 3 3 
7647 6 0.913696 0.365696 0.00995671 4 -1 2 
6680 5 0.907353 0.415278 0.0319778 -2 0 -2 
5822 5 0.0367023 0.399622 0.0516323 4 -6 2 
6454 6 0.275562 0.442511 0.00955103 1 1 -1 
7870 6 0.31152 0.494825 0.0223859 5 -2 -6 
5671 6 0.953555 0.486834 0.0439313 2 0 4 
6014 6 0.741787 0.484216 0.0228762 0 3 3 
8713 5 0.904418 0.47814 0.00979914 -4 -2 -3 
6707 5 0.456463 0.511225 0.982982 -4 -3 -6 
7112 6 0.669968 0.506411 0.00879385 4 -3 0 
5532 6 0.766003 0.516546 0.994548 5 4 -1 
7402 6 0.275721 0.563616 0.0320467 -4 2 0 
6974 5 0.762576 0.542385 0.982523 0 7 -2 
7789 5 0.130243 0.533102 0.0426762 4 -2 3 
7558 6 0.345422 0.537502 0.000652826 0 4 1 
8803 5 0.397434 0.561657 0.0240254 1 -2 0 
8156 6 0.152985 0.568944 0.034208 5 -2 -3 
6607 6 0.293457 0.619037 0.997831 0 3 -2 
6298 6 0.371579 0.558381 0.0608897 2 -5 3 
7278 6 0.47681 0.605982 0.00822005 -2 3 1 
5547 5 0.0198714 0.596314 0.0143827 3 0 0 
5578 6 0.233535 0.573698 0.00572795 2 -1 -4 
6041 5 0.373577 0.603593 0.00547097 3 0 1 
5572 5 0.266373 0.623752 0.0303476 0 -4 3 
8720 6 0.268583 0.642958 0.0374556 -4 -1 -1 
7455 5 0.24986 0.661153 0.000281174 -2 -4 1 
5799 6 0.0298015 0.662722 0.993744 -2 -1 4 
7353 6 0.101884 0.64141 0.0402149 2 2 0 
8423 6 0.0588151 0.648407 0.0273153 1 -2 -5 
6563 6 0.26138 0.641543 0.0101704 1 -4 -1 
7109 6 0.337259 0.695569 0.0050188 -2 6 4 
5598 5 0.81586 0.694392 0.0462126 -1 -1 -1 
8171 5 0.856587 0.70336 0.0429599 -1 -3 -2 
7286 6 0.739154 0.671359 0.0316512 0 4 -2 
7132 5 0.124965 0.751117 0.0329237 -6 0 -1 
6832 5 0.167513 0.751943 0.0249557 0 1 2 
6884 5 0.657151 0.750306 0.981677 -1 -2 4 
6364 5 0.737474 0.756995 1.00041 -1 4 3 
6148 6 0.761581 0.716953 -0.00153427 -4 -2 1 
8645 5 0.670465 0.738767 0.00268515 -3 -3 3 
6564 5 0.852999 0.794454 0.987051 0 0 -2 
8591 5 0.295873 0.817166 0.949883 -1 1 -1 
6301 6 0.731376 0.786405 0.0540689 4 0 4 
7606 5 0.913649 0.826733 0.954878 5 2 2 
6353 6 0.750287 0.850625 0.002568 2 -6 -1 
5256 5 0.796136 0.826986 0.025583 -1 -1 1 
5654 5 0.365733 0.844121 0.997941 -5 1 2 
7664 5 0.971034 0.860449 0.989253 -4 3 -1 
7640 5 0.995924 0.838315 0.0348553 0 -5 -3 
8555 6 0.75561 0.903626 0.0479828 1 -1 3 
7068 6 0.082566 0.920566 0.0210308 7 -3 -1 
8956 5 0.235648 0.933805 0.0157757 0 -5 -5 
7245 5 0.835941 0.959079 0.995093 -2 2 1 
6411 5 0.542753 0.985521 0.00117739 -1 -3 -2 
5508 5 0.920393 0.0014031 0.990555 -1 4 0 
8344 6 0.117327 0.035923 0.030139 -2 3 0 
6506 5 0.505956 0.0399829 0.991666 3 -1 -2 
7215 6 0.802425 0.0472089 0.0277093 1 0 6 
5180 5 0.298539 0.0904755 0.0489179 1 5 2 
5644 6 0.893758 0.0965707 0.0592028 -5 5 2 
5870 5 0.458741 0.0967166 0.0284861 3 1 0 
5273 6 0.251421 0.106475 0.0467336 3 -3 6 
6967 6 0.41268 0.132381 0.0285584 2 2 1 
5237 6 0.444601 0.164385 0.0515874 0 0 1 
7867 5 0.110693 0.186816 0.0499151 -1 -2 -1 
6049 6 0.235349 0.148903 0.0276965 -3 -4 2 
8966 5 0.641559 0.116618 0.0282387 2 1 -5 
8692 6 0.265698 0.19004 0.0493012 -2 0 1 
7665 6 0.640238 0.192487 0.0147489 -1 1 4 
7931 6 0.909282 0.178679 0.00691928 1 5 3 
7023 6 0.00214974 0.173018 0.00657386 -7 -3 1 
7445 6 0.0495489 0.264218 0.00711172 -1 -3 1 
8113 5 0.146542 0.25927 0.0490583 -2 1 1 
5276 6 0.656353 0.277236 0.0574036 6 0 1 
5335 5 0.298981 0.307766 0.00622707 1 -1 -1 
8938 5 0.994831 0.356563 0.0331272 0 -1 2 
8086 5 0.102225 0.353095 0.0142303 -2 2 -2 
6384 5 0.150605 0.373039 0.0176546 -2 2 -1 
8228 5 0.262425 0.378995 0.039059 -2 2 3 
5646 6 0.260139 0.354907 0.0319083 3 -7 -3 
6652 6 0.486942 0.35447 0.0186557 -5 3 0 
5538 6 0.759225 0.351938 0.002815 2 2 0 
7330 5 0.931515 0.371859 0.0530121 -1 -2 -2 
6018 6 0.251788 0.394054 0.993258 0 3 0 
5715 6 0.504748 0.414888 0.02998 -1 -3 -3 
7746 5 0.254269 0.41086 0.0310974 -2 -1 1 
7814 5 0.377626 0.421056 0.00854651 -2 3 -3 
7616 5 0.810108 0.428016 0.0382085 0 4 5 
7362 5 0.956006 0.444781 0.0446723 -1 5 1 
5038 6 0.387066 0.462163 0.0448941 0 5 0 
6328 6 0.812382 0.409139 0.0197145 -3 1 -1 
5683 6 0.413419 0.463769 0.0212512 -2 1 -6 
6028 5 0.733792 0.451925 0.0280889 2 1 1 
7047 6 0.970407 0.469 0.00989462 1 2 1 
7461 6 0.671902 0.52768 0.0365176 -3 -5 -1 
5915 5 0.854165 0.48155 0.00561697 -3 -1 2 
8641 5 0.374605 0.49717 0.0345001 2 -2 1 
8785 6 0.733096 0.537562 0.044254 -4 -1 2 
8060 5 0.871145 0.518148 0.0197747 3 5 1 
7417 6 0.940363 0.53487 0.0569761 -1 -3 2 
8649 5 0.10276 0.525606 0.0239127 2 3 3 
7328 5 0.142915 0.519353 0.0664857 3 6 0 
6989 6 0.132984 0.574733 0.0578599 1 -1 1 
8361 6 0.160806 0.591983 0.0165149 0 1 -3 
8464 6 0.178524 0.592607 0.048375 -3 2 4 
8617 5 0.770389 0.556751 0.0393331 0 -1 2 
7485 5 0.863322 0.524883 0.0427352 5 -6 6 
8363 6 0.140874 0.577668 0.0149487 -4 1 0 
5564 6 0.558199 0.556923 0.0043495 3 1 -3 
6458 6 0.636829 0.604917 0.038143 -1 0 0 
8854 5 0.0926071 0.641853 0.029317 3 -1 -3 
6065 5 0.609241 0.575379 0.0430229 3 -1 -3 
7894 6 0.728984 0.621726 0.0049744 0 0 0 
5953 6 0.458866 0.658727 0.0341571 1 0 4 
8805 6 0.0236163 0.730683 0.03346 0 -4 3 
8824 5 0.751989 0.731566 0.0472956 -4 3 -3 
6162 6 0.128257 0.725091 0.0799053 -1 -4 -5 
7049 6 0.534995 0.75684 0.0586077 2 -5 -2 
6953 5 0.068589 0.749623 0.995824 -2 8 -3 
6496 6 0.500124 0.747911 0.00960655 -2 1 5 
5479 6 0.718029 0.723234 0.0803273 2 -4 1 
8972 6 0.729598 0.764005 0.0527876 2 0 1 
6349 5 0.0119628 0.788749 0.0366007 -4 1 1 
5657 5 0.389265 0.780069 0.997305 0 -3 0 
8648 6 0.720008 0.775238 0.0339323 -1 -2 0 
6841 6 0.808426 0.813376 0.993985 -1 -3 -2 
6971 6 0.635075 0.847881 0.0296903 0 0 1 
7136 5 0.963958 0.834746 0.0423592 -5 0 4 
8304 6 0.204806 0.865301 0.00710122 3 -5 2 
8399 5 0.537119 0.877796 0.0450058 -2 4 -2 
7707 5 0.595056 0.826403 0.0198795 1 0 1 
7275 5 0.79769 0.859238 0.0720292 -1 1 3 
5602 6 0.706671 0.891776 0.070339 -1 0 4 
5472 6 0.252045 0.873603 0.0525304 3 2 1 
8875 5 0.601605 0.866557 0.0640236 5 -2 1 
5725 5 0.692881 0.905463 0.0589092 -3 2 5 
6383 6 0.964214 0.907237 0.0302754 1 -1 -1 
7310 5 0.919422 0.873086 0.989412 -4 -3 -5 
8186 6 0.479418 0.918157 0.017264 0 -3 4 
7212 6 0.371143 0.958855 0.00702171 -2 4 0 
7535 5 0.721181 0.927904 0.0596132 4 3 1 
7842 6 0.387903 0.984691 0.0158981 0 0 0 
7759 5 0.59692 0.958503 0.0241665 4 -3 1 
7900 6 0.749047 0.994636 0.994051 1 0 -2 
5286 6 0.734125 0.950632 0.0277248 -3 -5 0 
7708 5 0.915021 0.97658 0.0244695 2 -3 0 
7091 5 0.967202 0.03819 0.0899297 -2 -2 -4 
7312 5 0.0978758 0.0185451 0.0415033 -2 3 2 
8955 6 0.305633 0.0617501 0.0613295 -3 1 -1 
5510 6 0.84411 0.0580121 0.0475288 -1 -2 -5 
5641 5 0.912346 0.0610198 0.0856105 0 0 3 
6591 6 0.909855 0.0713585 0.0120318 -2 2 2 
8372 6 0.123413 0.0879006 0.0762134 1 0 -2 
7410 5 0.245207 0.116313 0.0496082 0 -1 1 
8896 5 0.343461 0.0987379 0.080809 2 0 1 
7216 6 0.818286 0.0838424 0.0581481 -5 -4 1 
5688 5 0.334307 0.114151 0.0972847 0 -2 2 
5620 5 0.595628 0.118978 0.0350023 1 2 2 
7829 5 0.171634 0.185609 0.0639144 -1 4 3 
7952 6 0.854871 0.177351 0.0608895 -1 1 2 
5009 5 0.46104 0.191074 0.0628454 -2 1 -5 
7031 5 0.0861922 0.189626 0.0840783 0 -1 -1 
6803 5 0.692851 0.279161 0.0774907 5 3 -2 
5485 5 0.825492 0.221073 0.08561 -2 1 -3 
5243 6 0.70956 0.282754 0.0437637 0 1 -3 
7382 5 0.182773 0.263921 0.0817201 2 7 4 
7297 6 0.760517 0.270604 0.0429412 -2 0 -3 
6593 6 0.846608 0.236339 0.0733967 -1 0 7 
7637 5 0.300128 0.277451 0.0567892 -6 2 0 
6861 6 0.363023 0.275301 0.0723406 0 -3 2 
7642 5 0.875403 0.271215 0.0672793 0 -2 -3 
8271 5 0.175163 0.300541 0.0703621 0 2 2 
8982 5 0.50989 0.321315 0.0324385 -4 1 3 
8513 5 0.909363 0.315959 0.0664035 2 2 0 
6915 6 0.147381 0.294677 0.0539929 1 1 1 
5882 5 0.137608 0.294387 0.0615338 6 -4 -1 
6132 5 0.247355 0.323698 0.0333724 5 -1 -4 
6336 5 0.402127 0.289305 0.0931151 0 0 3 
7351 6 0.486844 0.313088 0.0376222 -3 1 2 
5852 6 0.546665 0.351891 0.0261342 1 1 1 
6777 5 0.82726 0.311843 0.0609465 1 -2 -2 
6205 5 0.537115 0.318064 0.050395 -1 7 3 
5815 5 0.570562 0.336311 0.0811651 2 3 9 
6460 6 0.734137 0.330949 0.0827741 0 0 -2 
5876 5 0.298177 0.392222 0.0371998 1 5 -3 
5925 6 0.816513 0.410448 0.0823743 0 -3 -1 
6511 6 0.273048 0.404481 0.0526285 5 2 6 
8425 5 0.383401 0.459277 0.0537577 -1 3 2 
8373 6 0.592217 0.442376 0.0695777 3 -1 -1 
5151 6 0.943901 0.422973 0.0440559 -2 1 3 
8059 5 0.438962 0.47223 0.0746534 1 1 0 
7523 5 0.701539 0.525239 0.0549262 0 0 3 
6394 6 0.74535 0.446222 0.0388263 3 -2 -4 
8262 5 0.295698 0.504225 0.0757723 -6 2 -3 
8127 5 0.369714 0.500769 0.0217229 2 5 -1 
5814 6 0.932046 0.540903 0.0994324 -4 -1 -1 
7234 6 0.364515 0.593128 0.0115242 -1 -4 -1 
7506 6 0.463131 0.518842 0.0596015 1 -4 -4 
5584 5 0.581794 0.584499 0.060187 3 2 -1 
5347 5 0.338007 0.570381 0.0465788 2 -6 -4 
5886 5 0.269002 0.623924 0.06967 1 -5 0 
6403 6 0.581182 0.630622 0.0842224 0 5 -6 
7208 5 0.0306974 0.668882 0.0694954 -3 -4 8 
7847 6 0.0802897 0.644236 0.0694418 0 -5 4 
7907 5 0.199133 0.691245 0.0637325 0 -3 -1 
6020 6 0.582337 0.678587 0.0699644 3 -2 2 
5070 5 0.607633 0.70242 0.0417987 -2 -1 1 
7815 5 0.984229 0.747243 0.0709137 0 4 -4 
5752 5 0.0163614 0.729114 0.0312984 8 -3 0 
5755 6 0.793519 0.775191 0.0345358 -4 0 4 
6735 6 0.207739 0.76561 0.0587033 -3 2 -2 
7081 6 0.33956 0.789502 0.0378761 0 -5 4 
8754 6 0.606688 0.795131 0.0836696 -1 3 2 
8136 5 0.921109 0.733355 0.0590956 0 -1 4 
5867 5 0.565912 0.786034 0.0594877 -2 0 -1 
8468 6 0.646954 0.883403 0.0611056 -3 -8 2 
5575 5 0.719401 0.866362 0.0758462 -1 -1 2 
7326 5 0.155264 0.943883 0.0460409 2 -4 1 
5821 5 0.342882 0.917367 0.0574377 0 -1 3 
5240 6 0.554186 0.912213 0.0722782 -5 -2 -2 
7710 6 0.940463 0.950305 0.0408341 2 2 2 
6954 6 0.479728 0.958212 0.100654 0 -4 -1 
8440 5 0.758156 0.933454 0.0641807 0 4 5 
6125 5 0.483035 0.984872 0.0666009 -2 -1 2 
6809 6 0.680101 0.957815 0.050151 -1 1 0 
8595 6 0.723162 0.0263696 0.0754472 -1 0 2 
6468 5 0.914902 -0.000290327 0.0514262 -5 -2 -2 
7933 6 0.384114 0.0324338 0.100615 -1 1 -1 
7163 6 0.777628 0.0210542 0.0717432 0 7 -1 
6343 5 0.21469 0.029093 0.0829005 -1 -2 2 
8576 5 0.464974 0.0578065 0.132695 -1 4 2 
8181 5 0.964104 0.0823526 0.0761857 -6 -5 -6 
5467 6 0.462628 0.0661644 0.0516469 4 4 0 
5313 5 0.91926 0.054536 0.0381885 -3 3 -3 
6179 6 0.957618 0.0760554 0.111368 0 4 0 
7568 5 0.0144916 0.15784 0.070529 3 -2 0 
8320 5 0.400182 0.148213 0.100624 -3 1 -1 
7628 5 0.79677 0.136637 0.0601293 -2 -1 3 
5932 6 0.00820601 0.143887 0.0970114 -6 0 1 
7935 6 0.599403 0.216361 0.0433567 -5 4 0 
7530 6 0.971854 0.189421 0.0828383 -1 4 1 
6540 5 0.394497 0.204621 0.127518 1 1 4 
6449 5 0.950481 0.180169 0.0947804 2 2 0 
7456 5 0.745188 0.223321 0.0923577 4 -1 7 
7493 6 0.934952 0.227573 0.0815621 -3 -2 -1 
7548 5 0.532195 0.227309 0.0977904 2 1 5 
6576 6 0.700078 0.248523 0.0650191 4 -4 -3 
5439 6 0.741762 0.248071 0.126829 0 0 0 
5177 5 0.84884 0.26102 0.0523386 0 -1 3 
5498 5 0.514144 0.239852 0.0959706 4 8 -3 
6838 5 0.547699 0.254454 0.0572742 4 -5 0 
7656 5 0.909776 0.306713 0.109965 0 -2 -2 
8017 6 0.323276 0.303753 0.0965878 4 4 -4 
5997 6 0.267893 0.259134 0.0669679 4 1 1 
8667 5 0.303247 0.317026 0.0599616 3 2 -2 
5751 5 0.405148 0.315023 0.106048 -1 1 -1 
8190 5 0.844384 0.342125 0.0932207 3 -3 1 
5617 5 0.167008 0.383017 0.0111694 -2 -5 -1 
5108 6 0.268211 0.393897 0.0920704 -2 1 -4 
6255 6 0.596571 0.364 0.0529379 2 -4 0 
6272 6 0.917246 0.360819 0.10658 -1 1 0 
5716 5 0.908095 0.432254 0.0939403 0 3 -2 
6672 6 0.112455 0.438868 0.100614 -1 2 -4 
7747 5 0.272077 0.421337 0.0864608 0 -2 -2 
8189 5 0.41719 0.405939 0.0419198 -6 0 0 
5556 5 0.584839 0.415442 0.105609 1 -2 2 
6107 5 0.847832 0.46251 0.0441043 -3 -3 -4 
6424 5 0.201002 0.490291 0.0945751 1 1 -1 
8734 5 0.352166 0.435399 0.0860334 3 2 5 
7350 6 0.32255 0.541068 0.0978952 0 1 2 
8885 5 0.149559 0.561713 0.0967928 1 2 3 
8053 6 0.965212 0.555772 0.108534 1 5 -1 
7064 5 0.603691 0.574079 0.0592353 5 -2 2 
5939 5 0.127632 0.625524 0.0614221 -3 1 3 
6641 6 0.867216 0.583309 0.0513351 1 -2 5 
6688 6 0.279773 0.63601 0.0935674 3 1 -3 
6428 5 0.404693 0.639821 0.0919824 0 2 1 
6149 6 0.770402 0.641627 0.0860625 0 0 2 
5384 6 0.536172 0.680132 0.112395 1 -1 -1 
8280 6 0.789891 0.657506 0.052048 1 -1 3 
6699 6 0.870159 0.708311 0.0652587 1 2 -1 
8282 5 0.377608 0.698932 0.0769299 0 5 -3 
7822 5 0.252724 0.763263 0.0639349 5 6 -1 
8606 5 0.71978 0.71933 0.0459167 -2 -4 0 
7072 5 0.918031 0.779083 0.0621654 -3 -5 3 
7413 5 0.304377 0.755948 0.0745161 0 3 -3 
5219 6 0.0710817 0.831958 0.0900963 1 -3 1 
6503 5 0.462243 0.864938 0.11533 8 2 2 
6089 5 0.603021 0.762195 0.0832132 1 -1 0 
5629 6 0.564901 0.874227 0.0820561 6 2 2 
5169 6 0.791068 0.82456 0.0930134 0 -4 2 
7848 6 0.0380287 0.854509 0.0661079 2 -3 -2 
5519 5 0.489299 0.874763 0.0449248 1 2 6 
8870 5 0.61772 0.893213 0.0884345 -4 1 0 
7962 6 0.709633 0.856919 0.0986725 -2 -2 -1 
8471 5 0.0546467 0.829928 0.0627008 3 1 3 
8410 6 0.543989 0.88943 0.0902066 -2 -3 1 
5069 5 0.653009 0.873397 0.0990745 2 4 -4 
7727 5 0.385575 0.891311 0.118276 0 4 0 
5896 6 0.758102 0.86906 0.0690299 -4 -2 0 
5340 6 0.00711429 0.904438 0.0559255 1 -4 -4 
5327 6 0.748102 0.943374 0.0930702 -2 -4 4 
8261 6 0.302586 0.98729 0.107686 -1 -2 2 
8531 5 0.896453 0.946658 0.0881704 0 -2 -1 
8962 5 0.934026 0.991863 0.0636682 5 -1 6 
7808 5 0.658849 0.0107514 0.103895 -1 -4 1 
5901 6 0.733972 0.0328905 0.0969033 -5 0 2 
6740 5 0.545289 0.962577 0.136075 -3 -1 1 
5280 6 0.836368 0.0743371 0.097346 -2 3 0 
7695 6 0.290097 0.0688723 0.109587 -1 3 -4 
6618 6 0.467709 0.0810687 0.0851962 6 5 -6 
5531 6 0.469253 0.0744344 0.110325 4 -2 7 
5468 5 0.244539 0.0821902 0.0877675 -2 -3 3 
8765 6 0.507341 0.139077 0.08515 2 2 -4 
6722 5 0.532846 0.0816112 0.0922576 0 2 5 
7645 5 0.835266 0.103783 0.0932032 2 -1 -3 
8483 6 0.265066 0.0920974 0.0897957 3 2 -2 
7487 6 0.171744 0.152495 0.139828 3 2 -1 
6304 5 0.940462 0.139634 0.0716911 -1 5 5 
6259 6 0.0347505 0.135341 0.139686 1 -1 -2 
6296 6 0.090308 0.161756 0.0905653 4 0 -1 
8124 5 0.0826816 0.171765 0.102845 2 -2 4 
8414 6 0.407062 0.178626 0.0979558 4 -4 2 
8714 6 0.422979 0.203265 0.0872727 -3 2 -6 
7922 6 0.899161 0.195334 0.119894 1 2 3 
6208 5 0.00230953 0.224221 0.095109 4 -2 3 
5124 6 0.562059 0.194225 0.127133 4 0 5 
8771 6 0.899438 0.235006 0.115322 0 -2 2 
8898 5 0.141352 0.214194 0.0966032 0 -1 1 
5817 6 0.412855 0.226182 0.0809435 1 1 0 
7242 6 0.680855 0.266512 0.0958971 1 -1 0 
7995 5 0.956422 0.205366 0.0698048 -1 0 3 
7787 5 0.00500852 0.238738 0.118324 -3 0 -5 
6246 6 0.441066 0.243463 0.0949454 -2 1 0 
5503 5 0.884745 0.284755 0.0965949 1 1 0 
5035 6 0.87798 0.260514 0.126168 1 0 3 
8811 5 0.177842 0.258844 0.0890361 -1 -1 -1 
5842 5 0.19484 0.232438 0.11227 1 -1 -2 
7261 6 0.41386 0.317994 0.0936149 -1 -3 -2 
8365 6 0.0427562 0.321243 0.0921583 -3 -4 0 
7366 6 0.147746 0.313887 0.0883685 0 3 0 
6640 6 0.730533 0.321828 0.0893461 0 -1 3 
8796 6 0.176995 0.353296 0.0958701 -5 0 4 
5911 5 0.396696 0.377875 0.106623 2 2 1 
7607 6 0.634859 0.382709 0.0984259 1 4 1 
7034 6 0.158213 0.404314 0.0738322 6 3 2 
8939 5 0.504003 0.386963 0.102372 0 -4 4 
7705 5 0.353008 0.424599 0.113023 -3 -2 0 
6696 6 0.72881 0.394939 0.0877329 -6 3 0 
8131 5 0.592297 0.446667 0.128078 -1 -1 2 
6291 6 0.72948 0.439586 0.132878 2 -2 -4 
7517 5 0.757039 0.419447 0.126725 2 3 3 
7700 6 0.728629 0.431749 0.0627428 -1 1 -2 
5357 6 0.679996 0.439816 0.0820127 0 0 -1 
5322 5 0.769863 0.503375 0.0738201 -3 -5 2 
5872 5 0.639053 0.575271 0.0971437 1 -2 0 
5102 5 0.632323 0.576714 0.0848961 1 4 -5 
7065 5 0.769752 0.584455 0.0927384 -3 2 0 
7938 5 0.803935 0.578639 0.111303 2 -3 0 
7917 5 0.881477 0.568343 0.0918676 2 2 -3 
8133 5 0.0731219 0.612338 0.12554 0 -1 -1 
6371 6 0.335207 0.549776 0.0953573 -3 3 2 
8933 5 0.123601 0.623798 0.118639 6 0 4 
8583 6 0.142363 0.633006 0.0968725 1 2 0 
6292 6 0.156144 0.639042 0.113606 2 -1 -2 
8527 6 0.39139 0.608772 0.118893 -3 -1 -3 
6545 5 0.44705 0.659151 0.0934036 4 2 0 
5701 6 0.552374 0.658207 0.111486 0 5 5 
5170 5 0.894316 0.64095 0.0692463 1 1 -1 
7903 6 0.435307 0.713187 0.0963182 -3 2 -3 
5373 6 0.943869 0.665852 0.120702 1 0 1 
7500 6 0.0448814 0.73201 0.103833 -3 -3 -1 
8743 5 0.329757 0.741314 0.119787 -3 1 1 
6254 6 0.690237 0.756265 0.091649 -1 3 0 
6390 5 0.243697 0.749842 0.101434 1 -6 2 
7013 5 0.30741 0.799049 0.0957126 -4 -5 1 
6973 5 0.355448 0.829451 0.0696634 -2 -2 -3 
7323 6 0.0707435 0.837676 0.11948 -2 -1 0 
6721 5 0.536141 0.829687 0.0795663 -3 1 -1 
8505 5 0.108067 0.839714 0.0933868 1 5 1 
6009 6 0.778815 0.861358 0.104256 0 -8 -2 
8180 5 0.144766 0.897313 0.106231 1 1 2 
8466 6 0.344129 0.873065 0.128172 5 2 -2 
8861 5 0.689109 0.865882 0.0841304 1 -1 -2 
8706 6 0.142565 0.859149 0.0584183 1 0 -1 
6140 6 0.17857 0.89714 0.11288 2 -1 -3 
8723 5 0.157976 0.907251 0.110334 6 -1 2 
8058 5 0.341336 0.953942 0.0823288 1 -2 5 
7603 5 0.911506 0.908756 0.102981 -4 1 6 
6956 5 0.871996 0.974391 0.0638615 6 1 6 
6758 5 0.180173 0.974138 0.07215 0 -1 -3 
8580 5 0.417491 -0.000975093 0.099017 1 0 -4 
5710 6 0.409234 0.0830848 0.0913371 -1 -2 0 
6135 5 0.599289 0.00829076 0.111078 1 -7 3 
8045 6 0.921098 0.0281925 0.143685 -3 1 2 
5746 5 0.417542 0.0525408 0.0907384 2 2 -3 
6480 5 0.0391573 0.0976039 0.117728 -1 0 -5 
7880 6 0.356854 0.0838785 0.133813 -3 0 -3 
8077 6 0.426018 0.0811997 0.135734 -1 -4 -1 
8066 5 0.83581 0.0966188 0.128122 0 7 3 
5705 5 0.958059 0.0943514 0.104822 -4 0 0 
6489 6 0.270164 0.115758 0.104718 2 2 -4 
8020 5 0.293261 0.146458 0.0965764 2 0 -1 
5610 5 0.504772 0.0991573 0.149132 0 -5 3 
7987 5 0.641875 0.1215 0.10169 -5 -3 0 
6665 6 0.965924 0.136116 0.16098 -2 2 -4 
6072 6 0.139179 0.150183 0.12078 8 -2 -3 
8547 6 0.453863 0.174722 0.103134 -10 0 -1 
8872 6 0.539389 0.181367 0.12157 3 0 2 
5626 6 0.948838 0.174651 0.142608 -1 -5 3 
7354 6 0.308676 0.210186 0.151482 5 -3 3 
5726 6 0.383836 0.160996 0.11187 2 -1 3 
7466 5 0.435431 0.206895 0.167578 -1 6 4 
5888 6 0.623591 0.138265 0.098403 -1 0 0 
8107 6 0.0129468 0.18715 0.125348 2 -1 -1 
5049 5 0.405804 0.209906 0.166319 0 1 1 
6256 6 0.22057 0.250027 0.113155 -2 1 4 
5540 6 0.453025 0.266987 0.148424 -4 1 -6 
7144 5 0.521479 0.215448 0.0995469 -2 -3 -3 
8388 6 0.885663 0.244123 0.14178 -4 0 -1 
6786 5 0.911276 0.226207 0.122667 0 2 0 
8076 6 -0.00616948 0.249514 0.0987118 -2 -2 4 
8290 6 0.322849 0.262386 0.117741 2 -5 2 
8070 6 0.649913 0.287674 0.106277 2 3 6 
8237 5 0.24865 0.310159 0.142113 3 2 2 
5972 5 0.497532 0.286787 0.105339 -1 0 1 
6225 6 0.573115 0.319942 0.126693 -1 -1 0 
7968 6 0.362984 0.315542 0.0872115 1 -5 2 
7875 5 0.725653 0.318887 0.0857976 -1 -2 -6 
8655 5 0.669194 0.380198 0.110738 -2 -4 1 
5709 6 0.00384226 0.371156 0.115006 -5 -2 0 
6332 5 0.213186 0.373707 0.103245 -1 -2 1 
8978 6 0.894865 0.419245 0.138794 0 0 4 
8579 5 0.118823 0.442686 0.104025 0 -4 1 
7048 6 0.636166 0.463941 0.141405 3 3 6 
5207 5 0.656912 0.435238 0.122552 -1 5 0 
5581 6 0.12195 0.460714 0.127486 -6 0 4 
7367 5 0.425644 0.457427 0.108572 0 1 -2 
6787 5 0.980172 0.501826 0.154657 -1 2 -4 
5251 6 0.66809 0.486519 0.12946 -3 0 6 
6622 5 0.659859 0.503819 0.120627 -4 -6 6 
7631 6 0.498875 0.520735 0.1358 1 1 1 
7901 5 0.749608 0.513664 0.0708573 2 -3 1 
7571 6 0.850383 0.576 0.135417 -3 2 3 
8404 5 0.980243 0.565657 0.124901 3 -1 3 
6214 5 0.517719 0.553905 0.121723 2 -3 1 
8150 5 0.634422 0.565728 0.125824 -1 1 -2 
8776 5 0.848715 0.485894 0.157327 3 -3 1 
7465 6 0.834403 0.553658 0.0880911 4 -5 1 
8827 5 0.114773 0.599486 0.146205 -2 0 1 
6670 6 0.318225 0.641196 0.0736533 -1 4 -1 
8798 6 0.612678 0.626009 0.100917 2 5 -3 
6748 5 0.55846 0.596848 0.130691 1 -2 -1 
8160 6 0.595374 0.611396 0.121232 7 -3 3 
8629 5 0.827543 0.641281 0.0934902 4 1 2 
7798 6 0.866769 0.64588 0.105188 2 -1 5 
7851 5 0.917919 0.593982 0.127001 3 0 -2 
8732 5 0.959285 0.646737 0.11143 -1 -3 -1 
6399 6 0.44966 0.696496 0.0914188 -1 -3 3 
7579 5 0.418118 0.675486 0.166079 -2 0 2 
7453 5 0.239483 0.688556 0.0859685 0 3 1 
6682 5 0.877107 0.688004 0.127839 -1 1 5 
7594 5 0.472378 0.713199 0.151218 4 -2 -1 
6354 5 0.795925 0.739384 0.135409 -3 -2 1 
8345 5 0.00878824 0.743583 0.155331 4 -5 5 
7474 6 0.11046 0.714967 0.110095 2 -2 -4 
6391 5 0.538117 0.722306 0.0912195 -4 -3 1 
6233 6 0.0910588 0.795528 0.09407 4 3 0 
5390 6 0.0787215 0.776674 0.128456 -2 -1 0 
5083 5 0.843723 0.797241 0.118094 0 -1 -1 
7204 6 0.631805 0.77319 0.126384 -2 0 -2 
5078 6 0.197021 0.839962 0.120423 -6 2 1 
7128 5 0.2649 0.81125 0.148045 -3 -2 4 
6034 6 0.603476 0.847023 0.14018 2 -5 -2 
7373 5 0.706985 0.843396 0.124044 0 3 -1 
8703 5 0.83593 0.852374 0.090334 2 -1 0 
6341 6 0.176833 0.876549 0.111265 -3 0 -3 
8631 6 0.986219 0.88071 0.135648 2 2 -3 
6616 5 0.0867415 0.902842 0.135802 0 3 3 
8312 6 0.739886 0.888816 0.144941 2 -1 3 
5350 6 0.892541 0.89643 0.143592 0 1 1 
8775 5 0.266363 0.894638 0.163386 -1 2 -2 
5018 6 0.329033 0.919108 0.0890771 -4 0 1 
8773 6 0.407921 0.931943 0.133053 0 -2 -1 
8479 5 0.594844 0.940272 0.12143 3 -4 -5 
8890 5 0.946062 0.927818 0.0813462 -5 1 2 
8807 6 0.605638 0.96954 0.122609 1 0 1 
5545 6 0.143165 0.00820459 0.0961102 4 5 2 
8499 6 0.990106 0.964619 0.138711 3 3 -2 
8339 6 0.557004 0.0149429 0.13408 -1 -4 -1 
8056 6 0.163996 0.0369899 0.155988 4 1 -3 
7806 5 0.980012 0.993502 0.123796 0 -3 4 
7990 5 0.207858 0.0970577 0.151884 -3 -2 -2 
5113 6 0.30305 0.0664379 0.140671 3 7 -2 
8008 5 0.536481 0.048462 0.144463 -3 -3 -3 
5913 5 0.817065 0.0436021 0.100608 2 -2 0 
5408 6 0.821621 0.0966658 0.150736 4 -1 2 
8311 6 0.553844 0.110427 0.169976 0 -4 -4 
6692 5 0.0493693 0.10017 0.174912 3 -4 3 
6308 5 0.938615 0.139839 0.147448 5 0 -1 
5051 6 0.628113 0.174254 0.169029 8 -6 -2 
5308 5 0.592844 0.146081 0.125984 1 -3 8 
5007 6 0.664568 0.170405 0.146318 1 4 4 
8908 5 0.159313 0.189505 0.178458 -3 -3 2 
7675 5 0.748069 0.205698 0.151941 6 -2 -2 
7122 6 0.229306 0.182887 0.128649 -2 4 3 
7266 6 0.39797 0.223938 0.0820778 4 1 2 
5222 6 0.595842 0.215419 0.165687 2 -3 -1 
6276 5 0.916449 0.157069 0.0989282 -1 -3 -1 
7689 5 0.0155007 0.249483 0.177515 1 -3 -3 
5995 5 0.232533 0.206802 0.178244 -3 2 3 
6077 6 0.907783 0.258187 0.126951 0 -3 5 
6231 5 0.639616 0.236681 0.18281 -2 -3 -2 
7813 5 0.0286971 0.315508 0.137485 5 0 3 
7051 5 0.209995 0.319256 0.114628 5 2 2 
5433 5 0.928674 0.287228 0.130198 1 3 4 
5274 6 0.711603 0.291653 0.142586 0 -2 -4 
6242 6 0.597482 0.297552 0.173871 -2 -2 0 
6431 6 0.705431 0.341616 0.14668 1 2 4 
7582 6 0.939039 0.34266 0.123453 -1 -4 6 
7308 5 0.30875 0.369839 0.143125 6 -2 -3 
6531 5 0.650808 0.346249 0.107945 -3 5 -2 
5030 6 0.0110774 0.402924 0.154199 4 -4 6 
5971 6 0.442452 0.372833 0.172338 -6 -3 7 
8457 6 0.0864992 0.423508 0.145077 2 -3 -3 
7349 6 0.122774 0.408648 0.154769 6 -6 -8 
5437 6 0.234686 0.411856 0.180107 -1 -4 -2 
6657 5 0.419426 0.405147 0.138199 -4 7 -2 
7241 5 0.561092 0.450854 0.125204 1 0 -2 
5636 5 0.549869 0.450842 0.187114 0 2 2 
5297 6 0.6003 0.467131 0.130079 -3 0 1 
5982 6 0.329795 0.477694 0.138958 -4 1 4 
8143 5 0.241312 0.518383 0.1292 -3 0 -1 
6910 6 0.542967 0.477392 0.141667 -3 -5 0 
5786 6 0.792307 0.450657 0.12319 1 1 -6 
8768 6 0.541994 0.517024 0.156902 -2 -1 7 
8819 6 0.438788 0.51306 0.148073 1 0 -2 
5959 6 0.567246 0.552945 0.125216 2 -2 -1 
7279 6 0.323564 0.553474 0.127772 -4 7 0 
8313 6 0.45488 0.60439 0.123208 3 -1 6 
8503 6 0.422299 0.591358 0.149559 -3 1 -5 
6554 5 0.721916 0.544162 0.160221 2 1 -1 
5324 5 0.242761 0.650231 0.151045 -4 -1 -3 
7758 5 0.635572 0.614833 0.144797 -2 1 7 
8275 6 0.778436 0.583027 0.141064 -5 -3 2 
7898 6 0.836766 0.57054 0.10334 -2 -1 6 
6359 5 0.815098 0.603292 0.14336 6 1 1 
8957 5 0.490438 0.619803 0.16936 -1 -2 4 
7441 6 0.710285 0.673212 0.168472 -4 -1 -8 
7578 5 0.763036 0.636706 0.164707 3 -2 -1 
8781 6 0.978188 0.677354 0.159216 2 0 0 
6964 5 0.151947 0.683469 0.140787 -4 -1 0 
5981 6 0.108951 0.711421 0.172409 2 -1 -1 
7228 6 0.519018 0.732013 0.151583 -1 -4 3 
7590 6 0.799681 0.727253 0.125792 -2 -2 0 
6822 5 0.962604 0.705423 0.119075 3 0 -2 
6160 5 0.2198 0.754522 0.153475 -3 0 -2 
8158 6 0.419979 0.725375 0.162421 -1 3 3 
5402 6 0.489838 0.770619 0.124552 0 -1 -1 
8936 6 0.384217 0.729642 0.132796 4 1 -1 
5850 5 0.76845 0.785312 0.135624 1 0 2 
6828 6 0.532388 0.739618 0.129547 -2 0 -1 
6638 5 0.439243 0.825091 0.181664 4 -1 0 
7153 5 0.63292 0.834657 0.139965 2 4 4 
5451 6 0.109115 0.863435 0.120277 -1 4 5 
8693 6 0.547619 0.867523 0.186723 -2 1 5 
8733 6 0.21178 0.889045 0.155937 -2 -2 -2 
8958 6 0.249094 0.885085 0.170944 0 0 0 
8469 6 0.549557 0.880776 0.161828 -1 -3 -2 
8987 6 0.461823 0.949407 0.181018 3 -2 -5 
8619 6 0.84061 0.979758 0.159779 -1 -1 2 
5849 5 0.135471 0.997272 0.155049 -6 0 -1 
7385 5 0.497271 0.976489 0.13511 1 -3 6 
8381 6 0.579613 -0.00296433 0.111354 4 -3 -2 
8109 6 0.619286 0.969679 0.151344 0 -1 3 
7251 5 0.883861 0.965245 0.186213 -3 1 -2 
7553 5 0.113418 0.985072 0.18807 1 3 -5 
8147 5 0.219178 0.0109894 0.220448 4 -2 0 
5422 6 0.198143 0.0250656 0.163499 -2 -4 1 
6579 6 0.501666 0.981258 0.156981 1 -2 -4 
6037 6 0.797341 0.988361 0.188563 3 -6 2 
7905 6 0.0144725 0.033286 0.142173 -4 6 1 
8764 5 0.165742 0.0580857 0.163711 -2 -2 -6 
7067 5 0.296726 0.110823 0.171201 -2 -1 2 
5103 5 0.296567 0.0436959 0.142466 3 -4 2 
5381 5 0.589557 0.0177327 0.184616 2 0 -1 
5494 5 0.994669 0.0951298 0.180946 1 3 2 
5165 6 0.104835 0.105791 0.193965 3 1 2 
7797 5 0.26871 0.082233 0.164947 5 1 4 
5621 6 0.463443 0.117762 0.183898 1 2 2 
5767 6 0.989942 0.0881453 0.136226 -3 3 3 
5738 5 0.337109 0.108875 0.17105 -2 2 0 
6922 6 0.116571 0.221263 0.147712 -1 -1 0 
7429 6 0.783208 0.205546 0.139347 -3 0 3 
8672 6 0.59574 0.183128 0.153193 0 3 2 
5277 6 0.678856 0.218323 0.132525 -5 -2 0 
5771 5 0.00865178 0.252776 0.184322 -1 3 4 
7324 5 0.0509424 0.240566 0.164447 -3 6 -3 
8154 6 0.397643 0.257665 0.144289 4 -3 -1 
6493 5 0.0867722 0.289145 0.165564 0 0 3 
7146 5 0.13191 0.300398 0.190568 0 -1 -1 
7166 5 0.768583 0.257153 0.176887 3 0 4 
7627 5 0.928488 0.303775 0.139682 2 -1 -4 
6487 6 0.106105 0.337923 0.17805 -2 1 4 
8354 6 0.148121 0.347754 0.200469 3 -1 3 
6726 6 0.69906 0.329137 0.173775 8 -1 2 
7480 6 0.705325 0.285578 0.184787 -2 -1 -1 
6134 6 0.221712 0.279422 0.180166 -1 0 3 
5250 6 0.894504 0.36958 0.134894 -2 -5 3 
5031 6 0.976984 0.337577 0.13573 -1 -2 1 
6577 5 0.327793 0.35565 0.185266 -3 -1 0 
5182 6 0.475054 0.349297 0.153586 0 -3 1 
6048 6 0.784737 0.320233 0.176025 5 -3 -4 
5739 5 0.211323 0.346199 0.161389 -1 -2 3 
8847 6 0.359669 0.388351 0.167231 1 0 -3 
8090 5 0.961624 0.348562 0.167516 -6 3 -1 
5577 6 0.601698 0.399421 0.152491 2 -3 2 
6681 5 0.60315 0.42351 0.155577 -1 -3 1 
5193 5 0.393467 0.452791 0.18509 -1 -1 1 
8211 6 0.757158 0.43501 0.162058 1 -3 -4 
8721 5 0.308353 0.468869 0.203139 4 1 0 
5863 5 0.533162 0.468733 0.182951 -1 7 -3 
5616 6 0.128844 0.482188 0.204667 -1 4 -5 
7288 6 0.380169 0.48072 0.156506 -2 -1 0 
7032 5 0.609376 0.52592 0.201677 2 3 0 
8993 5 0.0339148 0.491529 0.165954 2 -5 -1 
5254 6 0.187814 0.494351 0.135652 1 -3 -2 
5155 6 0.459097 0.514467 0.172386 -2 0 1 
5145 5 0.723833 0.546698 0.171214 6 0 7 
8573 5 0.303283 0.534763 0.159014 1 -6 3 
6066 5 0.608701 0.519501 0.165762 -7 2 0 
6075 6 0.742618 0.544739 0.180166 0 3 0 
6150 5 0.809298 0.55001 0.156725 0 4 -6 
8850 5 0.695143 0.536887 0.160129 2 0 -4 
5672 6 0.961995 0.5692 0.161165 -2 2 2 
8646 5 0.451837 0.606281 0.17206 -1 0 -1 
6857 6 0.465884 0.629617 0.165271 -1 -2 -3 
6982 6 0.939163 0.670009 0.2054 2 0 0 
7014 6 0.944382 0.623382 0.199812 -2 -1 3 
8991 6 0.559136 0.721768 0.122174 0 -1 -2 
7805 6 0.167925 0.737404 0.156761 -3 1 3 
5918 5 0.419751 0.723697 0.204615 -5 -1 3 
5980 6 0.983491 0.712471 0.141632 1 0 -2 
6087 5 0.124741 0.764982 0.167492 1 -5 4 
5993 5 0.526092 0.758181 0.168909 0 0 1 
8284 6 0.867382 0.7349 0.173384 -2 -3 3 
8030 6 0.898323 0.734538 0.180775 2 2 3 
5104 5 0.34001 0.755554 0.20629 -1 2 1 
5655 5 0.939043 0.767288 0.201921 0 0 2 
7733 6 0.298686 0.775866 0.180568 3 -3 -2 
7753 5 0.15879 0.797079 0.138085 2 2 -4 
8306 6 0.992298 0.829821 0.186036 1 -2 -1 
8971 6 0.289724 0.887116 0.178292 -3 -2 0 
6185 6 0.309874 0.892003 0.144329 3 5 4 