ITEM: TIMESTEP
20000000
ITEM: NUMBER OF ATOMS
9000
ITEM: BOX BOUNDS pp pp pp
-75 75
-75 75
-75 75
ITEM: ATOMS id type xs ys zs ix iy iz 
5153 5 0.494675 0.0248814 0.0314187 -1 4 5 
6105 6 0.477571 0.985811 0.0123379 -3 -2 0 
7851 6 0.743245 0.0408376 0.998038 0 1 5 
5931 6 0.90608 0.0722091 0.980063 1 -3 -1 
7678 5 0.354925 0.027444 0.0137546 1 -5 2 
5868 5 0.718929 0.0932357 0.966924 0 -3 1 
7495 6 0.857148 0.0861513 0.0157229 0 1 7 
6354 5 0.256677 0.091043 0.98815 1 -1 -7 
5364 5 0.946892 0.147844 0.0111716 3 0 2 
7197 5 0.47712 0.205629 0.999025 1 3 1 
8839 5 0.784791 0.182195 0.00707306 -9 0 1 
8380 5 0.963968 0.192071 0.0118846 -4 -2 4 
5971 6 0.103341 0.254328 0.0374419 5 1 4 
7292 5 0.785816 0.210171 0.992474 0 -4 3 
7857 5 0.348132 0.25763 0.993832 0 4 -6 
6673 5 0.1034 0.321964 0.973111 3 -3 0 
7304 6 0.465929 0.356599 0.977418 -2 -2 -2 
7107 6 0.67418 0.331758 0.0112495 2 -7 0 
7219 5 0.859656 0.318248 0.986976 0 1 1 
6836 5 0.0862653 0.325836 0.989204 6 -1 4 
6141 5 0.286408 0.364393 0.998307 0 5 0 
7997 5 0.980167 0.348566 0.00614688 3 3 -1 
8356 5 0.135669 0.361178 0.0121281 -3 2 -2 
8784 6 0.362194 0.378008 0.988179 0 5 -1 
5032 5 0.91687 0.377075 0.0147413 3 -4 1 
8049 5 0.323511 0.406929 0.00327927 2 5 1 
5158 6 0.292272 0.391376 0.0258724 2 0 -2 
7238 5 0.657298 0.393035 -0.00155433 -5 -2 -1 
8255 6 0.203071 0.437641 0.97693 -2 -1 -1 
5856 5 0.262419 0.409495 0.0155161 5 2 5 
8121 6 0.693592 0.417453 0.00927765 1 0 -3 
6410 6 0.229738 0.442604 0.0385641 1 -1 -3 
5042 5 0.583419 0.427022 0.0389661 1 2 -1 
6943 6 0.408505 0.426262 0.0169748 -1 0 -2 
7049 6 0.519305 0.43802 0.0401094 2 -1 1 
7985 5 0.576634 0.47554 0.0171949 2 -2 4 
8188 5 0.27599 0.508738 0.96205 3 2 -1 
6529 6 0.840289 0.470658 0.958824 0 2 -4 
8775 6 0.966093 0.493269 0.0462157 -4 1 2 
6115 5 0.966631 0.537563 0.0461419 2 -3 0 
8690 5 0.249783 0.547692 0.0342308 3 -1 2 
7378 6 0.559782 0.522186 0.0253402 -1 1 -4 
8814 5 0.862901 0.496973 0.0184589 -3 5 4 
8881 6 0.246372 0.487218 0.992512 1 1 -4 
8299 6 0.632771 0.523063 0.00229377 3 4 4 
7516 6 0.730754 0.5451 0.00775548 0 4 -5 
8291 5 0.190547 0.560406 0.0464694 3 -3 -5 
8679 6 0.62152 0.564529 0.0128325 -3 3 -5 
7490 6 0.843755 0.542552 0.0110869 4 2 5 
7297 5 0.038889 0.552617 0.00414151 0 3 2 
5982 5 0.174534 0.595615 0.994614 1 -3 -2 
7955 6 0.282199 0.521675 0.0270785 5 4 -1 
6095 6 0.239512 0.620829 0.991333 4 0 -5 
7375 6 0.23822 0.577736 0.0316427 -3 0 0 
6386 6 0.642294 0.586186 0.0383561 0 0 1 
5615 5 0.680226 0.625869 0.00199519 2 1 1 
7556 6 0.841158 0.635435 0.00373802 2 1 2 
5448 6 0.950455 0.581751 0.0203831 4 0 3 
8543 5 0.804283 0.622033 0.0107423 -3 1 -6 
8214 6 0.768545 0.651584 0.0194601 -6 5 -2 
7377 5 0.21117 0.702399 0.0488127 -1 -1 0 
6341 5 0.233849 0.725118 0.975858 -3 -6 -7 
6672 6 0.584824 0.691522 0.982426 1 4 -2 
5517 6 0.514022 0.716634 0.0432819 -3 -1 -3 
6368 6 0.654826 0.739701 0.96501 -3 3 2 
6187 5 0.443227 0.743949 0.984979 0 -4 -1 
8792 6 0.83579 0.779279 0.991529 1 6 -4 
7531 6 0.0514638 0.78282 0.990363 6 -2 0 
7442 5 0.36359 0.825902 0.987112 0 -4 -4 
8122 5 0.0608692 0.842055 0.0731984 2 2 1 
5421 5 0.193001 0.87857 0.995032 -1 1 -2 
8021 5 0.606725 0.869799 0.0493473 -3 9 -1 
5642 6 0.587275 0.884288 0.0176156 3 -1 0 
6598 5 0.961065 0.917131 0.00306532 2 -5 -5 
5403 6 0.329605 0.934257 0.0247297 -3 -8 3 
6316 6 0.867196 0.925602 0.0138486 3 -2 0 
5962 5 0.0861992 0.918669 0.0184174 4 -1 1 
5069 5 0.249507 0.943165 0.00741902 4 0 -7 
6206 6 0.387753 0.993237 0.990003 -1 -4 -2 
5149 6 0.0781868 0.0323413 0.0408314 4 8 -1 
6821 5 0.954592 0.0267024 0.0601577 -6 5 0 
7103 6 0.535736 0.0549262 0.0362494 -1 -1 1 
8940 5 0.610082 0.0908329 0.991197 4 3 6 
7874 6 0.537267 0.0590364 0.0169485 3 2 -3 
6175 6 0.544228 0.116314 0.01533 1 1 -3 
7915 5 0.0240893 0.123572 0.0795907 4 1 3 
8065 5 0.334268 0.110075 0.991411 -3 2 -4 
6698 6 0.563172 0.105882 0.0805691 -4 3 2 
5138 5 0.882759 0.0900353 0.0290157 -1 0 0 
6128 6 0.00315085 0.162207 0.0582832 -1 3 3 
5845 6 0.120186 0.114537 0.0257804 0 2 -1 
6473 5 0.189523 0.114299 0.0418368 1 -1 0 
8510 5 0.223649 0.143474 0.0549281 4 -1 -3 
7411 6 0.476493 0.1438 0.05372 0 -4 -8 
8579 6 0.577582 0.193827 0.0168925 -2 3 5 
5389 6 0.71578 0.153348 0.0293445 -2 2 3 
5156 6 0.869964 0.182023 0.0348218 5 -4 -4 
7624 5 0.0751925 0.199053 0.0491874 8 2 0 
5923 6 0.884215 0.171315 0.00173657 0 1 -8 
6312 6 0.0421118 0.232797 0.0365825 3 -2 1 
6088 5 0.896399 0.252484 0.00889765 -2 -1 1 
6674 6 0.189549 0.24713 0.0529911 -1 -1 3 
7702 5 0.302424 0.243829 0.0431056 3 -3 -1 
5023 6 0.164601 0.288483 0.0531311 2 4 -2 
8993 6 0.960109 0.297741 0.0397676 2 -6 -1 
8246 5 0.98125 0.311547 0.0344032 -2 2 1 
5622 5 0.219143 0.35806 0.0116297 7 1 0 
5722 6 0.279811 0.325678 0.000584744 1 3 -2 
7147 6 0.412042 0.396247 0.0233102 -2 0 3 
6121 5 0.83015 0.353608 0.00917513 3 -4 1 
6987 6 0.953168 0.379231 0.0449386 -2 0 4 
6905 5 0.426297 0.373768 0.0303129 -3 2 8 
6937 5 0.660567 0.388413 0.0200599 1 1 -4 
5621 6 0.433259 0.390711 0.026635 2 3 4 
8058 6 0.681432 0.447182 0.0165091 -2 -7 2 
7108 5 0.654422 0.406277 0.0550963 0 7 -2 
8624 6 0.111234 0.446497 0.0219749 1 0 10 
8118 5 0.128367 0.455804 0.0551379 2 3 -2 
7088 6 0.00997435 0.519215 0.0138032 -2 -2 -3 
8054 6 0.137532 0.520152 0.0319731 -6 -2 3 
6003 6 0.182577 0.528904 0.0375848 -3 0 -2 
7910 6 0.998985 0.529321 0.0716236 -2 -3 0 
8046 6 0.467116 0.544639 0.020464 -3 1 -3 
5246 6 0.0102141 0.548979 0.0234531 -3 5 -1 
5725 5 0.653057 0.573029 0.0192634 -6 -4 6 
8718 5 0.30258 0.602969 0.0436093 -3 2 1 
6655 5 0.644812 0.590103 0.0304772 1 -2 -4 
7052 6 0.801968 0.601235 0.053304 -1 1 -1 
5834 5 0.015628 0.574279 0.0194159 1 -1 -1 
5895 6 0.00840637 0.663877 0.0192613 0 0 0 
8230 6 0.760775 0.583419 0.0502473 3 5 -6 
5120 6 0.115324 0.617684 0.036883 3 6 3 
6296 6 0.278603 0.646066 0.0330707 -2 0 -2 
6677 6 0.692238 0.633449 0.0560606 2 -4 -2 
5097 6 0.132959 0.628544 0.0346238 0 2 5 
5066 6 0.780385 0.653531 0.0226086 0 -4 -2 
5332 5 0.549232 0.659292 0.0265305 0 -3 -1 
6520 6 0.652348 0.662956 0.0305996 -1 -1 2 
7212 5 0.983734 0.661976 0.046519 -1 1 0 
8921 6 0.497139 0.697785 0.0465253 -1 0 -1 
8546 5 0.672086 0.724963 0.0173051 -1 -1 -2 
7626 5 0.930433 0.70828 0.995641 4 2 3 
6576 6 0.20716 0.750019 0.995827 2 -1 3 
7468 6 0.30427 0.743326 0.0544236 -4 3 -2 
5783 6 0.715676 0.762998 0.00823284 1 3 -1 
6584 5 0.479152 0.761986 0.0417988 0 -2 3 
7390 5 0.737896 0.784471 0.0394625 -2 0 -6 
6835 6 0.633496 0.77206 0.0430018 -1 4 -4 
6053 6 0.691613 0.796657 0.00321306 3 1 4 
7840 6 0.0191793 0.810866 0.0345049 2 5 -1 
8877 6 0.151435 0.814199 0.0395843 1 -4 2 
7946 5 0.217037 0.79582 0.0297587 2 -4 2 
5888 5 0.97903 0.773089 0.0224073 -2 5 3 
5998 5 0.477644 0.866586 0.0121839 0 -9 -4 
7665 6 0.822116 0.86036 0.0644862 2 2 -2 
7513 6 0.207239 0.849369 0.00560065 1 -3 -1 
8487 6 0.323533 0.891912 0.00977469 0 -2 1 
7032 5 0.337665 0.847457 0.0522897 1 2 0 
7119 5 0.811894 0.943285 0.0459492 3 -3 -7 
6703 6 0.858521 0.898389 0.00610602 -1 -5 3 
6074 5 0.888632 0.892043 0.0402405 -5 -2 1 
8611 6 0.315769 0.00353786 0.0518556 0 1 0 
8301 6 0.415716 0.968583 0.0412088 -5 -4 -1 
5711 6 0.711117 0.970646 -0.000956276 2 -1 3 
8852 5 0.887002 0.976197 0.0419463 -5 0 -2 
8633 5 0.14587 0.994192 0.982187 -1 4 -1 
7149 6 0.383859 0.973199 0.0398801 -2 -4 1 
6170 6 0.812726 0.996565 0.0317124 -1 -2 -3 
5015 5 0.600475 0.026045 0.0891852 1 -2 0 
6460 5 0.696135 0.0565326 0.0323836 -2 0 -2 
7098 5 0.0161456 0.0257687 0.103016 1 -1 -2 
8922 6 0.659786 0.115613 0.058833 -1 1 -4 
8985 5 0.797558 0.0881703 0.0635442 -2 0 -2 
6645 6 0.0118997 0.0341254 0.0841262 1 3 -1 
6216 5 0.197194 0.080639 0.0698607 3 3 5 
7046 6 0.926244 0.0558841 0.0153399 0 0 5 
7731 5 0.125978 0.0870151 0.037843 1 -1 -5 
8860 6 0.575642 0.114902 0.0624884 -1 5 2 
6087 6 0.581331 0.145162 0.091575 0 -5 5 
6151 5 0.420878 0.161374 0.0758474 -1 -3 -2 
5757 5 0.472124 0.135785 0.0713616 3 2 0 
8184 6 0.84514 0.0988249 0.0560572 -2 -1 -3 
7520 6 0.0488144 0.156182 0.0630065 4 -3 -1 
5304 6 0.980397 0.218514 0.0619291 5 -2 4 
8089 5 0.948839 0.196934 0.0188192 -3 2 0 
8016 6 0.95901 0.237369 0.0436622 3 0 0 
7277 5 0.724002 0.201587 0.0545342 -1 -2 -1 
5694 5 0.276912 0.204501 0.0641121 -2 -5 3 
8602 6 0.472626 0.221089 0.0719298 -2 3 1 
7260 5 0.537644 0.257538 0.0803078 -2 3 0 
6721 6 0.747183 0.281775 0.0876763 4 -2 2 
5224 6 0.530483 0.281856 0.0717629 2 8 -4 
8400 6 0.969603 0.305394 0.0694691 6 -3 -5 
7243 5 0.422458 0.309428 0.0443799 -1 2 1 
8079 6 0.779137 0.326669 0.104545 -6 0 -3 
5133 6 0.266869 0.330033 0.0713933 0 5 0 
7751 6 0.442302 0.323813 0.0555673 0 -2 5 
5619 5 0.645524 0.303211 0.045134 3 -4 3 
5373 6 0.207646 0.357127 0.0501708 -1 1 -2 
6302 5 0.43873 0.387633 0.0725449 3 -2 7 
8488 6 0.15528 0.402335 0.0153553 -2 0 5 
7000 6 0.395351 0.401832 0.0440514 -6 2 0 
7271 6 0.440062 0.391335 0.0527917 -1 -2 -5 
7376 6 0.463877 0.397232 0.0621133 5 3 3 
6283 6 0.535784 0.435222 0.0317684 1 2 2 
7824 6 0.440422 0.449805 0.0292999 8 0 1 
6443 6 0.831696 0.444341 0.0868932 1 2 -1 
5593 5 0.184318 0.508667 0.0558606 2 -2 -1 
7565 5 0.877345 0.476249 0.0680183 -1 2 -3 
8635 6 0.0307344 0.535298 0.0665639 3 1 3 
8209 5 0.18216 0.527104 0.0465959 -1 -5 -4 
7674 6 0.509253 0.521756 0.103191 -1 -6 -4 
6209 6 0.919772 0.514562 0.0481679 1 4 5 
5399 6 0.666772 0.532587 0.0436781 1 2 2 
6766 5 0.809104 0.601842 0.0363939 0 2 1 
7330 5 0.264259 0.566236 0.0792617 1 -2 0 
8017 6 0.495897 0.576974 0.0449999 2 0 -4 
5353 6 0.93463 0.620501 0.0461144 -2 -2 -3 
8337 6 0.302495 0.632685 0.0472804 5 -2 1 
8572 6 0.620502 0.677876 0.064964 -1 -1 0 
8965 6 0.119444 0.679501 0.0555838 2 -2 0 
5956 6 0.48892 0.652655 0.0689318 1 -6 1 
5626 6 0.507423 0.718976 0.0374763 -1 1 -2 
7276 6 0.976564 0.696007 0.0530323 -2 1 -1 
7709 6 0.975409 0.717034 0.0896723 -2 5 2 
6196 5 0.287013 0.704823 0.0605496 0 -1 3 
6165 5 0.500907 0.730175 0.067235 8 -6 1 
8937 5 0.967783 0.742036 0.0607759 2 -1 0 
5577 5 0.885829 0.839864 0.0370986 0 -3 1 
8702 6 0.282269 0.826156 0.0609574 0 -1 -1 
7456 6 0.306762 0.796076 0.0552378 0 -1 6 
6045 5 0.394741 0.809511 0.0615659 2 1 -1 
8621 6 0.980962 0.860266 0.0969374 -1 4 -1 
6800 6 0.984477 0.86671 0.0326871 -3 3 -1 
8704 5 0.255155 0.881812 0.0511266 3 -3 -3 
7961 6 0.823664 0.882109 0.0137685 5 1 3 
7343 5 0.874707 0.883861 0.0717976 3 1 -4 
5628 6 0.0892555 0.917948 0.0509246 3 -4 3 
7091 5 0.123058 0.891476 0.0595459 0 -2 3 
7482 6 0.508682 0.879432 0.0905196 -2 4 -3 
5763 5 0.678067 0.907446 0.0253143 3 5 -1 
8754 5 0.970604 0.935172 0.0343163 -6 -1 0 
6639 6 0.271846 0.950421 0.0789256 4 -3 3 
6817 5 0.394856 0.991237 0.0359189 1 0 -1 
8048 5 0.07758 0.997095 0.0375605 1 -1 -3 
8310 6 0.57302 0.00197472 0.0922929 -1 6 0 
7200 6 0.940814 0.015185 0.0737376 7 -2 -1 
5441 5 0.248582 0.015523 0.0605803 -1 -2 -3 
8595 6 0.127444 0.0639101 0.0834426 1 5 0 
5582 5 0.470524 0.0848211 0.146617 0 4 -2 
5359 5 0.663771 0.038455 0.0832557 2 7 0 
7793 6 0.812361 0.0648814 0.116822 0 -3 2 
7011 6 0.00897073 0.0711173 0.105123 1 2 1 
7613 5 0.290501 0.0998532 0.0642246 -3 -2 -2 
8776 6 0.7107 0.0766271 0.0958498 2 0 -1 
7485 6 0.202144 0.0844199 0.0859905 -5 0 5 
8394 5 0.205148 0.117329 0.0557882 -3 -2 -1 
6298 5 0.48471 0.094017 0.096666 8 -2 4 
6945 5 0.604516 0.124386 0.0937656 1 0 3 
6793 5 0.936615 0.100716 0.0753601 4 2 4 
5527 5 0.200293 0.162879 0.079687 -1 2 1 
6271 6 0.15083 0.165548 0.0879471 1 -3 4 
7642 5 0.376754 0.202831 0.064892 -3 5 3 
5342 6 0.478298 0.150197 0.0420031 4 7 -3 
8393 5 0.765732 0.136703 0.0681235 -4 -1 -1 
7514 5 0.346517 0.173726 0.0687352 2 3 -4 
8541 5 0.284294 0.202447 0.0745257 5 3 1 
8416 6 0.912493 0.189968 0.0741044 -3 4 1 
6908 6 0.0893255 0.275192 0.0935977 1 2 1 
6881 6 0.106124 0.220303 0.103056 -1 3 1 
6424 5 0.210334 0.237524 0.0660045 0 4 5 
6807 6 0.612219 0.27655 0.0782933 2 7 -4 
5601 5 0.123653 0.308583 0.0660262 0 0 1 
7875 5 0.372563 0.349135 0.087597 0 -1 0 
6284 6 0.571311 0.282131 0.0727475 1 1 1 
5823 6 0.651455 0.286396 0.0950828 -4 3 3 
7387 5 0.710717 0.329663 0.0788102 -3 -3 1 
7502 5 0.323009 0.33469 0.0406414 4 4 -3 
7542 6 0.71575 0.312145 0.0611644 -2 0 -2 
7762 6 0.181566 0.334742 0.0757112 4 3 0 
7569 6 0.300135 0.374456 0.0788736 -4 3 2 
5300 5 0.56473 0.382211 0.0591354 3 2 1 
5010 6 0.897774 0.365872 0.0679211 -1 -3 3 
6437 6 0.12448 0.398722 0.0836249 -1 4 5 
8585 6 0.594186 0.410902 0.0658229 1 0 -3 
5666 6 0.359075 0.396743 0.081101 -2 -3 -2 
8854 6 0.050448 0.431431 0.0493396 4 0 -4 
8772 5 0.503389 0.407395 0.0946562 -2 1 5 
7637 5 0.959622 0.464486 0.0913225 -3 -4 1 
6499 5 0.142941 0.50138 0.0657502 -4 0 4 
6143 5 0.270809 0.515231 0.0610728 2 -3 5 
5676 6 0.648598 0.459793 0.0668581 2 5 5 
8695 5 0.281644 0.459814 0.0648554 2 3 4 
6900 5 0.69819 0.521138 0.0686501 -6 4 5 
8899 5 0.290269 0.552375 0.0806819 -2 2 -1 
8383 5 0.586522 0.552543 0.0824163 -4 -1 1 
5450 5 0.650807 0.536142 0.0913164 2 -2 -2 
5541 6 0.83408 0.56033 0.0914053 -2 -2 -2 
7528 6 0.390632 0.590299 0.0970221 2 0 0 
7881 5 0.830048 0.596988 0.0735816 -6 -2 -4 
5027 6 0.893149 0.594541 0.0795743 3 0 2 
8638 5 0.254228 0.629408 0.0365779 -1 2 1 
7454 5 0.345085 0.716664 0.097529 1 5 2 
6714 6 0.378436 0.716889 0.0571547 1 2 0 
8557 5 0.17371 0.694813 0.113261 1 5 5 
5698 5 0.919137 0.724059 0.0969079 -3 4 -2 
5256 5 0.426105 0.763431 0.086809 0 3 0 
6409 5 0.412932 0.778559 0.0920875 0 -1 4 
6784 6 0.762255 0.793887 0.0814211 2 -2 4 
8196 5 0.26629 0.820048 0.0385986 -2 0 0 
8467 6 0.336196 0.822554 0.100856 0 -5 -1 
8443 6 0.628759 0.824958 0.0859405 0 1 2 
7176 6 0.169319 0.821385 0.0667076 -5 -1 -1 
8804 6 0.466457 0.876391 0.0817461 -4 1 2 
8825 5 0.619567 0.838343 0.0906984 -6 -2 1 
6435 5 0.580877 0.848503 0.0850539 -6 -1 9 
7795 5 0.632882 0.851611 0.0621503 -4 -1 -7 
5877 6 0.498312 0.85773 0.0814052 5 -4 0 
5179 6 0.00245947 0.911869 0.0883091 1 -1 -1 
6001 6 0.738144 0.893258 0.084376 -2 3 3 
5037 5 0.55649 0.904199 0.0602253 0 -4 0 
6373 6 0.864228 0.924518 0.0961703 0 -5 -4 
8068 5 0.509032 0.955514 0.089012 2 -2 -1 
6623 6 0.956738 0.960357 0.0780907 -2 -7 -1 
5367 5 0.0176482 0.956183 0.073902 2 1 0 
5335 6 0.121008 0.951779 0.0665752 0 1 -5 
5006 5 0.467258 0.997899 0.0671307 -1 -1 4 
6600 5 0.116471 0.979313 0.0535106 -4 -1 0 
7349 5 0.294556 0.997744 0.0827935 2 3 3 
5076 5 0.732903 0.02799 0.139724 -2 -2 1 
8003 6 0.935614 0.03544 0.114527 1 2 6 
6842 6 0.292066 0.0383982 0.0957028 2 0 -2 
7497 6 0.846573 0.0011555 0.0613414 4 0 2 
8773 6 0.253899 0.0546468 0.0850599 2 -1 3 
7122 5 0.516174 0.0303626 0.136931 -2 -1 -2 
8040 6 0.763626 0.0908563 0.123054 -1 1 1 
7617 6 0.962542 0.0717706 0.100348 -4 5 3 
5709 6 0.652391 0.0974846 0.126227 6 -1 2 
7365 6 0.8735 0.110629 0.103122 -1 2 0 
8490 5 0.033328 0.164587 0.134254 0 3 -1 
8011 6 0.0881331 0.152009 0.122812 4 4 4 
6055 5 0.740785 0.175104 0.0590324 -2 -1 -3 
7258 5 0.977815 0.139495 0.0976686 1 9 -2 
5820 6 0.576437 0.19369 0.127974 4 1 2 
7686 6 0.668053 0.199958 0.117076 -3 4 5 
6993 6 0.54262 0.244742 0.0885354 -3 4 3 
8366 6 0.921545 0.225915 0.0606928 0 5 -2 
6527 6 0.448228 0.251537 0.0832249 -4 6 4 
5751 6 0.671156 0.300359 0.0952403 -2 -3 0 
8930 6 0.638552 0.337909 0.0887634 2 0 3 
6990 5 0.741495 0.316195 0.110494 2 2 4 
7870 6 0.259079 0.327391 0.112656 0 -2 0 
8181 5 0.37523 0.309421 0.0823922 6 -3 3 
7325 6 0.059451 0.320628 0.105699 0 -1 3 
5795 6 0.37429 0.374571 0.110739 6 -6 2 
5691 6 0.496791 0.344347 0.0971618 5 2 -2 
6213 5 0.507158 0.393128 0.0859437 6 2 2 
5899 5 0.374058 0.422376 0.0794963 0 2 -1 
7717 6 0.54816 0.412249 0.113793 -3 6 2 
5858 5 0.521413 0.415013 0.0806249 -3 6 -1 
7172 5 0.809916 0.394538 0.0757088 -2 1 2 
6509 5 0.0488628 0.392476 0.0868906 -1 -1 4 
5339 6 0.782589 0.474751 0.124241 -2 -3 4 
8194 6 0.497108 0.514273 0.104496 -1 0 2 
8768 6 0.871847 0.499909 0.0763223 -2 1 3 
7451 6 0.00742897 0.538944 0.108418 0 -1 6 
6840 6 0.0097821 0.515486 0.144979 -1 -1 -1 
7222 6 0.0295185 0.559686 0.093985 -10 5 4 
8434 6 0.205327 0.56776 0.0505307 -5 -1 1 
8476 6 0.44112 0.583871 0.0785317 4 -1 1 
8914 5 0.764741 0.600204 0.128591 -3 -2 -1 
7711 6 0.0617532 0.673112 0.094827 2 -1 1 
5238 6 0.101773 0.637278 0.0955763 -3 0 -1 
6569 5 0.997078 0.628415 0.110442 -5 -4 2 
5972 6 0.293335 0.671298 0.0834081 -1 0 -2 
5136 6 0.234517 0.660339 0.0800615 -3 -3 4 
6783 5 0.358327 0.682263 0.131963 -2 -5 -1 
8435 6 0.192104 0.7078 0.119288 3 2 2 
5336 6 0.859086 0.714446 0.117954 -3 -3 3 
7566 5 0.0699881 0.761437 0.11034 1 0 2 
5345 6 0.371616 0.722182 0.112236 1 2 1 
7889 6 0.569974 0.704897 0.104169 -6 3 0 
7715 6 0.272467 0.774907 0.0549692 -1 7 1 
5463 5 0.452471 0.774756 0.0803948 0 2 -3 
5521 5 0.764407 0.817385 0.0726985 -3 2 -2 
5453 5 0.252394 0.80657 0.0877501 5 3 5 
7100 6 0.041278 0.861499 0.113329 3 3 2 
5325 6 0.422999 0.821861 0.100032 2 -4 4 
8146 5 0.575482 0.859923 0.107536 -1 -5 1 
8034 5 0.73462 0.848831 0.124368 0 0 5 
7932 6 0.983241 0.843375 0.0804361 1 -2 -5 
5717 5 0.175466 0.853262 0.0989856 -1 -1 -4 
5855 5 0.677698 0.86428 0.0948408 3 -3 -1 
5638 6 0.0884982 0.881675 0.0570359 3 -3 -6 
7922 5 0.479768 0.875516 0.104097 3 4 1 
5546 6 0.247989 0.931979 0.13784 6 4 2 
6820 5 0.533133 0.939953 0.130006 -2 -5 1 
8783 6 0.803617 0.955653 0.136785 -3 -1 1 
5078 6 0.805752 0.947986 0.108165 3 6 3 
5959 6 0.271366 1.00126 0.0517225 -3 0 -1 
7899 5 0.513013 0.988521 0.11425 -1 -2 1 
6565 6 0.903112 0.985444 0.102812 -1 -1 -1 
6590 5 0.264032 0.00621771 0.116591 6 -3 0 
8389 6 0.46353 0.0289827 0.0901347 0 -4 -4 
8698 6 0.822169 0.0236172 0.12545 -1 -2 -2 
7773 6 0.38338 0.0753825 0.133269 -1 1 6 
8059 6 0.286781 0.0793934 0.125692 -4 3 -1 
8889 6 0.269169 0.118588 0.151138 3 2 -1 
6676 6 0.409586 0.0783114 0.0854875 -2 1 -4 
6308 5 0.630826 0.0733526 0.123185 4 -4 2 
7878 5 0.991112 0.104448 0.125527 -7 -2 -3 
6799 6 0.31307 0.108797 0.119624 0 -1 -2 
6846 6 0.641947 0.116525 0.131054 5 1 0 
6004 5 0.744973 0.140106 0.106022 0 0 -1 
8759 5 0.866711 0.0893047 0.14561 -1 -1 1 
6656 5 0.266424 0.110776 0.141887 -6 -2 -2 
7239 5 0.319261 0.149229 0.113428 0 3 0 
7084 6 0.956143 0.138666 0.135509 2 2 3 
6539 5 0.559275 0.110201 0.122671 -3 -3 0 
5618 6 0.410767 0.135416 0.113943 0 -3 3 
6137 6 0.580927 0.141632 0.116197 1 -3 -3 
7782 5 0.987793 0.14095 0.124982 0 4 0 
8206 5 0.163917 0.205664 0.115116 -2 2 -2 
7447 6 0.745728 0.228483 0.133241 3 0 2 
7072 6 0.839588 0.238071 0.134878 2 7 -3 
6951 6 0.0959314 0.266823 0.114773 5 -1 -6 
8671 5 0.270976 0.276778 0.156137 -1 3 -1 
5351 6 0.338688 0.271167 0.140955 1 3 1 
6876 5 0.21784 0.302829 0.15966 2 1 1 
6642 5 0.424651 0.300081 0.16279 -1 -1 1 
7770 6 0.059455 0.285155 0.162285 1 -1 3 
6382 5 0.187872 0.348063 0.153712 1 0 3 
6597 6 0.441196 0.309071 0.132508 3 -3 5 
6445 6 0.604046 0.314632 0.104065 0 -3 1 
8070 5 0.856817 0.316071 0.133334 -1 2 0 
8321 6 0.732152 0.316747 0.101211 -2 0 1 
8047 5 0.27134 0.426038 0.117655 -5 1 3 
5289 6 0.970562 0.402008 0.135369 4 -2 0 
8290 5 0.00280044 0.472293 0.128909 1 4 1 
6277 6 0.0641148 0.462404 0.178028 0 0 5 
7636 6 0.262226 0.45807 0.136336 -2 0 4 
7850 6 0.838464 0.425567 0.121776 -8 2 -2 
8491 5 0.827692 0.455936 0.134313 -3 2 0 
8525 6 0.94043 0.449743 0.107335 4 4 2 
5152 6 0.150147 0.446228 0.10907 1 2 -2 
7274 5 0.126913 0.484192 0.110151 3 -6 -1 
7254 6 0.379549 0.535951 0.118581 6 -2 -1 
5705 5 0.501816 0.4974 0.136518 -1 -6 -3 
6071 6 0.605192 0.486768 0.118867 2 -4 4 
6917 5 0.0272509 0.583344 0.106177 0 -2 0 
6303 5 0.0971449 0.544864 0.108536 4 -3 -1 
5633 6 0.11636 0.552203 0.119888 1 2 6 
8744 6 0.258687 0.554926 0.126827 2 -7 -1 
7215 5 0.838102 0.545881 0.120829 -1 0 -3 
7832 6 0.230102 0.572414 0.120777 1 0 -2 
7487 6 0.162202 0.62043 0.130376 6 -2 1 
8030 6 0.619086 0.649563 0.128469 5 2 -2 
7428 5 0.250355 0.702033 0.104941 -2 3 2 
6967 6 0.566614 0.698694 0.145849 3 -1 1 
8990 5 0.592203 0.704969 0.129518 3 3 -2 
8287 5 0.817302 0.698363 0.120309 -1 -4 -1 
7720 5 0.911005 0.733871 0.121325 2 3 1 
7146 6 0.32835 0.756506 0.118247 0 0 0 
5792 6 0.557813 0.754799 0.175674 5 -1 6 
5164 5 0.803304 0.787979 0.179128 -2 1 2 
8514 6 0.465779 0.758139 0.115927 -1 3 0 
7945 6 0.0127418 0.758754 0.144006 0 -2 3 
5414 5 0.465104 0.792236 0.11894 0 -4 2 
5486 5 0.56485 0.796776 0.141411 1 -3 -7 
8136 6 0.0191102 0.822906 0.136089 -1 0 -1 
6771 6 0.154056 0.784711 0.120079 4 2 -3 
6919 6 0.29407 0.802168 0.139801 1 -3 -6 
8012 6 0.273887 0.80616 0.144948 0 -3 -4 
7503 6 0.235091 0.812217 0.112958 5 -2 -7 
7727 6 0.250624 0.815002 0.12786 2 1 3 
6286 5 0.84863 0.855637 0.128009 1 3 2 
8063 5 0.831959 0.832129 0.110323 4 -3 4 
6272 5 0.0258822 0.94626 0.130415 2 3 1 
7789 5 0.771818 0.959136 0.119005 0 2 -2 
5825 5 0.837789 0.934851 0.119757 -2 1 -1 
8038 5 0.451568 0.969728 0.117353 3 -3 -2 
8787 5 0.916389 0.000607667 0.125001 0 1 3 
7022 6 0.0324659 0.995937 0.144146 -3 -4 -3 
8395 6 0.16339 0.960917 0.111647 -3 -1 1 
6388 6 0.947906 0.0256061 0.121336 -7 7 1 
7183 5 0.96673 0.992266 0.112212 4 4 -1 
5075 6 0.111686 0.00473895 0.122229 4 -5 0 
6181 6 0.152905 0.050893 0.156643 -3 0 3 
6765 5 0.505335 0.00659605 0.158502 2 2 -4 
6940 5 0.574714 0.0767141 0.169082 0 0 5 
7419 5 0.644304 0.0221129 0.137958 -2 0 3 
5159 5 0.697515 0.0162698 0.149452 2 -1 0 
7031 6 0.989738 0.0539651 0.141057 3 -1 0 
5151 6 0.0998193 0.0554824 0.180078 4 -4 0 
5470 6 0.475841 0.067314 0.159754 3 4 -1 
8308 6 0.0109601 0.084189 0.121604 -3 1 -1 
6929 6 0.808224 0.0870274 0.128087 -3 2 4 
6808 5 0.950196 0.0929459 0.151104 -4 2 0 
6549 5 0.0830615 0.12904 0.154135 -2 2 3 
7449 6 0.151664 0.173432 0.150117 2 -1 -2 
7101 6 0.664855 0.166694 0.158139 -3 1 1 
8906 5 0.724386 0.193194 0.194001 -2 -3 1 
8498 5 0.320995 0.180293 0.17957 -4 -4 -5 
6007 5 0.477193 0.213174 0.12741 0 1 3 
7409 5 0.88805 0.26677 0.130219 3 -3 1 
5434 6 0.658223 0.257834 0.125288 -1 0 1 
5223 6 0.937472 0.27899 0.142834 -4 -1 -1 
6377 5 0.0849777 0.317642 0.137485 1 -2 -2 
7115 6 0.10882 0.247546 0.155697 4 3 -3 
8829 6 0.193323 0.329456 0.110358 -1 2 -5 
8261 5 0.262643 0.286871 0.163305 -2 -4 -1 
6476 6 0.564358 0.31115 0.143102 3 -4 -2 
8373 5 0.593758 0.30288 0.145342 1 -1 -1 
2505 1 0.745987 0.306368 0.158174 0 0 0 
2507 1 0.747506 0.312198 0.161813 0 0 0 
2506 1 0.742076 0.311395 0.158303 0 0 0 
2508 1 0.746643 0.317692 0.158145 0 0 0 
2500 1 0.756618 0.304783 0.144431 0 0 0 
2499 1 0.756561 0.310754 0.147256 0 0 0 
2502 1 0.750761 0.304115 0.148434 0 0 0 
2504 1 0.745597 0.3088 0.152375 0 0 0 
2501 1 0.756583 0.303983 0.150481 0 0 0 
2498 1 0.762389 0.30756 0.147893 0 0 0 
2497 1 0.761343 0.312111 0.152544 0 0 0 
2503 1 0.751844 0.307831 0.153517 0 0 0 
6979 6 0.188979 0.330824 0.16279 1 2 -1 
7324 6 0.133251 0.31425 0.113708 -4 -6 2 
2567 1 0.726118 0.325791 0.144794 0 0 0 
2568 1 0.722245 0.321428 0.142351 0 0 0 
2566 1 0.729917 0.321388 0.142905 0 0 0 
2569 1 0.718967 0.326135 0.145199 0 0 0 
2570 1 0.71478 0.322068 0.142792 0 0 0 
2571 1 0.715955 0.326172 0.138233 0 0 0 
2573 1 0.713243 0.33324 0.138624 0 0 0 
2565 1 0.728059 0.32415 0.137419 0 0 0 
2572 1 0.71014 0.328094 0.140652 0 0 0 
2574 1 0.710562 0.33482 0.144535 0 0 0 
2575 1 0.71652 0.333715 0.144999 0 0 0 
2564 1 0.734528 0.325114 0.138032 0 0 0 
2563 1 0.731392 0.330668 0.13824 0 0 0 
2561 1 0.731721 0.32914 0.1455 0 0 0 
2562 1 0.736368 0.331098 0.141685 0 0 0 
2560 1 0.730238 0.335364 0.144039 0 0 0 
2559 1 0.735885 0.334755 0.147907 0 0 0 
2544 1 0.738174 0.32276 0.151845 0 0 0 
2546 1 0.744829 0.324899 0.148751 0 0 0 
2545 1 0.739321 0.323143 0.145753 0 0 0 
2548 1 0.745662 0.328273 0.15516 0 0 0 
2550 1 0.744775 0.334501 0.150723 0 0 0 
2547 1 0.740526 0.3285 0.150994 0 0 0 
5612 5 0.729787 0.314494 0.145572 -1 -3 2 
2543 1 0.733568 0.319083 0.149346 0 0 0 
2542 1 0.731283 0.323963 0.152351 0 0 0 
2558 1 0.732099 0.33984 0.149083 0 0 0 
2541 1 0.728732 0.318277 0.154627 0 0 0 
6042 6 0.999009 0.340118 0.175414 -1 1 3 
8758 5 0.105382 0.340664 0.125837 2 3 2 
6439 6 0.170408 0.368236 0.165619 4 -2 -3 
6142 6 0.370594 0.316615 0.161212 2 0 0 
7664 6 0.657656 0.382685 0.13936 -1 -1 0 
2589 1 0.700555 0.343489 0.166344 0 0 0 
2587 1 0.70294 0.338304 0.162143 0 0 0 
2586 1 0.702967 0.337577 0.168849 0 0 0 
912 2 0.73888 0.383267 0.15465 0 0 0 
911 2 0.743137 0.38684 0.157731 0 0 0 
910 2 0.744896 0.387314 0.163818 0 0 0 
918 1 0.726371 0.39128 0.140666 0 0 0 
919 2 0.721857 0.393014 0.145511 0 0 0 
920 2 0.71822 0.397113 0.149434 0 0 0 
916 1 0.729716 0.384603 0.141648 0 0 0 
917 1 0.731889 0.389366 0.138084 0 0 0 
8691 5 0.707268 0.418842 0.183888 1 3 3 
915 1 0.732042 0.389952 0.145037 0 0 0 
914 1 0.73607 0.38468 0.144885 0 0 0 
913 2 0.73826 0.380334 0.148874 0 0 0 
7315 6 0.0555848 0.401719 0.0999101 -1 0 -3 
7768 6 0.281827 0.411342 0.133765 -2 0 5 
5040 6 0.379344 0.396177 0.184628 -6 2 -5 
6879 6 0.708962 0.440857 0.158121 5 0 -2 
1017 1 0.672996 0.453097 0.160185 0 0 0 
6344 5 0.832781 0.454502 0.140194 -5 3 2 
7786 6 0.226205 0.479693 0.145204 3 -2 3 
1015 1 0.66935 0.459154 0.160587 0 0 0 
1013 1 0.664637 0.464477 0.16348 0 0 0 
1011 1 0.669935 0.469277 0.165623 0 0 0 
1014 1 0.670102 0.462239 0.16613 0 0 0 
7421 6 0.779492 0.463564 0.14779 2 -3 -1 
7061 6 0.945137 0.464485 0.143891 -3 -6 3 
8252 5 0.0841637 0.492383 0.140121 1 -3 0 
6700 5 0.280551 0.509569 0.153291 4 3 -1 
5018 6 0.204237 0.54459 0.160616 2 -1 -1 
7255 6 0.959367 0.540791 0.158644 3 7 -2 
7996 6 0.129833 0.680513 0.126065 -2 2 4 
8885 6 0.710932 0.64258 0.141301 6 6 -2 
7604 5 0.322778 0.695979 0.124707 -1 5 -1 
8894 5 0.364598 0.664414 0.203656 -1 1 0 
6747 6 0.686877 0.645518 0.0957076 3 -1 4 
5493 6 0.0311059 0.670286 0.157596 -2 0 -1 
6243 5 0.409773 0.739724 0.104218 0 1 0 
7663 6 0.647523 0.708706 0.160005 2 -1 1 
5696 5 0.814875 0.718696 0.139926 1 3 -2 
6248 5 0.842317 0.706922 0.124367 2 4 2 
6306 6 0.792765 0.750395 0.164595 -5 -3 7 
6663 5 0.0140586 0.736385 0.165293 6 -1 4 
5803 6 0.0937245 0.757888 0.128923 2 2 1 
7783 5 0.752658 0.767324 0.151997 -4 -2 0 
6130 5 0.266418 0.807488 0.114898 -2 3 2 
8686 6 0.686223 0.751906 0.113481 0 -1 1 
5630 5 0.233455 0.789769 0.109972 -2 -1 4 
8795 5 0.213488 0.790047 0.182887 -2 0 5 
8221 5 0.557041 0.800547 0.150329 0 0 -2 
8014 5 0.176194 0.849741 0.167236 5 0 2 
7828 5 0.303743 0.823885 0.147062 3 -2 -1 
5054 6 0.734685 0.828985 0.150297 2 -4 0 
6776 6 0.761736 0.798229 0.131351 -2 -2 6 
7631 5 0.320909 0.868495 0.109126 7 -1 0 
5405 6 0.484574 0.793137 0.193021 1 5 -3 
6166 6 0.883651 0.836483 0.146542 4 -2 -1 
6111 5 0.415167 0.879216 0.1406 2 -3 3 
7398 6 0.994518 0.946283 0.142977 -4 -5 -3 
8887 5 0.436866 0.890206 0.160839 2 -3 1 
7606 6 0.581966 0.872904 0.180677 0 0 -1 
8083 6 0.553251 0.920916 0.139304 2 3 -1 
8764 5 0.630338 0.881007 0.155099 0 -4 4 
6455 5 0.631495 0.939927 0.142183 -2 0 5 
8845 5 0.163722 0.947999 0.145491 -1 -2 -3 
8788 5 0.422043 0.942275 0.191556 -4 6 4 
6183 6 0.492931 0.918647 0.13169 0 -1 3 
7656 5 0.244257 0.00958385 0.131096 1 -1 1 
6980 5 0.517353 0.964095 0.114521 -6 -2 -4 
5439 6 0.52232 0.931518 0.152616 -1 -1 -1 
5761 6 0.780492 0.972303 0.186318 -2 -3 0 
5672 5 0.924019 0.968195 0.136675 -2 4 0 
8566 5 0.808639 0.0368664 0.160269 0 -6 -7 
6164 6 0.277094 0.0392438 0.178928 1 3 -5 
6732 6 0.718982 0.0520689 0.217023 2 2 5 
5737 6 0.365169 0.0829134 0.162367 4 -1 7 
6124 6 0.486022 0.0115693 0.169662 6 3 1 
8903 5 0.0755744 0.0924764 0.152811 -2 2 6 
8100 5 0.933118 0.114035 0.200207 -3 -1 -2 
6131 6 0.6101 0.135075 0.133936 -6 -3 4 
7104 6 0.85651 0.132524 0.186114 -6 -2 2 
6596 6 0.104734 0.140285 0.203611 0 5 1 
6347 6 0.262259 0.163624 0.148264 3 2 -3 
5780 6 0.655233 0.161468 0.149371 1 -2 12 
8625 5 0.695391 0.173979 0.171421 2 3 -8 
6030 5 0.109358 0.207824 0.156464 2 1 1 
5599 5 0.410685 0.19522 0.175721 3 -3 1 
6693 6 0.978595 0.192682 0.143878 3 0 1 
2004 2 0.68819 0.248194 0.183305 0 0 0 
2003 2 0.688798 0.25268 0.18812 0 0 0 
2002 2 0.688196 0.258854 0.19001 0 0 0 
2005 2 0.686287 0.244213 0.188283 0 0 0 
7288 6 0.866288 0.218085 0.133977 -3 3 1 
2051 1 0.647298 0.285991 0.186145 0 0 0 
2053 1 0.644621 0.291352 0.182025 0 0 0 
2048 1 0.636297 0.282405 0.187666 0 0 0 
5742 5 0.829839 0.272219 0.180253 -5 0 3 
6474 6 0.991471 0.288072 0.186409 -1 1 1 
7778 5 0.599395 0.320745 0.151918 0 -1 0 
2539 1 0.731533 0.322371 0.159645 0 0 0 
2533 1 0.739775 0.317064 0.171197 0 0 0 
2531 1 0.74566 0.314481 0.175361 0 0 0 
2537 1 0.731155 0.325751 0.166137 0 0 0 
2534 1 0.733798 0.316688 0.173412 0 0 0 
8500 5 0.750062 0.318183 0.167233 1 2 -1 
2532 1 0.7397 0.312152 0.174999 0 0 0 
2509 1 0.743545 0.318305 0.16365 0 0 0 
2511 1 0.749102 0.323214 0.161826 0 0 0 
2530 1 0.742517 0.315625 0.180679 0 0 0 
2496 1 0.765157 0.306436 0.153908 0 0 0 
2494 1 0.771929 0.307448 0.158004 0 0 0 
2491 1 0.773793 0.308554 0.16528 0 0 0 
2490 1 0.77084 0.312108 0.169873 0 0 0 
2492 1 0.76898 0.311815 0.162933 0 0 0 
2495 1 0.768254 0.312065 0.156071 0 0 0 
2493 1 0.773824 0.313387 0.1595 0 0 0 
2513 1 0.752639 0.32961 0.164252 0 0 0 
2487 1 0.780833 0.319148 0.170554 0 0 0 
2481 1 0.780516 0.32301 0.185969 0 0 0 
6924 6 0.388539 0.348927 0.15245 -3 2 -4 
6707 5 0.546146 0.306344 0.182855 -1 3 -4 
2583 1 0.709444 0.32882 0.167419 0 0 0 
2581 1 0.715154 0.329904 0.163608 0 0 0 
2585 1 0.708446 0.335787 0.166143 0 0 0 
2582 1 0.709583 0.328977 0.16087 0 0 0 
2577 1 0.720559 0.331895 0.151519 0 0 0 
2576 1 0.714286 0.333697 0.150763 0 0 0 
2578 1 0.716834 0.327165 0.152659 0 0 0 
2579 1 0.719874 0.32829 0.157833 0 0 0 
2580 1 0.71498 0.324508 0.159299 0 0 0 
2540 1 0.726112 0.323719 0.156472 0 0 0 
2557 1 0.738368 0.34163 0.148178 0 0 0 
2551 1 0.746251 0.33889 0.15526 0 0 0 
2549 1 0.74168 0.333421 0.156252 0 0 0 
2553 1 0.744501 0.346032 0.15254 0 0 0 
2510 1 0.743117 0.323643 0.159858 0 0 0 
7389 5 0.73552 0.318471 0.165054 -3 -2 0 
2552 1 0.747238 0.341296 0.149709 0 0 0 
2535 1 0.735442 0.322606 0.171307 0 0 0 
2555 1 0.73837 0.348306 0.150737 0 0 0 
2536 1 0.728909 0.321707 0.170508 0 0 0 
2538 1 0.72704 0.321426 0.163714 0 0 0 
2512 1 0.746674 0.327718 0.165389 0 0 0 