ITEM: TIMESTEP
20000000
ITEM: NUMBER OF ATOMS
9000
ITEM: BOX BOUNDS pp pp pp
-75 75
-75 75
-75 75
ITEM: ATOMS id type xs ys zs ix iy iz 
7390 6 0.21161 0.987162 0.0197593 -4 -3 -2 
6547 6 0.277015 0.0357801 0.037612 3 -2 8 
7277 5 0.566552 0.0394865 0.98904 0 4 4 
7011 5 0.0572256 0.0720842 0.0292835 -1 2 2 
5166 6 0.319477 0.029755 0.0056798 4 3 -3 
8377 6 0.366648 0.0830416 0.996377 4 -5 2 
8514 5 0.528279 0.0392426 0.00858325 2 -5 2 
7688 6 0.961941 0.0912726 0.00121524 -3 1 7 
5653 6 0.845027 0.118018 0.00910778 2 -4 1 
7193 5 0.0725646 0.151845 0.965957 2 3 1 
8803 5 0.353265 0.144629 0.9926 2 -4 -4 
5832 6 0.488977 0.113988 0.994204 5 0 10 
6588 5 0.709056 0.147737 0.999181 -2 7 -6 
6874 5 0.0499188 0.152267 0.0261689 1 4 1 
7142 6 0.770441 0.164773 0.983174 1 3 -1 
7377 6 0.933364 0.174093 0.00809002 -1 -3 3 
5092 5 0.936589 0.204387 0.00912017 3 -2 1 
7936 5 0.0627994 0.137623 0.992541 3 -6 -2 
8423 5 0.756577 0.20621 0.986331 0 3 -3 
8964 5 0.206871 0.204863 0.975784 -1 1 0 
8119 5 0.393542 0.166457 0.020307 6 -3 0 
6750 6 0.608588 0.237552 0.0632511 3 -2 1 
6212 5 0.908274 0.227506 0.994578 0 -2 -1 
7465 5 0.0747981 0.260408 0.945497 2 -3 -3 
5098 5 0.366711 0.228492 0.977045 3 -5 -5 
5259 5 0.486058 0.237651 0.00304069 -3 0 0 
7513 6 0.985668 0.293398 0.995177 0 -2 -7 
5343 6 0.51432 0.295179 0.0204965 -3 0 -1 
6649 6 0.041761 0.359288 0.0303179 -3 2 -3 
7619 6 0.237869 0.347063 0.987668 -3 -2 9 
6434 6 0.299653 0.366778 0.0149597 -2 4 -4 
8207 5 0.269245 0.368286 0.98927 2 4 0 
7728 6 0.857074 0.370639 0.0286622 -4 -2 1 
7621 6 0.157255 0.406134 0.0149572 -1 -2 1 
7112 5 0.766281 0.446334 0.0290451 4 3 -1 
5203 6 0.86102 0.446344 0.0118741 -2 0 -1 
6233 6 0.196184 0.487474 0.995226 -1 1 0 
6756 5 0.65672 0.530104 0.014473 -1 -1 -2 
8286 5 0.800197 0.547644 0.0382335 1 0 -2 
5307 5 0.904565 0.514698 0.0120936 -2 0 -3 
8346 5 0.718116 0.560651 0.0031714 -2 -1 4 
5916 5 0.830971 0.570391 0.0250215 1 4 -1 
7349 6 0.98638 0.573288 0.00486435 -1 0 1 
5210 5 0.281762 0.60036 0.984389 -4 5 -4 
6654 6 0.935509 0.574479 0.0210136 -3 -3 -2 
5469 5 0.613197 0.588794 0.0387274 1 -2 0 
8447 6 0.744358 0.602455 0.00888221 -7 -1 2 
8645 6 0.750464 0.588674 -0.000314752 5 3 -1 
5351 5 0.523821 0.672122 0.995056 0 2 2 
8035 6 0.561096 0.660582 0.9982 1 0 -1 
5038 5 0.811688 0.660487 0.994607 2 -1 3 
7259 5 0.427555 0.686139 0.0129501 -1 0 -3 
6633 6 0.156579 0.682666 0.00484675 1 1 3 
8789 6 0.360079 0.705808 0.0497807 0 2 2 
8721 5 0.330449 0.718619 0.0329157 2 2 -1 
8892 6 0.483496 0.700532 0.0610582 6 1 -2 
6167 5 0.510094 0.737867 0.0257939 -3 2 0 
8731 5 0.458078 0.716848 0.999069 3 2 -2 
8898 6 0.463237 0.759819 0.038722 -1 2 1 
6493 5 0.0944326 0.764795 0.986354 -5 -1 1 
8445 5 0.997343 0.782365 0.982516 -4 2 -3 
7528 5 0.200609 0.804989 0.990978 -6 -3 -7 
5759 5 0.688519 0.841299 0.0170713 2 -1 0 
7036 5 0.770923 0.829952 0.974015 4 0 3 
7633 6 0.253396 0.788791 0.00771313 -4 0 -1 
7030 6 0.0276118 0.868004 0.0198472 -2 1 0 
6261 6 0.771058 0.876222 0.993585 3 0 3 
6946 5 0.179736 0.918175 0.0184141 7 -1 -1 
8462 6 0.435639 0.873891 0.00212477 4 0 1 
8228 5 0.4624 0.874418 0.00896394 2 -1 0 
7779 5 0.356309 0.894814 0.0119394 -2 1 1 
7451 5 0.108483 0.930344 0.0186163 0 -2 -1 
8009 5 0.206192 0.952423 0.972639 4 -2 -4 
7376 6 0.540633 0.926018 0.987676 1 -1 -7 
6046 5 0.0965646 0.945937 0.0211251 -4 -1 2 
8269 5 0.405425 0.968273 0.0324077 2 -1 -7 
7240 6 0.448366 0.0111942 0.0486112 -3 1 4 
7813 5 0.799633 0.0521458 0.0308289 3 -2 -3 
8338 5 0.000236656 0.00723977 0.0632441 1 6 -1 
7241 6 0.216749 0.0853839 0.041297 -2 0 3 
5467 6 0.51095 0.079498 0.0501715 0 4 3 
8218 5 0.562489 0.997122 0.0450475 4 0 0 
6985 6 0.991634 0.0115998 0.0240758 0 4 3 
5337 6 0.692444 0.0980907 0.0204309 -3 0 4 
8010 6 0.902308 0.0738081 0.0572234 2 -4 -1 
5129 6 0.130217 0.0904637 0.0290978 -1 -2 0 
6103 5 0.0892333 0.126458 0.0408698 2 1 -2 
5758 6 0.962784 0.157818 0.0381063 -1 3 0 
5188 6 0.289272 0.136296 0.00915299 -4 -5 1 
6819 5 0.660932 0.163268 0.0138947 1 4 2 
8575 5 0.731339 0.14203 0.0417014 -1 -1 -2 
8196 6 0.624049 0.20012 0.0260867 1 -1 -2 
5786 6 0.672684 0.20618 0.0295472 -3 0 -1 
5971 6 0.239248 0.215325 0.997842 -1 -1 3 
5072 5 0.287476 0.267621 0.00638842 3 -2 -1 
6600 5 0.643604 0.230093 0.054548 -1 -1 0 
6618 6 0.38663 0.250609 0.059589 1 0 1 
8699 6 0.383492 0.267937 0.0631219 -4 1 1 
7664 5 0.765834 0.280065 0.0359635 -2 -2 3 
7602 6 0.0844966 0.273423 0.0266519 1 -1 -1 
5286 6 0.208671 0.305 0.0335099 3 -3 -1 
7217 6 0.0682156 0.300662 0.0561699 6 -2 2 
5919 5 0.443508 0.323737 0.0348185 0 0 5 
6085 6 0.0388276 0.362119 0.023273 -1 2 5 
8435 5 0.0487047 0.353817 0.0305012 -3 2 -4 
8188 5 0.85798 0.332534 0.046638 3 1 -1 
8883 6 0.220206 0.404369 0.0193273 -3 6 -1 
8809 6 0.394322 0.370406 0.0219449 2 -4 -5 
8147 6 0.480192 0.401637 0.0209097 0 -3 -2 
6160 6 0.878432 0.425039 0.0349228 1 -3 1 
8551 5 0.159402 0.428515 0.00162633 2 -2 5 
6644 6 0.790806 0.426863 0.044804 0 -3 1 
5870 5 0.502268 0.487871 0.0498118 -1 1 0 
6932 5 0.575035 0.508771 0.0331395 3 0 -2 
5636 6 0.0465601 0.482954 0.0340922 -3 0 2 
5080 6 0.224574 0.489952 0.0488288 2 3 3 
7721 6 0.354616 0.478939 0.0254631 1 4 4 
7010 5 0.922448 0.491987 0.034184 1 -4 4 
8478 6 0.272939 0.547895 0.0110553 5 -5 -2 
6454 6 0.376102 0.573204 0.0231069 0 -5 0 
7212 6 0.517092 0.564288 0.00779613 -4 -1 -3 
7459 6 0.439504 0.560096 0.0361572 2 0 -3 
6949 6 0.924281 0.588655 0.0554867 -1 1 -2 
7154 6 0.764685 0.61122 0.0549569 4 -3 -1 
8353 5 0.557649 0.597474 0.0504189 -4 1 3 
5839 6 0.215875 0.63738 0.0461962 5 -2 4 
5144 5 0.918516 0.650151 0.0526535 -1 0 3 
5686 6 0.20657 0.709093 0.0390402 -6 -4 1 
5728 6 0.877977 0.651035 0.054035 4 -3 1 
8918 5 0.96999 0.644513 0.00378026 2 -1 -2 
8768 6 0.402894 0.730974 0.994207 3 2 0 
7006 6 0.748964 0.695526 0.0496468 -3 3 4 
7434 6 0.107396 0.685223 0.0171955 0 -3 -1 
6035 6 0.110495 0.681494 0.0357203 -3 -1 -1 
8453 5 0.190227 0.72046 0.0252847 5 -2 -4 
5924 5 0.60489 0.718024 0.0513791 6 -6 2 
6743 6 0.726702 0.741522 0.0162975 0 2 -2 
6257 5 0.116062 0.764862 0.0788369 -1 -1 -1 
6301 6 0.32306 0.780022 0.0305696 1 -3 -2 
8821 6 0.125739 0.768652 0.97923 1 6 2 
6421 6 0.384399 0.811054 0.063746 2 -4 -2 
5877 5 0.96842 0.849399 0.0318338 0 6 0 
6003 6 0.336762 0.794974 0.0528783 -2 1 -2 
6449 6 0.33117 0.805069 0.0708475 -4 -1 -1 
8798 6 0.293647 0.843334 0.0266135 -4 -4 1 
5749 5 0.770146 0.857783 0.0370591 3 -5 -1 
6920 6 0.691624 0.89022 0.030634 -1 -1 -1 
8639 6 0.724062 0.89635 0.0598811 -3 0 2 
5082 5 0.187076 0.892281 0.09064 4 -3 3 
5112 6 0.0109218 0.93257 0.0440434 0 1 3 
5295 5 0.139627 0.966118 0.0259355 -1 0 1 
7896 5 0.206713 0.912249 0.0711584 5 2 -2 
6251 6 0.509474 0.905504 0.0546892 -2 4 0 
7930 5 0.376957 0.950807 0.00879656 3 -3 4 
7699 5 0.807939 0.0320549 0.0850495 6 -1 5 
6646 5 0.838295 0.991792 0.053303 4 2 5 
5743 6 0.976691 0.0420348 0.0742038 2 2 2 
6625 5 0.0267069 0.0433987 0.067028 2 -1 1 
8729 6 0.1933 0.0337048 0.0635826 2 3 -2 
5426 5 0.742225 0.0533171 0.037826 3 -2 2 
5079 6 0.884094 0.00816909 0.0415125 3 -3 -2 
8110 6 0.635423 0.0255809 0.0685152 -4 1 4 
7747 5 0.659664 0.0566904 0.0782633 2 -1 -2 
5644 6 0.939656 0.069164 0.0763915 4 1 0 
7130 5 0.64877 0.0697235 0.0520931 -1 1 -3 
5753 6 0.785742 0.020899 0.0149599 1 -1 1 
8997 5 0.454977 0.0729003 0.0652148 4 -2 3 
7165 6 0.600376 0.117474 0.0612376 5 -1 0 
7324 5 0.875597 0.0970794 0.0484478 -2 1 6 
7093 5 0.952942 0.0949789 0.0740709 3 1 2 
8922 5 0.684789 0.103606 0.0600648 -4 3 2 
5929 5 0.790465 0.114452 0.0917147 -1 2 0 
8566 6 0.0220956 0.139529 0.100205 -1 1 -4 
7124 6 0.161262 0.147368 0.070669 2 2 0 
7054 6 0.54668 0.171174 0.0645723 -1 2 2 
8871 5 0.062627 0.210153 0.0691552 -7 1 6 
6972 6 0.102535 0.190068 0.0686907 3 4 -5 
6959 6 0.357978 0.207417 0.0769652 4 2 -4 
5427 6 0.626069 0.203088 0.0684192 0 3 -1 
5334 6 0.97926 0.156879 0.0398298 -1 -3 -1 
6537 6 0.401418 0.192892 0.0644341 -3 -1 5 
5777 5 0.262527 0.242198 0.0503767 5 2 3 
8156 5 0.196948 0.303926 0.0932747 -5 -5 -3 
8637 5 0.514304 0.29892 0.029888 -3 -3 -2 
8863 5 0.505629 0.321952 0.0341793 3 -5 -2 
6881 6 0.125257 0.329738 0.0922301 5 2 -2 
5764 6 0.446935 0.354041 0.0654361 -2 1 -1 
8933 6 0.614814 0.370298 0.0683917 0 0 1 
8774 5 0.0503386 0.383323 0.0543582 -1 0 2 
6289 6 0.923268 0.377005 0.0632464 1 -3 4 
5905 6 0.0630937 0.428267 0.0572931 1 1 0 
8099 5 0.389112 0.35726 0.0695065 -3 -2 3 
8410 5 0.533129 0.350518 0.0752604 4 -2 2 
6824 5 0.276298 0.428677 0.0772265 -1 -3 4 
8069 5 0.391337 0.42339 0.055923 2 -1 -3 
7047 5 0.704959 0.381347 0.0795552 -2 1 2 
5394 6 0.348441 0.408937 0.0850469 -1 -3 -3 
7925 6 0.0937093 0.466458 0.0713322 0 -4 2 
7552 6 0.677394 0.462924 0.0548446 -2 3 6 
7298 6 0.759161 0.460296 0.0423396 1 4 1 
7076 6 0.682204 0.449748 0.0848814 -1 -3 3 
7185 6 0.890319 0.443882 0.0609177 2 -4 -6 
5792 6 0.924861 0.446663 0.042145 -2 -2 8 
7541 6 0.706447 0.484652 0.0420848 -2 2 3 
5836 6 0.648909 0.545418 0.0878786 2 3 0 
6738 5 0.186534 0.504182 0.0598741 3 2 0 
8816 5 0.337365 0.558859 0.0472847 1 -4 3 
6509 5 0.263718 0.546819 0.0903518 -4 0 3 
7289 6 0.890992 0.582036 0.0447567 -1 0 1 
7913 5 0.901331 0.552063 0.097258 -3 2 -2 
7438 6 0.0514517 0.604567 0.0522777 1 -1 0 
8715 5 0.126122 0.563556 0.0322057 -1 -3 0 
8497 6 0.33436 0.649044 0.0890853 1 1 3 
6134 6 0.77525 0.669895 0.0984462 -1 5 4 
8342 6 0.0338263 0.664955 0.0566291 5 -2 0 
7588 5 0.261516 0.665067 0.0650212 -2 -5 0 
6198 6 0.0277418 0.67985 0.0640973 0 -2 5 
5190 6 0.138685 0.627898 0.0777291 -4 0 1 
5933 6 0.857353 0.672153 0.0410469 -2 -1 0 
8037 6 0.903602 0.653961 0.0701128 1 2 -2 
8303 5 0.246226 0.670265 0.0772121 1 1 3 
5241 5 0.0996791 0.732396 0.0350047 2 0 3 
6893 6 0.300647 0.717438 0.0813673 1 4 5 
8846 6 0.747828 0.699055 0.0188591 1 1 1 
8337 6 0.813856 0.685432 0.059175 2 2 -1 
7806 6 0.129618 0.744267 0.0365847 -4 0 0 
8332 5 0.831214 0.710325 0.0553799 -1 1 2 
5131 5 0.379983 0.799231 0.0396173 1 1 -2 
5609 6 0.194261 0.815078 0.045917 -3 1 0 
7375 6 0.380904 0.797271 0.0791725 3 0 0 
5722 6 0.966663 0.825791 0.0297169 6 -5 3 
6843 5 0.637403 0.861797 0.0816122 3 0 -5 
5784 6 0.00474209 0.847707 0.0928398 -2 4 -3 
8029 5 0.575872 0.854103 0.0618649 1 -3 -5 
7235 6 0.00653946 0.898933 0.0470515 0 -1 1 
5756 6 0.507861 0.874067 0.0673295 -2 -3 1 
6882 5 0.705633 0.922432 0.0643324 -2 -1 -4 
7777 6 0.808408 0.901836 0.0900265 3 -7 -2 
6605 5 0.566265 0.923775 0.0737616 3 -4 1 
6929 5 0.330061 0.951314 0.0565601 -1 -6 -6 
6544 5 0.785382 0.962591 0.074786 -1 -1 -1 
6175 5 0.164253 0.991374 0.0825459 0 -1 0 
8320 5 0.216353 0.0619098 0.100111 2 -2 -2 
5766 6 0.272216 0.0106278 0.100742 1 5 0 
8780 5 0.705354 0.990531 0.0904052 -1 -4 0 
5586 6 0.854252 0.000232222 0.0528034 1 0 4 
7601 5 0.247692 0.0271648 0.0675267 2 3 -3 
8239 5 0.357202 0.0263171 0.0823355 -2 -4 -2 
7663 6 0.564344 0.0521563 0.101837 -3 2 5 
5511 5 0.996705 0.982366 0.0770957 -5 2 -3 
5308 6 0.560363 0.0875458 0.04152 -3 3 -6 
7371 6 0.246779 0.11938 0.0720212 -7 2 3 
6813 6 0.269067 0.101087 0.0920392 -1 1 2 
8354 5 0.350982 0.0976727 0.0881255 2 3 -2 
5858 6 0.936702 0.0870223 0.105476 -2 1 3 
7932 5 0.351307 0.124258 0.0604641 -1 0 2 
6193 5 0.0334238 0.137414 0.0535814 -4 1 -2 
7580 6 0.490531 0.153554 0.0776404 0 3 0 
5437 5 0.55429 0.204717 0.118906 3 1 -1 
8849 6 0.432914 0.191445 0.108999 1 -4 3 
7099 5 0.514641 0.206976 0.0338871 6 -2 -2 
5968 5 0.430523 0.225366 0.0987798 -2 -1 2 
8104 5 0.00752351 0.289693 0.0766065 3 2 -2 
8133 5 0.462809 0.270715 0.0816064 5 -2 -1 
6356 6 0.57902 0.254147 0.0611877 -4 2 2 
5875 5 0.793427 0.288879 0.0893564 -3 -4 0 
5561 6 0.525861 0.342888 0.077829 1 1 -2 
6340 6 0.592918 0.32793 0.0821942 3 -5 3 
8555 6 0.880775 0.306723 0.0830426 -1 2 -5 
8230 5 0.857528 0.315743 0.0727642 2 -4 -5 
6016 5 0.185892 0.320994 0.0604425 -1 4 -1 
7612 5 0.372866 0.338939 0.0825644 2 2 2 
7018 5 0.726241 0.311815 0.0711258 3 -3 1 
8737 5 0.920544 0.346401 0.0727384 4 4 -1 
6153 6 0.980916 0.352753 0.113191 -3 2 0 
5608 6 0.986658 0.369813 0.0461877 4 0 3 
6401 5 0.135677 0.378675 0.0557823 5 7 -3 
6099 5 0.360223 0.352299 0.0899258 -2 5 3 
6923 5 0.448426 0.384294 0.0840011 0 -2 5 
8690 6 0.468109 0.406126 0.0766686 1 0 -1 
5574 6 0.748365 0.410399 0.0939929 -2 -1 -4 
6776 5 0.0695529 0.350429 0.0978901 2 -3 1 
5718 5 0.116118 0.400748 0.10022 0 6 2 
6695 5 0.369122 0.398421 0.0792194 -6 10 -4 
6463 5 0.63074 0.394915 0.113997 0 4 1 
5500 6 0.776924 0.405477 0.0820444 -1 3 -2 
8664 5 0.0262605 0.463545 0.0687899 -5 -3 -2 
5181 6 0.409724 0.429774 0.074106 3 3 11 
6418 6 0.738043 0.438848 0.121278 1 -5 3 
6455 5 0.853199 0.422993 0.0954448 -3 0 -1 
8672 6 0.953394 0.467078 0.0885789 0 -2 -1 
7706 6 0.986539 0.428491 0.0633312 -8 -4 -3 
5150 5 0.544395 0.522468 0.0873384 1 4 2 
8270 5 0.517355 0.529928 0.0783287 5 -1 5 
8448 5 0.879174 0.530696 0.0721837 -3 3 0 
7736 5 0.182295 0.548058 0.0954938 4 6 4 
6067 6 0.903316 0.532309 0.0890781 -2 3 2 
6694 5 0.393181 0.609006 0.0505616 -1 3 6 
8749 6 0.750153 0.597396 0.0990847 -2 -2 3 
6348 6 0.0522695 0.624332 0.0766013 2 -1 -3 
8541 6 0.844635 0.614375 0.0451343 6 3 -2 
7894 6 0.90583 0.58609 0.0731042 0 -1 5 
5120 5 0.973215 0.607823 0.101149 0 3 2 
8295 5 0.252546 0.631754 0.0741708 4 -3 1 
5095 5 0.302018 0.632971 0.068109 2 -9 1 
7038 5 0.326539 0.609999 0.107636 -2 5 -4 
8025 5 0.694883 0.611624 0.060455 -4 1 -1 
8823 6 0.896938 0.634711 0.0554188 1 -6 -3 
5044 6 0.544976 0.649526 0.0619569 4 -2 0 
7731 6 0.97903 0.625429 0.0914336 5 -2 6 
5076 6 0.0214048 0.701912 0.0687043 2 -6 -4 
7388 6 0.199769 0.780551 0.10574 -2 -2 -2 
6521 6 0.411735 0.729025 0.0364887 -3 -2 0 
6784 6 0.581446 0.689635 0.0696944 -2 3 4 
5111 5 0.651454 0.713483 0.101219 1 -4 4 
5281 6 0.674143 0.695575 0.152368 -7 0 2 
5476 5 0.931626 0.681897 0.0924748 1 1 -4 
7701 5 0.989021 0.725066 0.106796 -2 1 4 
7882 6 0.780626 0.674851 0.0945684 5 2 -2 
6608 6 0.0460456 0.728418 0.0845973 0 7 2 
7759 5 0.351559 0.735555 0.0674291 -1 3 0 
6422 5 0.750518 0.743296 0.0669552 -1 3 3 
7019 5 0.696872 0.831988 0.0218217 -2 0 5 
6731 5 0.0899558 0.797639 0.0826198 -1 0 -1 
7430 6 0.41918 0.810181 0.144638 -4 5 3 
5100 5 0.402524 0.825608 0.0652454 5 5 -3 
5957 6 0.621141 0.872797 0.0625963 -5 0 3 
5629 5 0.155174 0.825542 0.128193 -3 2 0 
5767 6 0.0922673 0.885743 0.101511 0 -1 2 
8095 6 0.544678 0.907768 0.0978176 -2 3 0 
5374 5 0.757211 0.901784 0.138035 -4 0 2 
7989 6 0.287732 0.966511 0.0727751 -2 0 3 
7237 6 0.56446 0.975416 0.0670007 3 -4 0 
5405 6 0.820778 0.939896 0.0793743 -3 2 -1 
7367 6 0.370743 0.012466 0.108928 1 2 1 
5224 5 0.229857 0.987288 0.0779529 2 3 3 
6515 5 0.727565 0.0438495 0.127401 -5 3 -2 
5495 5 0.77051 0.0654639 0.129552 -4 -4 1 
6817 5 0.210478 0.0623552 0.0797075 -1 -1 1 
6562 6 0.339121 0.0765786 0.0905623 -1 -4 2 
8934 5 0.518466 0.0919734 0.0990105 1 -1 1 
7325 6 0.482368 0.129013 0.106686 1 5 0 
5972 5 0.86631 0.101144 0.129933 -1 0 0 
5045 5 0.159876 0.125888 0.104971 -3 -4 4 
5520 6 0.178991 0.163342 0.112914 -1 0 2 
8659 5 0.974067 0.141956 0.108328 -1 -1 0 
5610 6 0.802625 0.192823 0.0940422 -1 -4 0 
7150 6 0.728063 0.212954 0.071554 0 5 -2 
8360 6 0.329668 0.247069 0.0592634 1 1 0 
5622 6 0.623087 0.237087 0.118334 -3 -2 -3 
7841 6 0.0264968 0.258434 0.030542 3 -1 3 
7360 6 0.463318 0.248544 0.104615 6 3 -5 
6761 6 0.0541435 0.29317 0.103929 2 -4 2 
6748 6 0.127093 0.24651 0.105653 -2 3 -4 
8718 5 0.437559 0.26624 0.0706031 2 -3 1 
8309 6 0.124551 0.320728 0.101283 -4 6 3 
7884 6 0.161701 0.30475 0.0951667 0 1 -1 
6826 6 0.581483 0.305285 0.0933538 6 0 0 
7848 5 0.114655 0.288157 0.116254 4 -3 2 
6230 6 0.131708 0.316072 0.0724076 4 -4 1 
6408 6 0.253782 0.308683 0.0834502 0 0 -2 
7366 5 0.807167 0.347054 0.0988698 1 2 2 
5804 6 0.957073 0.31629 0.112593 -2 2 -1 
8750 6 0.0170408 0.304432 0.0958008 -6 -2 2 
8959 6 0.218777 0.330057 0.088274 2 0 6 
6965 6 0.273122 0.335338 0.114785 0 -6 1 
5271 5 0.852606 0.356774 0.114181 -2 -1 -4 
7780 5 0.40708 0.345378 0.100471 2 5 5 
5547 6 0.417119 0.374241 0.121569 -2 0 5 
6404 5 0.492053 0.384044 0.108539 2 2 -1 
7155 6 0.51903 0.414687 0.0945855 1 3 3 
7591 6 0.199142 0.372948 0.128043 6 -3 -2 
7351 6 0.513873 0.393098 0.15068 1 -3 -1 
8694 6 0.00870617 0.446463 0.138792 2 1 1 
8636 6 0.376895 0.440759 0.111136 -1 4 0 
8545 6 0.345001 0.467496 0.108598 0 -2 -3 
7407 5 0.158121 0.488669 0.0721236 -5 2 1 
6456 6 0.404804 0.460645 0.0807456 3 -2 2 
8745 6 0.440298 0.447733 0.0907445 1 -3 -1 
5824 5 0.639427 0.4615 0.093854 -6 1 0 
7046 6 0.0859575 0.483062 0.0906682 -6 3 2 
8709 6 0.881497 0.478601 0.107486 -4 -2 -2 
8500 6 0.921874 0.50465 0.10984 -3 -1 -2 
6077 6 0.2299 0.506934 0.0746123 -1 -1 -2 
6924 5 0.005465 0.49075 0.0842066 -3 -2 6 
8451 5 0.138879 0.56612 0.109419 -2 -1 4 
7799 6 0.504332 0.507671 0.103846 -1 -1 -3 
5874 6 0.130533 0.599488 0.0580837 -8 -1 -2 
7125 5 0.229351 0.556514 0.148641 -1 4 2 
6691 6 0.243677 0.602331 0.0703734 1 0 1 
5043 6 0.369023 0.68381 0.101858 0 2 1 
6582 6 0.567899 0.672675 0.0556111 -5 0 3 
8578 5 0.825264 0.684957 0.117467 0 -1 1 
6659 5 0.933662 0.706342 0.123214 2 0 5 
6833 5 0.246727 0.654367 0.0852077 5 0 -3 
8797 5 0.260478 0.72735 0.0946633 0 -1 0 
7786 5 0.699209 0.747014 0.0977567 -7 0 1 
7048 6 0.163528 0.75025 0.120871 -6 4 0 
5066 6 0.488013 0.77311 0.0695708 4 2 -1 
5128 5 0.735334 0.774407 0.0913811 3 2 2 
8744 5 0.383195 0.826793 0.141938 -6 -5 2 
8886 6 0.527481 0.753263 0.122298 3 1 -1 
8782 6 0.347236 0.809717 0.130821 -2 0 0 
5062 5 0.512601 0.780654 0.100584 2 1 -3 
8130 5 0.0242709 0.836293 0.108943 2 -1 -1 
6980 5 0.308678 0.837497 0.109437 0 4 2 
6693 5 0.623529 0.855585 0.0926838 2 -2 2 
7280 5 0.679209 0.870139 0.12475 2 3 -4 
7804 6 0.0573204 0.87352 0.0896629 -4 0 3 
8695 5 0.6852 0.851837 0.110062 -2 -1 0 
8626 5 0.029064 0.917686 0.113408 -1 -3 -3 
7096 6 0.947589 0.897593 0.104682 -6 1 1 
8013 6 0.403109 0.979697 0.0754177 2 1 -2 
7131 6 0.0896078 0.943068 0.0988801 4 0 1 
6530 6 0.226797 0.950922 0.108638 1 -5 -1 
5694 6 0.343599 0.952906 0.128348 0 1 1 
5733 6 0.876413 0.949353 0.0765726 1 -4 4 
8490 6 0.910859 0.928631 0.108791 5 0 0 
6611 5 0.0917049 0.976139 0.0951714 3 1 1 
8607 5 0.363282 0.00506397 0.146657 3 -5 -5 
6349 6 0.443242 0.0287946 0.12053 2 -2 5 
5275 6 0.678546 0.0281526 0.138153 -6 2 1 
5794 5 0.456344 0.988157 0.113068 2 5 -3 
5976 6 0.8344 0.0496076 0.0924979 5 1 5 
5191 5 0.590546 0.0824687 0.099803 -4 2 3 
7615 6 0.631377 0.0838457 0.140433 2 5 4 
8703 5 0.148737 0.0867262 0.156184 2 1 -2 
8976 6 0.655126 0.0724034 0.120028 3 0 1 
7242 5 0.638296 0.0714315 0.14073 2 -1 6 
6254 6 0.511064 0.084741 0.133807 0 2 4 
8277 5 0.761476 0.12743 0.118718 -1 -3 -3 
6613 6 0.0261123 0.165067 0.130952 -3 2 -2 
7446 5 0.114429 0.219029 0.144526 5 3 -1 
8870 6 0.786096 0.172284 0.123342 -4 2 0 
5397 5 0.906006 0.210733 0.128371 -6 4 -3 
6954 6 0.153312 0.205563 0.128857 1 -2 5 
7357 5 0.391013 0.1864 0.138534 3 2 1 
8874 6 0.253907 0.243444 0.120764 3 4 2 
6076 5 0.101894 0.241972 0.105097 -3 -2 -4 
8439 5 0.770971 0.277415 0.134131 4 2 1 
5568 6 0.258716 0.291499 0.116846 -1 0 3 
8761 6 0.26976 0.287202 0.107733 -1 2 3 
7440 5 0.304542 0.279224 0.0995528 -2 -3 -2 
8513 6 0.0126309 0.274362 0.145324 2 -3 -1 
7579 5 0.105279 0.322435 0.0973665 -5 -4 -7 
7885 6 0.370733 0.328288 0.137411 2 3 1 
6975 5 0.735635 0.309388 0.100638 -1 2 7 
6367 6 0.184209 0.37061 0.125722 1 1 -2 
5956 6 0.0809153 0.393853 0.109274 0 -5 -2 
5083 6 0.309438 0.412817 0.0995935 2 2 -1 
8109 6 0.370935 0.3782 0.106702 -1 0 3 
6183 6 0.585686 0.393374 0.124038 -1 -2 2 
8257 5 0.670928 0.403711 0.116625 0 -3 3 
6192 6 0.798627 0.388461 0.145622 1 3 -5 
5591 6 0.947441 0.398887 0.0971484 1 -4 4 
6594 6 0.307216 0.39426 0.111981 2 -1 4 
7433 6 0.492569 0.440292 0.115598 -3 -1 0 
8716 5 0.455931 0.469903 0.129092 -2 -1 3 
7274 5 0.50647 0.445411 0.133265 0 -2 1 
6399 6 0.479052 0.481567 0.127855 -6 3 -4 
8352 5 0.218065 0.489314 0.108991 2 -8 7 
7064 5 0.321748 0.540374 0.120157 1 -1 4 
8473 6 0.435234 0.541108 0.156959 2 4 2 
6567 6 0.808105 0.500802 0.128978 -2 0 1 
5159 5 0.317097 0.557623 0.0902012 1 -1 4 
7518 6 0.416799 0.525984 0.131596 -1 4 1 
6090 5 0.186858 0.57387 0.129416 3 -1 -3 
6151 6 0.971351 0.618446 0.127686 1 0 0 
8887 5 0.00782771 0.673614 0.161327 3 2 -1 
7986 6 0.129864 0.663891 0.142402 0 -4 5 
6951 6 0.869108 0.653476 0.11808 -2 4 7 
8662 6 0.510827 0.731208 0.158376 1 -3 -2 
5230 5 0.960539 0.725567 0.168251 -4 5 -5 
7383 6 0.185402 0.744112 0.146605 -1 1 -3 
8480 6 0.415618 0.754114 0.10525 -1 2 -4 
7639 6 0.585285 0.773012 0.110778 1 1 1 
8217 6 0.583281 0.762111 0.136139 -3 -1 -2 
5551 5 0.799537 0.796325 0.0728503 0 -1 1 
8670 6 0.475921 0.833356 0.117774 -1 3 3 
6992 5 0.591237 0.889153 0.0905231 4 -1 0 
7021 5 0.122308 0.890512 0.0934089 1 -9 5 
5707 6 0.317289 0.884918 0.109141 -4 1 2 
5612 5 0.612997 0.904471 0.119547 -2 0 5 
8728 6 0.0669395 0.925883 0.105633 3 -3 2 
6004 6 0.41469 0.934789 0.0974341 -5 -3 -3 
6214 5 0.0958586 0.92998 0.126501 1 1 -3 
7246 6 0.502091 0.94074 0.0890507 -4 1 -6 
5659 6 0.533059 0.986181 0.138215 5 -2 3 
5163 6 0.876687 0.975931 0.123209 -4 1 -1 
5407 6 0.982681 0.980984 0.125422 4 2 0 
7060 6 0.40251 0.983784 0.118454 1 1 3 
7089 6 0.479414 0.977742 0.132344 2 -2 4 
8002 6 0.769146 0.996145 0.16551 -4 2 -1 
7385 5 0.0495741 0.0739982 0.152172 1 7 -4 
8311 6 0.783184 0.0735187 0.127431 1 -4 0 
6310 5 0.873417 0.0432438 0.154844 1 -1 -1 
8038 5 0.958031 0.0808362 0.140156 -5 4 2 
6091 5 0.121688 0.0560901 0.0991783 3 -3 4 
5372 6 0.244109 0.113182 0.155759 -3 0 -1 
8732 6 0.257882 0.0824061 0.120613 -2 -2 0 
6446 5 0.0212303 0.121188 0.12676 5 -3 1 
5912 6 0.136765 0.131493 0.13058 -1 7 2 
6812 6 0.262297 0.171844 0.159752 -4 0 -2 
5222 5 0.400835 0.12587 0.140609 1 3 3 
8380 5 0.365744 0.188257 0.162304 -1 6 2 
6142 6 0.0894494 0.212105 0.159889 1 -3 0 
6783 6 0.201163 0.246883 0.155752 3 1 2 
6477 6 0.589604 0.254932 0.183276 -4 -2 -2 
5668 6 0.27246 0.256507 0.155384 -3 3 -1 
8817 5 0.410443 0.233011 0.148979 -2 0 2 
6497 6 0.287725 0.289663 0.153819 -2 3 -2 
6922 6 0.627956 0.294171 0.153528 -2 2 4 
5599 5 0.706528 0.254142 0.143103 0 -1 0 
5808 6 0.841275 0.289388 0.151682 2 1 -1 
7859 5 0.477186 0.311525 0.129393 3 0 4 
7597 6 0.543634 0.305783 0.174734 2 5 2 
8090 5 0.329503 0.30809 0.171896 -1 -2 0 
5250 6 0.359824 0.327168 0.10218 0 2 -3 
6534 6 0.397561 0.340423 0.156612 -2 1 -1 
6375 6 0.697044 0.328325 0.120145 0 1 -2 
5735 6 0.713441 0.308516 0.136044 2 0 -2 
6626 6 0.900816 0.355509 0.128647 1 1 2 
5670 6 0.887208 0.353373 0.169693 6 0 0 
5317 6 0.332535 0.372134 0.142003 1 4 1 
7928 5 0.608833 0.381596 0.14818 3 -10 1 
5073 6 0.836652 0.36865 0.165049 0 -3 2 
6047 6 0.949483 0.369924 0.139307 -6 0 -5 
6186 5 0.239739 0.407959 0.163991 0 -4 0 
6782 6 0.100718 0.391543 0.148799 2 0 3 
7994 5 0.0809808 0.4202 0.150513 -4 4 -1 
6054 5 0.661372 0.429786 0.162435 2 3 4 
6795 6 0.878782 0.465983 0.18528 -3 2 -1 
8906 5 0.266304 0.480236 0.147188 -1 2 0 
6008 6 0.87264 0.465174 0.175733 -3 -1 -3 
5518 5 0.0480412 0.533685 0.135793 -1 4 2 
5716 6 0.46732 0.514613 0.128296 -2 0 3 
6563 5 0.803048 0.516344 0.159458 1 -6 -3 
8057 5 0.885558 0.493148 0.144271 1 1 3 
5483 6 0.151885 0.563806 0.164083 2 5 5 
7735 5 0.846167 0.57125 0.139244 -3 2 -3 
5441 6 0.494276 0.577476 0.132927 1 3 3 
7110 5 0.106792 0.562724 0.19029 -2 3 4 
8180 5 0.162963 0.565246 0.160208 0 -2 1 
7050 5 0.0682642 0.691156 0.136701 -1 5 0 
8359 5 0.267214 0.648358 0.13914 -2 1 -1 
5285 6 0.303102 0.646706 0.139587 1 0 -1 
8930 6 0.423962 0.656569 0.198585 -7 0 -1 
5534 6 0.566011 0.667783 0.144937 0 2 -1 
7174 6 0.302644 0.720596 0.156531 3 -1 -1 
5576 5 0.838136 0.709889 0.119635 -4 2 0 
7344 5 0.454204 0.710266 0.142861 -2 -1 4 
7205 6 0.898958 0.692783 0.127381 -2 -5 3 
5963 6 0.0584109 0.696799 0.15556 -1 -8 1 
5691 5 0.822675 0.77794 0.169007 0 2 5 
7811 6 0.101864 0.785817 0.150059 -2 3 -2 
8532 5 0.879032 0.768144 0.145861 0 0 1 
7473 5 0.64113 0.856555 0.135185 -3 3 0 
5172 6 0.78287 0.800309 0.176354 2 -4 5 
5969 6 1.0007 0.812928 0.154675 -5 -1 -3 
5103 5 0.84615 0.822958 0.136464 -3 2 -5 
5030 5 0.481299 0.863929 0.142151 5 -1 3 
5420 6 0.096024 0.875041 0.147351 -4 2 -1 
6334 5 0.396579 0.874129 0.140331 1 -1 -1 
5102 6 0.000790561 0.901585 0.137035 -1 0 1 
6137 6 0.986598 0.900137 0.137176 -3 -1 3 
6718 6 0.794772 0.911131 0.1657 -1 -2 2 
6940 5 0.364726 0.955956 0.17721 0 -3 -1 
6239 6 0.93871 0.977164 0.105879 -2 0 -1 
5604 6 0.0668065 0.00549181 0.156115 7 1 -4 
5336 5 0.107799 0.992138 0.161044 1 1 -5 
6288 6 0.197557 0.00523345 0.145328 1 -3 1 
6809 6 0.466778 0.958181 0.159097 -1 -4 3 
6243 5 0.558586 0.00292581 0.205232 0 -8 3 
7002 6 0.795012 0.951788 0.143156 0 -2 -3 
5866 6 0.109247 0.0398758 0.169241 4 2 -1 
7901 6 0.0214503 0.0622123 0.195198 4 0 -1 
7100 6 0.279313 0.00715913 0.128537 -2 0 -2 
6919 6 0.288182 0.0347409 0.159967 1 2 -3 
8304 6 0.366548 0.0335325 0.139512 -1 1 -2 
5548 6 0.992641 0.00339344 0.155258 0 2 -4 
7355 6 0.247018 0.0769938 0.177518 -1 -1 -1 
6796 6 0.586995 0.0510596 0.194432 -4 2 -1 
8674 6 0.41539 0.0549979 0.183042 -2 0 1 
7715 5 0.647526 0.127691 0.148199 5 1 5 
6901 5 0.698765 0.0946946 0.163656 -1 -4 4 
8427 6 0.823574 0.0581758 0.155126 5 2 -5 
8355 6 0.986241 0.092103 0.154887 2 -6 0 
6558 5 0.480276 0.105129 0.174329 0 -2 6 
6180 6 0.77639 0.133566 0.169955 -2 3 -1 
6953 6 0.913597 0.101114 0.179007 1 -2 -1 
8042 5 0.801682 0.126352 0.187584 0 0 -4 
8831 5 0.0720067 0.147356 0.159473 2 0 4 
7521 5 0.370135 0.14153 0.162775 1 4 -2 
6991 5 0.851273 0.169198 0.136962 2 -1 0 
8085 5 0.475648 0.17052 0.193511 -3 -2 -2 
7849 5 0.922242 0.183806 0.22152 -5 0 0 
6609 6 0.000506218 0.175331 0.186404 -2 1 -3 
7507 6 0.0810097 0.232309 0.183311 3 -1 -3 
8491 6 0.965701 0.216445 0.178119 -3 1 2 
8733 6 0.383294 0.199237 0.145839 -3 -1 0 
5448 5 0.0752443 0.253867 0.167653 2 -3 2 
6914 5 0.0988048 0.282955 0.180912 -2 -4 -2 
7141 6 0.867119 0.213108 0.185823 -2 3 -2 
6960 5 0.617562 0.288092 0.176793 -4 1 0 
5883 6 0.862738 0.286041 0.147188 -2 -1 3 
8429 5 0.482794 0.289115 0.178405 -1 -3 1 
8036 5 0.396418 0.307081 0.156631 -2 -3 5 
5950 5 0.495069 0.369018 0.155446 2 -7 -2 
5328 6 0.555113 0.369507 0.164394 5 1 4 
6097 6 0.384992 0.413296 0.173858 -1 1 -3 
7568 6 0.562732 0.445617 0.187553 4 0 -1 
6203 5 0.872426 0.425974 0.205565 0 -1 3 
5807 6 0.0629297 0.434794 0.175474 3 -3 1 
7281 5 0.066856 0.460787 0.163368 1 7 4 
7477 5 0.574182 0.50806 0.134578 1 -5 -1 
6971 5 0.692961 0.517126 0.15189 -6 -3 0 
5628 5 0.348095 0.595471 0.12256 0 -5 4 
5860 6 0.544898 0.553954 0.134332 -1 6 -1 
6126 5 0.107187 0.604742 0.133771 1 -1 0 
7670 6 0.148204 0.603732 0.198524 -4 -3 1 
7637 5 0.352883 0.586967 0.175784 5 -2 1 
7783 5 0.354494 0.611709 0.199607 4 3 4 
8408 6 0.382262 0.63281 0.180688 3 -2 1 
8646 6 0.585179 0.68832 0.229985 -1 -5 -3 
7586 6 0.558684 0.630777 0.14277 1 -1 -2 
6811 6 0.62026 0.658472 0.190717 2 -6 1 
5070 5 0.718419 0.638367 0.201939 0 -1 4 
5446 6 0.996868 0.649874 0.170566 -4 -1 2 
5168 6 0.231893 0.700204 0.185331 2 0 3 
8832 6 0.359779 0.689871 0.164029 -2 5 -1 
7530 5 0.417998 0.682884 0.182564 3 3 6 
7439 5 0.513738 0.725493 0.172754 1 1 0 
5390 6 0.907407 0.7262 0.168809 3 -3 -4 
8692 6 0.0810207 0.774541 0.208774 5 -1 -5 
8098 5 0.133299 0.735535 0.141095 1 -2 -2 
7939 5 0.744393 0.761361 0.168808 4 -1 -3 
7311 6 0.742878 0.755565 0.183837 0 1 -2 
5116 6 0.491659 0.786247 0.189829 2 1 -4 
8398 6 0.567538 0.751038 0.158675 3 -1 3 
6234 6 0.955338 0.764162 0.14533 1 1 -1 
8505 5 0.050852 0.766182 0.179391 1 3 5 
7017 6 0.6428 0.812326 0.137104 0 -1 1 
8454 6 0.436289 0.819324 0.165257 2 1 -2 
8539 6 0.534618 0.82135 0.104906 -3 3 -7 
6028 6 0.747016 0.804884 0.19091 -2 0 3 
7665 6 0.306396 0.831983 0.15507 5 -5 -4 
6461 5 0.380689 0.844973 0.159993 -5 0 4 
8606 6 0.841924 0.866182 0.129775 0 -2 4 
7467 6 0.0252693 0.887764 0.187499 -3 1 0 
6221 5 0.25556 0.854282 0.157561 2 -4 2 
6645 5 0.693225 0.899525 0.145975 -1 2 1 
5029 5 0.144217 0.946211 0.152386 -1 -1 1 
6188 6 0.886343 0.954027 0.186116 1 -4 3 
5699 6 0.254384 0.98202 0.150747 -3 -1 -5 
8096 6 0.52836 0.00738358 0.166795 0 0 2 
5418 6 0.598448 0.953747 0.166956 2 -4 0 
7893 6 0.455407 0.013447 0.177163 -1 -1 -5 
5835 6 0.159433 0.0114746 0.181175 3 5 -1 
7014 6 0.348664 0.00311742 0.18261 4 -4 0 
5194 5 0.447875 0.987395 0.20483 -3 -5 -1 
7498 5 0.0914566 0.0294294 0.199937 0 -1 -1 
8557 6 0.466229 0.0237218 0.193103 2 -2 3 
6871 6 0.815502 0.0547687 0.19147 6 0 -6 
8031 5 0.073255 0.0748306 0.19073 1 1 -3 
5740 5 0.522354 0.115845 0.211601 -2 4 1 
8075 6 0.718484 0.133661 0.209922 0 4 -2 
5376 6 0.846588 0.103973 0.200325 -1 3 -5 
8321 5 0.608101 0.126963 0.192231 -1 -3 0 
7890 5 0.279027 0.163929 0.192854 0 -4 4 
5364 5 0.973693 0.193363 0.227809 0 2 -4 
6552 5 0.756552 0.199136 0.1861 -3 2 -4 
8120 5 0.493191 0.240223 0.182727 -2 0 2 
8236 5 0.674712 0.200795 0.169771 2 3 3 
8726 6 0.677414 0.244424 0.182363 2 4 -4 
8526 6 0.944634 0.218319 0.168278 3 3 -4 
7188 5 0.987983 0.221873 0.173259 2 1 -1 
8899 6 0.100682 0.248654 0.185168 1 2 0 
6436 6 0.532304 0.231651 0.155276 0 -2 -5 
5300 6 0.979615 0.207829 0.153687 -1 -4 5 
5265 5 0.951263 0.224359 0.187547 -6 0 1 
8059 6 0.648212 0.30667 0.215138 2 -1 2 
6968 5 0.954165 0.239623 0.193236 2 1 5 
7887 5 0.570643 0.29043 0.196535 2 -3 0 
6872 5 0.755723 0.322249 0.202612 0 -4 0 
8766 6 0.773916 0.287143 0.211245 1 3 -1 
7831 5 0.90449 0.331525 0.254243 -2 -1 -7 
5302 5 0.930747 0.257789 0.154363 -3 -3 -3 
5847 5 0.857335 0.355106 0.193147 1 -2 -3 
7072 5 0.945311 0.360925 0.197026 3 2 4 
8651 6 0.181241 0.391182 0.17626 0 4 -4 
6014 6 0.853174 0.399985 0.15815 3 1 4 
8895 5 0.97339 0.416687 0.201537 1 0 1 
6886 5 0.305417 0.418342 0.190705 -1 -4 0 
6161 6 0.114438 0.477111 0.16851 2 3 -1 
8280 5 0.717145 0.437695 0.193891 0 1 -1 
6353 6 0.986798 0.43633 0.235475 -6 2 -3 
7573 5 0.227841 0.478724 0.215123 4 -4 -5 
6779 6 0.361521 0.462561 0.209101 -1 0 0 