ITEM: TIMESTEP
20000000
ITEM: NUMBER OF ATOMS
9000
ITEM: BOX BOUNDS pp pp pp
-75 75
-75 75
-75 75
ITEM: ATOMS id type xs ys zs ix iy iz 
6644 5 0.450321 0.990134 0.979726 0 -2 -3 
8171 5 0.884828 0.0436914 0.0372324 -2 1 -4 
8867 5 0.716077 0.0515742 0.0240733 1 -2 3 
6242 6 0.922207 0.0868948 0.997305 2 2 -1 
6961 6 0.990896 0.127562 0.00686038 2 1 1 
7178 6 0.183036 0.0912922 0.996548 1 4 -1 
5704 5 0.233324 0.0949594 0.99823 3 -4 -4 
6272 6 0.319457 0.174793 0.0135039 3 1 4 
7340 6 0.778249 0.153077 0.00745777 0 5 -1 
7939 5 0.942744 0.0937337 0.03713 -2 0 5 
5615 5 0.322169 0.162876 0.0482625 -5 -1 -6 
5286 6 0.665553 0.153442 0.0075004 2 1 5 
6025 5 0.880521 0.143471 0.0115638 2 0 -1 
6514 6 0.273603 0.202626 0.983394 1 1 -7 
6632 5 0.330242 0.173584 0.992039 3 0 -1 
7995 5 0.48959 0.141164 0.00475083 0 2 1 
6359 5 0.0958014 0.159258 0.0269045 1 -3 4 
7944 6 0.590347 0.217111 1.25656e-05 1 1 2 
7904 5 0.870398 0.206857 0.0423359 -8 1 2 
5019 5 0.666687 0.258963 0.0433131 -4 4 8 
7911 5 0.373965 0.347026 0.995881 -5 -5 8 
7941 5 0.3901 0.292252 0.0110805 0 -3 3 
5826 6 0.82072 0.317437 0.0286513 -2 -4 1 
8846 6 0.823006 0.332019 0.0312158 2 3 2 
7507 6 0.907021 0.326784 0.993245 2 0 1 
8450 6 0.13572 0.432095 0.984444 4 3 -2 
8874 6 0.189214 0.422965 0.98696 1 -3 -1 
5617 6 0.281979 0.399189 0.00727365 1 1 2 
8770 6 0.455918 0.380426 0.0114476 2 0 4 
8866 5 0.715866 0.416412 0.00393023 -4 1 2 
6670 6 0.877481 0.403217 0.980095 -3 5 3 
7441 6 0.737878 0.415204 0.0316057 2 0 -3 
7565 6 0.747584 0.446422 0.0303479 3 -4 5 
6170 6 0.873907 0.44515 0.979913 0 -1 -4 
8432 6 0.965395 0.480831 0.024135 -7 4 1 
7811 5 0.89405 0.549315 0.0487895 0 6 1 
7615 6 0.379424 0.573942 0.0281789 -2 2 -2 
6456 5 0.542707 0.566792 0.0027846 -3 1 -5 
7858 6 0.782813 0.573692 0.0166362 -2 4 -2 
5365 5 0.917542 0.573217 0.966603 1 -2 -1 
6296 6 0.652782 0.583691 0.990532 -5 2 -1 
6467 5 0.782509 0.612431 0.0397387 2 -2 0 
6914 6 0.991668 0.570046 0.0159145 -1 4 1 
7723 5 0.522582 0.606591 0.0348893 1 1 2 
7252 6 0.928469 0.606477 0.993847 0 -1 1 
5092 5 0.451534 0.684724 0.982583 4 -6 -2 
8833 6 0.635515 0.637893 0.997364 5 1 -2 
7627 6 0.849704 0.661434 0.998016 -1 -3 -2 
5378 6 0.387991 0.669254 0.0194874 -1 1 -1 
7472 5 0.372394 0.684104 0.989235 0 -1 -2 
7527 6 0.357923 0.717525 0.0020897 -3 1 -1 
6859 6 0.772085 0.684919 0.998317 2 7 3 
7555 6 0.852211 0.657953 0.982284 4 -3 1 
8357 6 0.962218 0.73717 0.0243263 1 -2 4 
6919 6 0.635669 0.71179 0.986072 -6 2 0 
8944 5 0.824771 0.777126 0.0224188 5 2 -2 
7591 6 0.946319 0.744326 0.0425009 -3 -1 -3 
7311 5 0.106571 0.755642 0.0329034 -2 -5 2 
5163 6 0.106572 0.739572 0.00463653 -1 3 3 
5575 6 0.323456 0.753563 0.0241393 1 -2 -1 
8814 6 0.579412 0.804779 0.991446 0 -4 2 
7921 5 0.618566 0.737586 0.0204316 -8 4 3 
6932 6 0.333008 0.828549 0.997636 -3 2 -2 
6056 6 0.604057 0.784864 0.0572812 -1 1 4 
8019 5 0.261616 0.803143 0.0344085 1 0 -3 
8330 5 0.280573 0.818393 0.0239272 2 5 -1 
6351 5 0.344348 0.784445 0.0142701 2 4 2 
7755 6 0.127612 0.812771 0.0110933 2 -4 -5 
6530 6 0.170757 0.788278 0.0189325 -4 -4 2 
6082 5 0.236517 0.854647 1.00305 0 -2 -2 
7594 5 0.750057 0.821754 0.0270174 1 1 -3 
8021 6 0.825213 0.835157 0.014536 5 0 2 
8816 6 0.589768 0.849797 0.974252 1 0 -4 
6597 5 0.247624 0.96352 0.00997634 -3 2 2 
7585 5 0.326995 0.950876 0.0180942 2 -2 1 
8084 6 0.23567 0.973602 0.0169226 3 -1 -2 
5445 6 0.595 0.955453 0.0213359 -1 -1 4 
8075 5 0.686016 0.95428 0.00260552 0 5 2 
7430 6 0.246036 0.95176 0.017319 2 -2 0 
5705 6 0.890455 0.983944 0.978707 0 -1 -1 
6617 5 0.712665 0.0236708 0.0246659 -1 2 1 
5613 6 0.856331 0.0181634 0.0729545 -1 0 5 
8905 5 -0.00169996 0.043393 0.0789502 -3 1 0 
8424 6 0.310952 0.0440163 0.0469014 0 -2 1 
5882 5 0.841177 0.0332114 0.999849 0 -4 0 
7863 5 0.990418 0.0814466 0.0523449 3 -2 -1 
5375 5 0.403432 0.0946119 0.0106745 -6 0 -2 
5434 6 0.279445 0.106342 0.0334726 -3 -5 2 
8125 6 0.327228 0.108137 0.0297411 2 2 6 
5197 6 0.111255 0.123039 0.0528572 -2 3 -3 
6454 5 0.383411 0.130613 0.0384222 -2 3 3 
5398 5 0.860541 0.13931 0.0305502 -1 0 -2 
6011 5 0.892655 0.15942 0.0711149 -1 2 7 
7676 6 0.414019 0.15952 0.0576434 4 1 2 
5698 5 0.0703193 0.200554 0.0464236 1 1 -4 
5793 6 0.261033 0.188845 0.0508546 2 -1 2 
5141 5 0.558496 0.263377 0.068515 -3 -3 0 
8591 6 0.791119 0.204319 0.0675667 4 -1 0 
7112 6 0.857134 0.233226 0.0387157 0 -1 1 
7462 6 0.837747 0.230463 0.0344069 0 0 4 
6783 5 0.469641 0.29795 0.0314503 -2 1 -1 
6428 6 0.70907 0.249059 0.0332576 -1 -1 1 
6002 5 0.350261 0.217742 0.0108887 3 -6 3 
5933 6 0.488167 0.285555 0.0338428 0 -4 2 
7836 6 0.601383 0.321312 0.0531813 1 4 0 
5016 5 0.769651 0.308825 0.057828 -7 5 0 
8494 5 0.813251 0.400398 0.0195339 1 0 -1 
6651 6 0.0885425 0.360157 0.0514068 -1 -5 1 
6434 6 0.319734 0.399993 0.02636 0 6 -1 
5325 6 0.79965 0.384441 0.0534621 -1 1 3 
7025 5 0.92483 0.397899 0.00279914 -2 3 -3 
8820 5 0.752574 0.474825 0.0409018 1 2 5 
7588 5 0.85583 0.493627 0.975633 -1 1 -1 
7546 5 0.229799 0.495777 0.0389042 3 -1 4 
6850 5 0.43263 0.505891 0.0415245 -3 -3 0 
7089 6 0.525341 0.521353 0.0896137 -4 -2 2 
5114 6 0.799093 0.547552 0.0265874 4 -2 -1 
5402 6 0.86629 0.519214 0.0764817 4 -1 1 
8518 6 0.751945 0.526244 0.0399979 -2 2 2 
8447 6 0.0745345 0.528245 0.0311166 3 2 -3 
5666 6 0.145169 0.55495 0.0230784 5 -2 1 
8133 5 0.352635 0.547214 0.046443 -2 -2 -6 
8234 6 0.512129 0.563322 0.0416106 -1 -3 3 
7040 6 0.172868 0.576145 0.0238008 -3 0 -1 
6049 6 0.274726 0.579498 0.0520418 3 -4 0 
5300 6 0.00269945 0.560164 0.0355177 1 4 0 
6695 6 0.423316 0.62726 0.0535745 4 3 -3 
6990 6 0.351146 0.661218 0.999406 -3 0 3 
5508 6 0.222425 0.694167 0.0410962 0 -1 0 
8653 6 0.521988 0.675141 0.0484651 -1 -4 0 
6431 5 0.728475 0.642279 0.972858 -2 -6 -2 
6120 6 0.064874 0.698245 0.0221227 -4 1 2 
8932 6 0.634452 0.706295 0.0508311 -3 2 0 
8884 5 0.264949 0.730126 0.036464 -2 2 6 
8475 5 0.700548 0.696364 0.0389158 1 0 1 
7008 5 0.872176 0.713688 0.0459387 0 3 -1 
8644 6 0.297793 0.727801 0.0413813 5 0 -3 
5444 5 0.802246 0.744983 0.0434103 0 2 1 
5003 6 0.910649 0.715247 0.0491756 2 -2 7 
8337 5 0.562303 0.723224 0.00494703 -1 -2 4 
6468 5 0.411899 0.791993 0.0575617 -6 2 0 
5009 5 0.519743 0.740741 0.0486991 0 1 -1 
7141 5 0.00541303 0.800111 0.0711596 0 -2 -3 
6641 6 0.110976 0.839541 0.0124454 0 5 4 
7022 5 0.232349 0.825629 0.107434 3 0 -1 
8483 6 0.5859 0.867331 0.0226549 3 -4 -2 
5992 6 0.719855 0.840157 0.0567025 2 0 -3 
5317 6 0.969988 0.866682 0.0202996 0 -3 -2 
5539 6 0.296219 0.887661 0.0536476 1 0 1 
6752 5 0.471979 0.906812 0.0188787 -1 3 1 
7662 5 0.568778 0.91999 0.0675442 -5 0 -1 
8180 5 0.643525 0.918632 0.0747209 -3 -2 2 
7047 5 0.242927 0.9685 0.0650006 0 -1 1 
6923 6 0.356013 0.928605 0.0475944 0 3 -4 
8641 5 0.426408 0.965416 0.0293458 0 3 -4 
6868 5 0.512848 0.970708 0.0560237 -4 -2 -3 
6539 5 0.601843 0.89367 0.0429734 -3 5 -1 
5661 6 0.141561 0.962379 0.0490592 3 5 -3 
8211 6 0.199156 0.925923 0.0422605 -3 0 -1 
7786 6 0.839694 0.955667 0.0360023 1 -1 -4 
6243 5 0.0473779 0.973782 0.0362466 -2 8 0 
8480 5 0.580307 0.0533807 0.0585662 0 -1 2 
8241 5 0.0956956 0.0677326 0.0280618 -3 6 -1 
8627 6 0.309033 0.0913742 0.0175823 -3 3 3 
7803 6 0.895057 0.0225816 0.0467591 -6 -1 5 
7756 6 0.881288 0.0402786 0.0685286 0 5 1 
8321 5 0.419978 0.0856951 0.0542416 7 -3 -3 
6134 6 0.700002 0.0813934 0.0513434 0 5 9 
8090 6 0.84661 0.0646969 0.0666887 0 1 -1 
7101 6 0.225943 0.0911903 0.0486698 -2 1 2 
7182 5 0.648742 0.154285 0.0522566 -1 3 0 
5585 6 0.971062 0.125744 0.0143527 -2 1 -2 
6418 6 0.280665 0.126208 0.0595851 6 -2 2 
7888 6 0.815602 0.0957602 0.0464455 -3 -1 -8 
5368 5 0.501065 0.136469 0.0204069 -4 -6 1 
5338 6 0.477192 0.191207 0.0506936 1 -2 -4 
5532 6 0.567934 0.214566 0.0718512 -2 1 -4 
6167 5 0.179054 0.176327 0.0339184 3 1 -1 
6562 6 0.15997 0.243731 0.0525955 3 -5 -1 
6377 5 0.709412 0.218585 0.0957519 -4 2 0 
7102 6 0.9961 0.214783 0.0514013 -2 2 1 
8603 5 0.357443 0.223386 0.0684756 2 2 1 
8959 6 0.479666 0.188035 0.0757476 0 0 2 
5079 6 0.422816 0.255508 0.0523134 2 3 -1 
7711 6 0.028327 0.3036 0.104487 -1 -1 -3 
7743 6 0.222581 0.226511 0.0836321 1 -1 1 
5760 5 0.501163 0.299371 0.0680584 -1 0 -4 
8864 6 0.749296 0.294242 0.0560662 -2 3 3 
8409 6 0.914726 0.28695 0.0521069 -4 4 3 
6672 6 0.964651 0.30806 0.0708176 -1 -2 3 
6600 6 0.620238 0.346529 0.0431638 -2 -3 2 
5275 5 0.796295 0.347798 0.0571979 -1 0 -4 
7345 5 0.306747 0.328175 0.0913706 -2 2 3 
6048 6 0.0797116 0.328509 0.0214009 5 3 1 
6983 6 0.209007 0.375491 0.0863394 0 -4 5 
8886 6 0.711062 0.336646 0.0566226 -2 2 0 
6818 6 0.0068102 0.368269 0.0223565 0 -4 0 
7155 6 0.0112407 0.426033 0.060009 0 2 0 
5347 6 0.109838 0.407559 0.0585754 3 1 -1 
7119 6 0.190518 0.391934 0.0509552 0 5 -4 
6513 6 0.328138 0.408935 0.0241499 4 0 -3 
5341 5 0.797992 0.418684 0.0204101 2 2 4 
8043 6 0.975994 0.429075 0.0375503 0 -6 -2 
5170 6 0.103673 0.420549 0.0732288 2 -4 3 
7475 6 0.946316 0.466186 0.0561663 1 1 3 
6805 5 0.0552988 0.487092 0.051497 -3 -8 2 
7126 5 0.046275 0.420166 0.0605885 6 -1 -2 
5980 5 0.826023 0.452708 0.0559209 -7 2 -5 
7289 6 0.315473 0.448477 0.0325541 -3 4 -7 
8173 6 0.35642 0.504277 0.0214353 3 1 -1 
7595 6 0.538348 0.403742 0.0330448 -1 3 4 
7216 6 0.600464 0.47277 0.0289954 0 3 2 
6440 5 0.640548 0.481304 0.0732171 -1 5 3 
8676 5 0.0392737 0.518115 0.0133211 4 2 -1 
8082 5 0.193055 0.477542 0.0705848 2 -5 -1 
7606 6 0.551949 0.511057 0.063249 -3 0 5 
5238 6 0.938096 0.53593 0.05309 -2 -2 1 
6687 6 0.276531 0.539587 0.0806455 0 0 2 
8611 5 0.07588 0.522276 0.0626352 -3 -3 3 
5789 6 0.909673 0.581474 0.0276267 0 -1 -2 
5045 5 0.505988 0.606187 0.0456029 1 -3 2 
6729 6 0.0775928 0.63551 0.0830763 -1 -3 -2 
6452 5 0.164877 0.583617 0.102474 5 2 0 
5448 6 0.145756 0.634958 0.0509764 3 -5 4 
7414 6 0.0950423 0.677509 0.0698386 -1 4 0 
7416 6 0.790375 0.686492 0.0716767 -2 -5 6 
5394 6 0.953242 0.668265 0.0771549 1 0 0 
7186 5 0.371982 0.71861 0.0109405 2 -5 3 
5035 6 0.900328 0.723339 0.0313294 2 3 2 
5147 6 -0.00172631 0.747699 0.0544996 3 -1 -3 
6483 5 0.3204 0.762053 0.0235082 0 4 -1 
6340 6 0.695131 0.769822 0.0711444 -1 7 0 
6583 6 0.700995 0.769209 0.0574845 1 -2 2 
8745 6 0.721035 0.734003 0.0474753 7 -2 2 
5500 6 0.421536 0.728146 0.0607058 2 -5 2 
5244 5 0.7648 0.75581 0.0702487 1 0 6 
8732 6 0.301024 0.809197 0.0646469 0 -1 3 
8262 5 0.476129 0.829132 0.0673574 1 -1 1 
6307 5 0.869412 0.819458 0.042537 -2 -3 2 
8285 5 0.110188 0.830596 0.0707481 -2 0 2 
8560 5 0.327794 0.796353 0.0580434 1 -5 3 
6887 5 0.327944 0.836935 0.0663817 3 -3 5 
6527 5 0.722918 0.867672 0.0208856 -4 -5 0 
7683 5 0.550705 0.863101 0.0369607 4 -1 6 
7149 6 0.570846 0.836371 0.0702672 1 3 0 
6764 5 0.956634 0.904412 0.057801 -1 3 1 
7954 5 0.595821 0.909328 0.0717881 1 -5 1 
8106 6 0.834678 0.865456 0.0314119 3 2 0 
8997 5 0.577276 0.927225 0.0500739 -4 -3 1 
7129 6 0.763982 0.93681 0.0640143 -1 -8 5 
6686 6 0.31317 0.939262 0.0561095 -2 0 3 
7376 6 0.468764 0.949701 0.0725058 3 -4 0 
5506 5 0.705782 0.959412 0.0214171 -3 6 -1 
6704 5 0.735928 0.945706 0.109599 -5 0 4 
8915 6 0.799355 0.94902 0.0527329 -5 -5 -2 
5922 6 0.855472 0.927285 0.0611955 0 6 1 
5499 6 0.858403 0.947856 0.0752917 1 1 2 
6978 6 0.950956 0.949011 0.0759482 -5 3 1 
5437 5 0.828961 0.978622 0.0561597 -2 1 -3 
8860 5 0.247009 0.000449118 0.0455432 1 -2 4 
8172 6 0.542469 0.975854 0.0638935 0 3 1 
6045 5 0.119384 0.044596 0.0983314 -3 1 -6 
8159 6 0.284791 0.0113218 0.0909495 0 0 1 
6216 5 0.321916 0.0297483 0.1114 3 -1 -2 
8651 5 0.556194 0.0249249 0.11335 -2 4 2 
8723 6 0.721775 0.0645333 0.0522114 4 5 2 
5505 6 0.828935 0.0033548 0.0810932 -3 4 5 
7192 6 0.000552979 0.0322527 0.0855213 0 -1 3 
5279 6 0.266522 0.0590776 0.108658 4 -3 4 
8214 6 0.28402 0.00215347 0.0598576 0 0 -8 
5313 5 0.535572 0.040378 0.0736696 1 2 3 
6489 5 0.580316 0.0225382 0.104866 4 0 -1 
7418 5 0.887792 0.0313032 0.107926 0 -4 -6 
7982 5 0.448678 0.0408902 0.0767855 7 2 -3 
7367 6 0.504637 0.0548683 0.0712604 0 3 2 
7172 6 0.228528 0.0701045 0.0697121 1 0 -2 
8252 5 0.119799 0.0971932 0.0706071 -8 -3 -2 
5486 6 0.381065 0.0827204 0.121124 -2 5 -3 
5711 5 0.443972 0.0990918 0.0833274 2 -2 -2 
5030 6 0.650839 0.104789 0.0999256 5 5 -4 
7229 6 0.334147 0.119902 0.0726853 0 3 2 
7612 6 0.835524 0.131823 0.091858 -1 -2 -1 
6834 6 0.859722 0.162329 0.104324 0 0 1 
6000 6 0.887744 0.122482 0.0500195 -5 0 1 
6813 5 0.949225 0.11137 0.0950974 4 2 0 
8762 5 0.939169 0.20135 0.0992266 -4 -6 2 
7994 6 0.256971 0.204417 0.0478164 5 -1 -5 
6806 5 0.311317 0.19625 0.0283502 3 3 4 
8528 6 0.479637 0.197386 0.0773719 4 -1 3 
6312 6 0.455346 0.222494 0.107041 -2 -4 3 
5254 5 0.539141 0.173657 0.0603865 -1 -1 -2 
8838 5 0.758298 0.213656 0.102959 -4 2 -5 
5330 6 0.569517 0.237466 0.0640979 -3 3 4 
7046 6 0.383032 0.287819 0.13502 2 2 4 
6432 6 0.384725 0.291847 0.103609 0 -1 2 
8531 5 0.816181 0.329302 0.0809216 1 3 4 
8355 6 0.0372654 0.344936 0.115284 3 0 -3 
5657 6 0.344485 0.353455 0.120464 -1 0 -1 
8350 5 0.39955 0.310686 0.0848831 -1 -1 1 
8259 5 0.528394 0.38443 0.0816657 -4 -1 1 
7499 6 0.737464 0.334912 0.03443 1 0 -2 
8007 6 0.802739 0.345132 0.0939198 4 0 -3 
6689 6 0.2222 0.368213 0.0817478 6 -5 -1 
6992 6 0.898222 0.391546 0.102097 -1 -3 0 
8341 5 0.929822 0.378892 0.08282 -3 -2 -6 
5892 5 0.0677689 0.424612 0.068373 -8 -1 -3 
7284 6 0.344048 0.432575 0.0971143 2 3 2 
8278 5 0.87362 0.427223 0.0608021 -2 -2 3 
5609 6 0.944529 0.40748 0.100223 0 -1 -3 
7227 6 0.165863 0.446387 0.0491833 1 0 1 
5224 6 0.887179 0.469752 0.0484462 -2 -1 -5 
6541 6 0.0516463 0.458222 0.081645 2 1 1 
8487 6 0.958196 0.508038 0.078731 2 1 5 
7631 5 0.566684 0.500894 0.084296 -3 -2 6 
6317 6 0.564001 0.492588 0.100555 -5 1 -2 
5788 6 0.909522 0.513074 0.0897933 0 -6 -2 
7074 6 0.151384 0.532424 0.0549776 -2 2 4 
8300 6 0.091287 0.546253 0.0806548 1 3 -4 
5382 6 0.140919 0.571815 0.077945 -1 -2 -1 
5879 5 0.530504 0.514435 0.0687076 2 2 1 
7558 5 0.391423 0.603133 0.0919647 1 1 4 
5278 6 0.693855 0.607635 0.0678848 0 2 -2 
8642 5 0.751839 0.569976 0.0346389 0 -1 1 
5307 5 0.880171 0.563277 0.064483 0 -2 1 
5603 6 0.469529 0.596636 0.0823952 -4 2 3 
5654 5 0.780091 0.629708 0.0811045 -2 -2 0 
6037 6 0.954707 0.631397 0.100699 2 1 0 
6511 6 0.00935985 0.693333 0.0801768 0 4 3 
8773 5 0.385285 0.690908 0.0746531 -3 -3 3 
7487 5 0.803734 0.696698 0.05604 -4 2 -2 
7387 6 0.354261 0.715586 0.126743 0 1 -1 
8204 5 0.997465 0.726925 0.0957136 2 0 4 
8054 5 0.0317364 0.788705 0.0749875 5 0 8 
8847 6 0.0314097 0.789525 0.0864312 2 3 2 
8907 6 0.773978 0.803246 0.0709366 -1 6 2 
5308 6 0.512905 0.837551 0.0457478 -2 2 -1 
5586 5 0.654669 0.855431 0.0611437 2 -6 4 
6151 5 0.151393 0.888232 0.0803124 -3 3 2 
6237 5 0.421397 0.920825 0.0862453 5 -3 5 
7821 5 0.906845 0.935848 0.0516197 0 -6 4 
5225 6 0.427562 0.93072 0.0651456 -1 3 -3 
6462 5 0.44611 0.942922 0.073122 3 2 3 
8060 6 0.978187 0.921369 0.110831 -4 0 -2 
7058 6 0.111145 0.937864 0.11149 2 -6 -4 
8678 6 0.606388 0.962018 0.092577 4 -3 -2 
7477 5 0.635801 0.972802 0.032147 1 0 2 
8792 6 0.754569 0.949722 0.0373668 -2 3 0 
8901 6 0.892328 0.980364 0.0637396 3 -2 2 
8768 6 0.909024 0.966611 0.0862713 1 -3 -1 
5888 5 0.0238664 0.0336549 0.0819116 2 3 0 
5583 5 0.339166 0.00172415 0.0465694 4 0 -5 
8685 6 0.276291 0.0538619 0.12537 5 4 -4 
8623 5 0.578361 0.00507827 0.117365 0 -1 -1 
7562 5 0.821412 0.0162646 0.0851728 3 -1 3 
8875 6 0.873491 0.0580721 0.131048 3 -2 -4 
8721 5 0.895251 0.057566 0.10122 -1 1 1 
6878 6 0.073904 0.0169798 0.114475 -4 1 3 
8290 5 0.0288171 0.0983449 0.1077 3 -3 6 
5466 6 0.459039 0.126268 0.0938574 1 2 0 
8688 6 0.635187 0.0838468 0.0923093 1 4 1 
6327 5 0.835299 0.152902 0.127054 0 5 0 
5339 6 0.305144 0.191499 0.0709995 -1 -3 6 
8058 5 0.463217 0.158957 0.086101 -2 -1 -4 
6639 5 0.335658 0.246813 0.105622 0 -5 -4 
5361 5 0.539111 0.23004 0.119923 -3 4 2 
8295 6 0.511109 0.280144 0.0906235 0 -3 1 
6874 5 0.525787 0.247628 0.121722 -1 1 4 
6802 6 0.630187 0.252116 0.111797 5 0 1 
8449 6 0.887637 0.273105 0.0961178 5 -2 2 
8719 6 0.179196 0.269445 0.0927769 4 -3 0 
8000 5 0.213058 0.288209 0.138173 1 -7 -2 
8561 5 0.293396 0.3022 0.0649113 0 -2 3 
6193 5 0.68644 0.317081 0.0986248 -1 0 -1 
6754 5 0.560738 0.29174 0.0916108 1 3 -2 
6809 5 0.833234 0.332808 0.102823 3 4 0 
7037 5 0.55104 0.385485 0.09379 1 0 2 
5855 6 0.689712 0.348424 0.120963 -7 2 5 
8934 5 0.992057 0.372149 0.123712 -2 -4 -2 
7568 5 0.354092 0.387331 0.117125 2 -4 -6 
7439 6 0.440384 0.383945 0.0958776 5 0 2 
5728 6 0.913931 0.359353 0.107754 0 2 1 
5555 6 0.90841 0.384755 0.0792612 -4 -2 5 
7835 6 0.824923 0.4021 0.0931284 0 0 4 
7814 5 0.0142955 0.394754 0.130316 8 -1 3 
6277 6 0.0789222 0.442373 0.112847 2 -1 2 
7092 6 0.375412 0.445601 0.104632 -5 -2 2 
7989 5 0.553045 0.409012 0.0614711 0 -2 -7 
6520 6 0.726703 0.415013 0.15033 0 -1 0 
7090 6 0.285358 0.443201 0.128825 2 -5 2 
7710 6 0.467367 0.414087 0.116773 4 -1 2 
7968 5 0.727543 0.413786 0.0854586 -1 -1 -3 
8532 5 0.445527 0.484718 0.103398 5 -4 -2 
6397 5 0.552497 0.459073 0.0716385 4 3 4 
7190 6 0.691475 0.498072 0.0979233 4 3 1 
5057 6 0.107764 0.459873 0.105009 6 5 -2 
6839 5 0.544792 0.546553 0.120025 -1 -1 1 
5872 6 0.424925 0.499586 0.11594 3 -2 1 
8896 6 0.569339 0.562243 0.0953177 -1 7 9 
7554 6 0.641203 0.530901 0.113226 0 2 2 
5723 6 0.961672 0.571689 0.0958094 3 0 -3 
5031 6 0.493164 0.616321 0.130293 2 1 -4 
6976 5 0.766221 0.601259 0.104678 0 -3 1 
7697 6 0.861938 0.580335 0.0979947 4 3 2 
7765 5 0.306431 0.585466 0.0788977 -4 -4 0 
5480 6 0.310495 0.623901 0.124146 1 -2 0 
7899 6 0.587471 0.625052 0.0808242 -2 0 -1 
6536 6 0.0516791 0.653326 0.10781 2 7 -4 
8459 6 0.0808361 0.673092 0.120491 -2 -5 -2 
7250 5 0.821731 0.648602 0.121491 -3 -1 5 
6174 5 0.0806386 0.755571 0.0966702 -1 1 -1 
5309 6 0.498844 0.709182 0.113488 0 -1 -3 
5389 5 0.76213 0.711869 0.144004 -1 3 6 
8515 6 0.213564 0.738856 0.105832 2 -6 2 
5476 6 0.559695 0.7288 0.0894815 0 -2 -2 
8857 5 0.740676 0.736226 0.0698897 0 0 0 
7265 6 0.194562 0.746338 0.127261 -2 3 1 
6608 5 0.60532 0.770761 0.0704203 -1 1 0 
5951 5 0.718259 0.76364 0.122198 2 4 -3 
7059 5 0.522746 0.772999 0.120068 -6 2 1 
8568 5 0.282897 0.839619 0.122206 0 -2 0 
6653 6 0.460772 0.812655 0.0624446 4 -3 0 
7769 5 0.516302 0.828827 0.112135 -1 -3 -1 
6295 5 0.045539 0.84388 0.109444 -1 0 1 
8513 5 0.151059 0.900535 0.125148 0 1 9 
5297 5 0.65103 0.895758 0.0966425 0 -4 2 
6121 6 0.846387 0.872604 0.101483 0 -1 0 
7344 5 0.0803765 0.89719 0.113336 0 0 -5 
5037 6 0.208186 0.929939 0.135041 3 -2 1 
6386 5 0.0318423 0.942951 0.0837235 0 4 -2 
5919 5 0.475031 0.957299 0.102925 -2 0 -5 
7421 6 0.363143 0.957994 0.120183 -1 1 -2 
6198 6 0.38825 0.973607 0.126989 2 4 0 
8028 5 0.447051 0.987849 0.124424 -2 5 -4 
6522 6 0.809163 0.975574 0.069912 -1 0 4 
7278 6 0.0445985 0.993353 0.0830424 -6 1 0 
6667 6 0.238849 0.986446 0.123113 6 2 1 
7365 6 0.566044 0.999498 0.123378 -4 3 2 
5987 5 0.310905 0.0254582 0.125313 0 0 2 
6697 6 0.596792 0.0364055 0.147085 -4 2 -2 
6944 5 0.833966 0.0619978 0.107862 3 -4 0 
8372 5 0.865846 0.00680156 0.142717 -3 -2 1 
5688 6 0.00901587 0.0913572 0.152995 -2 1 0 
6497 5 0.757899 0.120352 0.088381 0 -3 0 
5591 6 0.802415 0.111581 0.0886948 2 5 -2 
5722 5 0.0751465 0.138439 0.124397 0 3 -1 
7732 6 0.204584 0.136986 0.0918592 -2 -3 -3 
8237 6 0.572736 0.170541 0.138159 2 3 -1 
5351 6 0.721673 0.140718 0.156223 2 0 3 
8885 5 0.0296135 0.160916 0.098877 -2 -3 3 
7926 5 0.127092 0.166416 0.146576 0 3 -1 
6290 5 0.184447 0.207202 0.152396 -6 3 -1 
5638 5 0.212928 0.268436 0.109254 1 -3 -2 
6890 6 0.27055 0.234298 0.115866 0 3 0 
6328 5 0.419741 0.194871 0.102846 1 -1 0 
6162 6 0.997783 0.227444 0.103257 -2 2 1 
6586 5 0.955717 0.270237 0.16837 -4 4 3 
7306 6 0.366027 0.298893 0.142908 -1 -7 4 
6910 6 0.503039 0.32581 0.0834958 -1 7 -3 
6425 5 0.841746 0.293922 0.112524 2 -3 -2 
6057 5 0.896992 0.311849 0.120955 -3 2 3 
5825 5 0.00382446 0.315068 0.125796 4 5 -3 
5464 5 0.157189 0.330069 0.10225 0 1 1 
5482 6 0.178429 0.319278 0.10849 2 2 -1 
5326 5 0.885017 0.316826 0.156543 2 1 -1 
6341 6 0.895175 0.329573 0.148537 -2 3 4 
7425 5 0.466587 0.310076 0.126401 -7 0 2 
7240 5 0.509166 0.351314 0.130183 -4 -1 1 
6585 6 0.40698 0.369716 0.138561 -4 2 -4 
8523 6 0.406239 0.392169 0.11537 -5 0 8 
6072 6 0.0742334 0.386137 0.110126 -3 -1 -1 
6495 5 0.505803 0.4192 0.106117 2 3 0 
6476 6 0.796766 0.408551 0.134172 1 -2 3 
6226 5 0.0533713 0.439825 0.118662 1 -5 -2 
8230 6 0.976691 0.421322 0.151712 -1 5 0 
7200 5 0.625724 0.470433 0.1345 3 1 -1 
7393 6 0.262895 0.414143 0.138924 -2 4 -3 
5220 6 0.537532 0.482394 0.140318 1 -2 1 
5673 6 0.568022 0.51994 0.141738 1 -1 -1 
7150 5 0.200749 0.563774 0.0995111 1 0 0 
7701 6 0.30455 0.549862 0.128979 -3 3 4 
7930 5 0.332768 0.53562 0.124295 -2 -2 5 
8260 5 0.68161 0.557909 0.170037 4 5 6 
8830 5 0.914724 0.588279 0.0869296 -1 0 3 
5495 6 0.529573 0.600476 0.138578 2 -4 -1 
7325 5 0.87731 0.566846 0.111755 -2 2 0 
7766 6 0.0592889 0.553338 0.122708 -3 1 0 
8073 5 0.432884 0.626173 0.111406 -2 -1 2 
5151 5 0.326804 0.593627 0.107373 9 1 2 
6245 6 0.450498 0.638332 0.137558 -3 2 3 
6649 5 0.825726 0.656771 0.114194 -2 6 4 
5051 6 0.869094 0.665025 0.126704 -4 -5 -1 
6132 6 0.1459 0.648399 0.125238 -3 1 0 
5319 6 0.404261 0.665387 0.134324 -1 0 -2 
6611 5 0.525164 0.615573 0.112377 -2 2 3 
7999 5 0.569637 0.632916 0.106051 1 7 5 
7232 6 0.284138 0.628468 0.123449 1 -3 -2 
6305 5 0.510224 0.694247 0.149391 -2 0 -4 
7931 5 0.71633 0.693118 0.116105 -2 -1 5 
7548 6 0.398533 0.701287 0.0828734 2 0 -3 
8679 6 0.214849 0.753506 0.128613 -5 -3 -6 
8319 6 0.796615 0.713736 0.12497 2 1 -1 
5228 5 0.90682 0.705247 0.145065 -1 1 1 
7247 5 0.251649 0.804249 0.124295 -1 3 -6 
5822 6 0.293238 0.808385 0.121472 -1 0 3 
6430 6 0.234514 0.846028 0.100408 -3 -2 0 
8754 5 0.519144 0.814023 0.136202 -4 0 -2 
6712 5 0.479266 0.837851 0.0939265 5 -4 -3 
8716 6 0.486447 0.854084 0.117221 1 9 6 
7223 6 0.725398 0.861705 0.121402 0 -3 2 
7651 6 0.793559 0.830822 0.177614 -3 1 1 
8233 6 0.891348 0.849086 0.103509 3 0 1 
5270 6 0.45315 0.869194 0.102145 2 -2 2 
5148 5 0.0285208 0.903603 0.152769 -1 1 0 
5192 5 0.452593 0.894825 0.136142 -4 -2 -1 
8583 6 0.326404 0.924694 0.113663 2 0 0 
7280 6 0.191627 0.951844 0.147483 -4 0 -1 
5427 5 0.538506 0.97089 0.115028 1 0 -1 
8199 5 0.623636 0.916704 0.120684 -4 -1 -1 
7213 5 0.221093 0.933545 0.115013 1 -1 1 
8478 6 0.868031 0.95264 0.127201 -3 4 -2 
7643 6 0.08693 0.993685 0.132775 -2 -4 2 
6443 5 0.192469 0.987793 0.10856 2 -4 0 
8124 5 0.146624 0.0166192 0.166386 -5 7 1 
8376 5 0.275968 0.0269701 0.136576 1 -2 0 
7567 5 0.540961 0.971343 0.135654 -1 -5 0 
6330 5 0.983395 0.0493684 0.147716 -2 3 4 
6814 5 0.572619 0.0849024 0.0935473 0 0 2 
7148 6 0.483374 0.0646776 0.141887 1 4 3 
7784 5 0.744344 0.0383948 0.175309 1 4 -1 
8713 6 0.805701 0.0543515 0.139251 2 2 0 
7511 5 0.921553 0.115704 0.166206 1 1 -3 
5559 5 0.590118 0.109598 0.143125 1 2 4 
7330 6 0.354685 0.125455 0.127228 -2 3 4 
6836 5 0.275828 0.182906 0.140808 2 -1 -1 
6438 6 0.667933 0.18355 0.134044 3 -3 0 
5620 6 0.573501 0.247492 0.139716 2 -5 -1 
8141 6 0.714243 0.259918 0.176817 -1 2 0 
7128 5 0.0822713 0.29379 0.105847 0 2 5 
5257 5 0.129031 0.322779 0.106396 -2 -1 -1 
5884 6 0.433286 0.295413 0.195427 1 -3 -3 
6157 6 0.0623496 0.319899 0.114071 3 4 0 
5305 5 0.835888 0.336839 0.146929 1 -1 2 
5414 5 0.951353 0.336276 0.153863 -1 2 4 
6422 5 0.331249 0.37421 0.148946 -1 -1 -3 
5939 6 0.0432705 0.387976 0.151069 -2 3 5 
7096 6 0.874754 0.384145 0.176729 -3 1 0 
7985 6 0.915856 0.409875 0.157539 0 2 2 
8670 6 0.0942665 0.49246 0.148516 0 0 4 
5094 5 0.415665 0.465946 0.105146 2 2 3 
7722 6 0.925096 0.465993 0.114224 2 2 -1 
7625 6 0.495021 0.518111 0.130538 -4 0 -2 
6521 5 0.501785 0.499796 0.156274 -2 -4 2 
5262 5 0.858035 0.508962 0.149146 1 5 -2 
7420 5 0.516474 0.512066 0.151484 2 -5 -3 
8332 6 0.614771 0.512616 0.120457 -1 -2 0 
5880 6 0.551356 0.505849 0.17411 3 -2 1 
5268 6 0.238519 0.581685 0.133528 0 2 2 
5818 5 0.230218 0.607595 0.179405 -2 -5 -1 
6118 6 0.297262 0.572026 0.122255 -1 -3 2 
5763 6 0.693756 0.602006 0.118641 3 -1 2 
6150 6 0.167079 0.635389 0.126981 2 -1 1 
6233 5 0.261617 0.628489 0.15688 -4 4 1 
8618 5 0.998933 0.654231 0.118789 4 -1 -3 
8873 5 0.0499155 0.634307 0.178838 -4 -5 3 
7813 5 0.80879 0.649751 0.195063 -4 -2 -4 
7703 5 0.280154 0.702805 0.146193 -1 3 -2 
8501 6 0.0783107 0.673746 0.154673 4 2 1 
7617 5 0.389948 0.674223 0.168598 2 -2 -2 
8805 5 0.76011 0.69006 0.151128 -2 -2 -1 
8479 6 0.791125 0.699082 0.157583 -3 3 -2 
7934 5 0.806539 0.696572 0.168709 5 7 7 
8456 6 0.825583 0.69924 0.150093 -9 5 2 
6749 6 0.898564 0.745432 0.152107 4 3 2 
6137 5 0.0226712 0.772017 0.148705 -4 0 1 
6063 5 0.341787 0.75142 0.16473 0 -2 6 
6403 5 0.650373 0.698695 0.154045 4 1 -2 
8098 6 0.877585 0.722455 0.134454 -6 1 -2 
6648 5 0.143237 0.768729 0.156045 2 2 -1 
5955 5 0.284338 0.74008 0.150082 -2 3 1 
8794 5 0.738433 0.830482 0.167319 6 -3 -6 
6159 6 0.969677 0.790247 0.136772 1 -4 -7 
5874 5 0.565447 0.879797 0.162094 -2 -3 0 
8261 5 0.693306 0.851511 0.147637 2 2 -2 
5552 5 0.816715 0.850795 0.115321 2 5 0 
7998 5 0.784706 0.868619 0.149377 -2 0 -5 
5547 5 0.04431 0.939503 0.14238 4 -4 -7 
6103 6 0.725054 0.977745 0.165931 -2 -2 0 
7056 6 0.467874 0.96437 0.192748 1 -1 0 
5022 5 0.0701855 0.941755 0.185631 -1 3 -3 
8530 5 0.133958 0.987226 0.138196 6 -4 1 
5643 5 0.85186 0.967241 0.153492 3 2 3 
6972 6 0.933934 0.96038 0.128063 4 0 3 
8324 6 0.486894 0.98639 0.176946 2 0 -1 
7972 5 0.677303 0.0249814 0.116383 0 1 -1 
8640 5 0.86495 0.0129715 0.152636 2 -1 -5 
5808 6 0.526882 0.998264 0.190432 -4 0 -2 
5972 5 0.533544 0.0243767 0.14122 -4 -2 -5 
8273 5 0.720136 0.0198731 0.149889 9 2 3 
6062 6 0.71153 0.0361505 0.190417 -4 1 4 
8516 6 0.423367 0.0319975 0.139406 1 -2 -1 
8636 6 0.517361 0.996167 0.181736 3 -7 2 
6035 5 0.643179 0.0370978 0.167335 1 3 0 
7123 6 0.404999 0.0486665 0.176288 0 4 3 
5785 5 0.465901 0.0656542 0.194131 -1 3 -2 
8981 6 0.378539 0.0846481 0.163279 2 -2 1 
7068 6 0.637502 0.050725 0.135864 -2 0 4 
6997 5 0.625953 0.0879896 0.176659 0 7 6 
8426 6 0.33172 0.114043 0.180276 3 -5 1 
5214 5 0.499688 0.117615 0.146961 5 1 -2 
8196 6 0.648909 0.0753024 0.153143 3 0 0 
5569 5 0.711499 0.1477 0.175418 -3 3 1 
6442 6 0.913151 0.145519 0.164339 5 3 -1 
8026 5 0.85323 0.12639 0.169247 -1 -3 -3 
5937 6 0.00432932 0.110087 0.14066 2 2 2 
5576 5 0.298054 0.142454 0.196632 1 10 4 
8360 5 0.300987 0.183297 0.187832 -7 -1 1 
8746 6 0.330935 0.193334 0.211524 2 2 1 
7641 5 0.129344 0.217672 0.180928 3 1 1 
5851 6 0.434571 0.2053 0.156811 -1 7 -4 
8872 6 0.72174 0.224436 0.185138 3 -1 6 
7792 6 0.966652 0.222138 0.17421 1 5 -1 
8228 6 0.402383 0.253607 0.188933 -1 -1 -2 
8140 5 0.657579 0.244994 0.175677 -3 6 4 
8970 6 0.775965 0.265813 0.135962 -1 -3 -1 
5159 5 0.245788 0.270758 0.177453 0 1 1 
5295 6 0.28793 0.25133 0.146379 0 0 0 
8493 5 0.880293 0.248927 0.169879 -4 -4 4 
8113 6 0.314571 0.29262 0.173369 -1 -5 0 
6373 5 0.542597 0.305429 0.159542 -1 7 3 
6129 6 0.977864 0.314839 0.189787 0 0 -2 
6314 6 0.501403 0.349001 0.163885 -3 -1 0 
7122 6 0.50851 0.291425 0.162505 2 1 -4 
7870 6 0.319845 0.336969 0.176563 1 3 1 
7834 6 0.385208 0.343434 0.136466 0 -1 1 
5736 6 0.485589 0.347409 0.154712 1 -2 -2 
5821 6 0.576978 0.399952 0.188398 -5 -5 -1 
5455 5 0.286784 0.441791 0.178207 1 0 -1 
8765 5 0.373636 0.429755 0.161239 0 -1 2 
7013 5 0.73019 0.415165 0.136706 -1 -1 1 
8298 5 0.934547 0.398598 0.151615 9 5 -1 
8892 6 0.289802 0.47429 0.182161 3 -2 -2 
8700 6 0.437337 0.460484 0.166545 -1 -5 -1 
7095 5 0.338437 0.497821 0.180416 2 0 -1 
6429 5 0.715167 0.475856 0.140568 -5 -3 1 
5130 5 0.351409 0.543511 0.201467 0 -7 6 
6410 6 0.0530793 0.504287 0.164562 0 1 4 
7399 5 0.184666 0.509127 0.17454 -1 0 -5 
8115 5 0.507238 0.533875 0.150048 1 -2 -1 
5926 5 0.522915 0.593632 0.199706 0 -3 -1 
6225 6 0.385274 0.607432 0.160086 -1 -5 0 
7763 6 0.437469 0.629263 0.15836 -3 -5 -3 
7296 6 0.535455 0.621594 0.201707 -2 0 0 
6427 5 0.200135 0.627025 0.176214 0 4 4 
8657 6 0.315139 0.690613 0.169289 3 0 2 
6901 5 0.459203 0.691233 0.170707 2 1 0 
5245 6 0.56105 0.652739 0.132891 -4 4 -6 
6847 5 0.774196 0.650203 0.195176 3 -6 1 
8733 6 0.83474 0.672741 0.156457 -3 -4 -2 
8562 6 0.0992151 0.704665 0.16134 -1 0 0 
8731 6 0.840492 0.717211 0.212577 0 4 -1 
7291 6 0.152544 0.737037 0.20433 0 0 -6 
7495 5 0.114921 0.692339 0.213953 3 0 0 
7581 5 0.610228 0.698394 0.131927 -3 -3 7 
5895 6 0.637239 0.723592 0.164922 -9 -1 -1 
5642 5 0.808379 0.776807 0.168464 0 0 0 
7707 5 0.101769 0.77544 0.179091 -2 -1 -4 
8071 6 0.371445 0.736314 0.197207 -2 4 2 
6880 5 0.338963 0.775206 0.195939 2 -5 -3 
6015 6 0.0633328 0.828306 0.170752 -2 -1 -5 
6726 5 0.353058 0.779706 0.163077 2 -1 0 
7953 6 0.706269 0.800751 0.154225 3 0 3 
7049 5 0.869773 0.779973 0.174692 0 4 5 
7532 6 0.478987 0.806619 0.152306 1 1 0 
8038 6 0.875945 0.906367 0.181267 0 -2 -2 
5773 5 0.152028 0.935452 0.154679 4 3 -2 
5454 6 0.575665 0.939442 0.121411 -1 -2 -3 
8118 5 0.794444 0.942392 0.160502 -5 3 -3 
7201 6 0.245968 0.953216 0.177667 -4 -2 -2 
5109 5 0.584087 0.933088 0.148281 -4 1 4 
6886 6 0.901098 0.947732 0.173527 0 2 0 
7215 6 0.384527 0.941559 0.165229 3 4 5 
5287 5 0.30153 0.968316 0.155061 2 1 0 
5520 6 0.056408 0.0372377 0.207599 3 -2 -5 
5565 6 0.679497 0.034876 0.192049 -3 -6 -1 
7530 6 0.544435 0.0905592 0.198269 -3 4 3 
8747 5 0.679923 0.0988164 0.206892 0 0 -2 
7185 5 0.360209 0.0741632 0.191989 1 -3 -2 
8555 5 0.372597 0.0956695 0.201091 -3 0 2 
7107 6 0.557011 0.0873564 0.196855 -3 1 -6 
7042 6 0.302939 0.111612 0.161212 5 -1 4 
8419 5 0.718964 0.115472 0.185616 -1 -1 0 
8401 6 0.169278 0.148329 0.191083 -3 -1 2 
5020 6 0.41858 0.110052 0.187686 3 -1 0 
8914 6 0.764272 0.146538 0.208964 -2 1 3 
8387 5 0.857495 0.100893 0.229519 -2 2 -4 
6044 6 0.491307 0.148828 0.163341 2 -5 -3 
5896 5 0.892573 0.13121 0.206392 3 1 -7 
6587 6 0.189179 0.24745 0.234513 -4 -4 -3 
5747 5 0.384362 0.228656 0.215279 0 3 1 
7483 6 0.793527 0.201989 0.180537 0 3 -3 