ITEM: TIMESTEP
20000000
ITEM: NUMBER OF ATOMS
9000
ITEM: BOX BOUNDS pp pp pp
-75 75
-75 75
-75 75
ITEM: ATOMS id type xs ys zs ix iy iz 
8362 6 0.0208357 0.00767229 0.0144546 0 5 2 
7560 6 0.0188068 0.00996236 0.0311002 -3 -2 2 
8482 6 0.675054 0.0283674 0.990652 3 -1 -2 
6657 6 0.0523807 0.0766514 0.0363698 -1 1 -4 
8037 6 0.198016 0.0403462 0.973164 1 -2 -5 
6637 6 0.267853 0.0782584 0.962733 3 7 -1 
7636 5 0.494321 0.0594968 0.0185427 4 0 -2 
5870 6 0.634353 0.0755537 0.00453619 -3 3 0 
6033 5 0.345882 0.108592 0.99753 -1 -3 -2 
7612 6 0.74602 0.100028 0.0334646 4 3 0 
8310 5 0.345571 0.107587 0.99009 4 3 -5 
8025 6 0.982022 0.111606 0.00623444 3 9 0 
8153 5 0.392716 0.118489 0.042854 2 3 -1 
6457 5 0.688045 0.160233 0.0210027 5 -3 3 
5791 6 0.844988 0.134448 0.000204799 -3 4 -5 
8043 6 0.321585 0.192054 0.0233612 -3 9 2 
7615 5 0.663179 0.210948 0.0121824 3 -1 2 
8700 6 0.918779 0.16527 0.973242 4 -3 0 
6089 6 0.340068 0.259227 0.0115558 2 4 -7 
7238 6 0.986778 0.223274 0.0109782 1 2 0 
7431 6 0.94664 0.248952 0.0190575 -6 2 0 
6822 5 0.0989229 0.271134 0.967946 6 -1 0 
7316 5 0.107671 0.244409 0.987114 0 3 -3 
8158 6 0.925929 0.211737 0.0530649 1 3 1 
8978 5 0.263787 0.285868 0.00234833 -5 3 -3 
5220 5 0.745742 0.282906 0.0467492 -1 3 1 
5996 5 0.281154 0.335732 0.0225273 -3 4 -2 
8410 6 0.0340343 0.308372 0.0251621 5 -2 3 
6672 5 0.0461565 0.321879 0.0310417 -2 6 -3 
8488 6 0.746329 0.345281 0.0287277 4 1 -1 
8513 5 0.244639 0.37834 0.0499512 6 1 3 
8221 6 0.077486 0.340405 0.0392766 4 -3 2 
8039 5 0.10424 0.457472 0.982322 0 3 -1 
6134 5 0.428346 0.475753 0.0278038 -3 1 0 
7517 6 0.491353 0.426876 0.0113981 -4 3 1 
5783 5 0.073684 0.488307 0.0295558 1 3 1 
5156 5 0.316564 0.493735 0.989229 3 -6 2 
5787 5 0.862474 0.493029 0.0150612 -1 2 1 
7524 6 0.0755248 0.511881 0.00554286 -3 -3 -1 
6666 6 0.617084 0.544792 0.990354 -4 0 3 
6791 6 0.288516 0.54108 0.977667 2 4 3 
6689 6 0.446406 0.524657 0.996752 1 3 -1 
7375 5 0.489347 0.537434 0.0399139 -6 -2 2 
7303 6 0.527825 0.538321 0.0299361 1 3 -1 
6680 5 0.13267 0.568996 0.0386235 2 1 4 
7564 6 0.76442 0.525416 -9.81279e-05 -3 2 -3 
8101 6 0.838052 0.539621 0.0114198 -2 -1 1 
6187 6 0.218809 0.587125 0.978471 -2 1 1 
5145 6 0.00746472 0.606112 0.0262487 5 3 0 
7418 6 0.370689 0.582116 0.995719 -1 -3 1 
8013 6 0.573689 0.61719 0.00348432 1 4 3 
5620 5 0.804571 0.618812 0.0511364 2 2 4 
7918 5 0.877122 0.616187 0.984409 -2 -1 2 
8300 6 0.883775 0.606564 0.970245 1 -1 -5 
5373 5 0.555904 0.65367 0.0256544 0 -1 -2 
7323 5 0.579307 0.62828 0.0390597 -1 -1 2 
8270 5 0.520009 0.666185 0.0196508 4 0 4 
6248 5 0.701603 0.682494 0.0029274 3 -1 3 
6361 5 0.778558 0.649078 0.974284 2 2 -4 
7653 6 0.452287 0.663034 0.0107474 -1 -2 0 
7846 6 0.628064 0.674765 0.989761 4 0 -2 
6807 5 0.732844 0.679564 0.972706 0 -1 1 
6357 6 0.984725 0.708361 0.0607475 -6 2 -3 
6324 6 0.36921 0.721529 0.95845 6 3 1 
8312 6 0.259377 0.752126 0.0302091 -3 3 6 
6370 5 0.364748 0.719533 0.0229071 1 -3 1 
5405 6 0.686234 0.743879 0.985182 1 0 -1 
8677 6 0.674039 0.785151 0.981725 -2 2 -2 
6189 5 0.125834 0.801761 0.0144852 5 -3 0 
7936 5 0.148289 0.862439 0.970479 -4 -1 2 
6075 5 0.285191 0.845715 0.990723 -4 2 2 
5477 6 0.356748 0.829908 0.018925 3 0 -1 
7699 6 0.730322 0.846533 0.0113768 0 2 3 
8068 5 0.433183 0.879754 0.998203 -3 -3 0 
6059 6 0.622036 0.882599 0.012949 -4 0 3 
7809 6 0.302821 0.938317 0.00399491 0 0 -5 
5344 5 0.780483 0.885688 0.0078916 -1 5 -5 
5157 6 0.850728 0.913396 0.00409721 2 1 -1 
8318 5 0.546134 0.960052 0.0108918 -1 -2 -1 
7398 5 0.342296 0.943949 0.0544462 -3 -3 3 
7551 5 0.943388 0.954032 0.0274527 2 2 2 
5727 6 0.0839103 0.0237803 0.034656 -2 2 4 
5804 6 0.437479 0.992045 0.963841 3 2 3 
5656 6 0.0154077 0.0321816 0.00936412 -1 -3 0 
5979 5 0.659036 0.995051 0.0507853 1 -5 2 
5944 5 0.311422 0.0539139 0.0475217 0 1 3 
7745 6 0.785542 0.0682802 0.0248484 2 -4 0 
6023 5 0.176128 0.121385 0.0135846 0 1 5 
8998 5 0.21854 0.120602 0.033948 -1 1 -2 
8073 5 0.37324 0.126655 0.0291294 5 1 2 
6063 6 0.802177 0.152996 0.967014 1 -4 2 
5454 6 0.835105 0.146052 0.0750374 -1 3 1 
5430 5 0.350662 0.179374 0.0250836 0 -5 2 
6846 6 0.443465 0.190345 0.0491067 2 -1 -6 
6593 5 0.491883 0.158937 0.0269767 0 -4 -2 
6012 5 0.519767 0.17866 0.0362036 2 -3 1 
5077 6 0.764815 0.176282 0.0383871 4 -3 8 
5910 5 0.142022 0.208079 0.0451459 -2 0 -4 
6519 5 0.207474 0.207091 0.0299044 1 -1 5 
6709 6 0.241552 0.247745 0.0664949 3 -1 2 
8745 5 0.370227 0.182756 0.0389715 -4 -4 -2 
5744 6 0.440543 0.21777 0.0456247 2 -8 -1 
5972 6 0.520747 0.258096 0.00345732 4 -3 1 
7192 5 0.101881 0.263189 0.0575006 4 0 0 
6081 6 0.431499 0.233762 0.0445139 5 2 2 
5765 6 0.855862 0.277579 0.0423306 -2 -2 0 
6542 6 0.941955 0.255014 0.0444296 1 1 -1 
6107 6 0.266676 0.293069 0.035772 3 2 -2 
8830 5 0.440209 0.26629 0.0283932 0 -2 1 
5217 6 0.476953 0.267145 0.992438 -5 -2 0 
5812 5 0.0652868 0.342687 0.0476543 5 1 2 
6301 6 0.596663 0.279807 0.0228596 1 0 -2 
7249 5 0.20842 0.333959 0.0482665 0 -3 1 
8225 6 0.706631 0.300195 0.0798486 -1 2 -1 
5109 6 0.742635 0.338968 0.0553887 6 1 -4 
5879 5 0.985274 0.332121 0.0517362 7 1 2 
8042 6 0.436118 0.351532 0.0343826 3 -3 2 
6382 5 0.320123 0.393717 0.0405658 2 -1 1 
6794 5 0.678735 0.397495 0.0171839 -3 2 5 
5397 5 0.247045 0.430059 0.0428536 0 -3 2 
6912 5 0.587668 0.466676 0.0311717 1 2 -6 
8095 6 0.807954 0.419277 0.0376383 0 3 -2 
6850 6 0.356304 0.469271 0.0146276 -2 -4 0 
8098 6 0.489233 0.445989 0.0177618 0 -6 -2 
8803 6 0.553733 0.455516 0.0109372 3 -4 4 
5491 5 0.949127 0.47461 0.0278135 2 4 2 
5178 6 0.93366 0.501947 0.0374945 -2 -2 -1 
5616 6 0.341371 0.508692 0.0370585 3 0 0 
6062 6 0.751838 0.513414 0.0532372 0 6 -2 
8669 6 0.427818 0.542251 0.0067349 -8 2 1 
6975 6 0.880272 0.532485 0.0351968 2 -2 4 
5805 6 0.171481 0.546348 0.0501701 -4 0 -1 
6501 5 0.376857 0.552392 0.0251582 1 -4 -2 
7970 5 0.326472 0.549369 0.0197542 -3 -1 4 
6358 5 0.269027 0.597867 0.0469213 -3 1 2 
7516 6 0.999006 0.60004 0.0586209 -1 0 -1 
8149 5 0.675165 0.636005 0.0133582 2 -7 -4 
5181 5 0.689549 0.684863 0.0457802 0 6 -2 
6367 5 0.750972 0.691276 0.0448203 -4 4 1 
5543 5 0.105784 0.693751 0.00406235 1 -3 3 
8856 5 0.993355 0.700247 0.0444726 -2 0 -1 
5647 5 0.964461 0.710651 0.055981 3 -2 2 
7507 5 0.172631 0.744734 0.0298251 3 -2 1 
6158 6 0.198638 0.754164 0.0548485 2 0 2 
6195 6 0.243257 0.738688 0.0368712 5 0 4 
5197 5 0.373755 0.700846 0.0197146 3 0 0 
7466 5 0.995453 0.71635 0.0105595 1 -4 3 
7232 6 0.0499641 0.812279 0.0334705 -1 0 3 
6169 6 0.102621 0.827316 0.02664 4 -1 2 
5322 6 0.729808 0.796745 0.0395969 0 -9 -3 
7274 6 0.45665 0.810944 0.0315043 5 0 1 
5506 6 0.48741 0.802285 0.0770048 1 4 -2 
8971 6 0.667196 0.791212 0.00257435 -1 1 -3 
8492 5 0.196346 0.849459 0.0146289 0 -1 8 
5311 5 0.470533 0.850364 0.0420375 -1 5 9 
5395 5 0.470309 0.857945 0.980389 6 -2 -2 
8103 5 0.858659 0.859674 0.0211306 1 6 -2 
7685 6 0.957384 0.875841 0.0329921 2 -3 -2 
5039 5 0.345637 0.906477 0.0152362 0 -3 5 
7393 6 0.443324 0.843979 0.0258829 8 0 1 
5710 6 0.265855 0.906975 0.0877643 0 -4 0 
6142 5 0.497519 0.899873 0.0245612 -3 -2 3 
8185 5 0.809049 0.909877 0.00299347 3 -2 0 
6667 5 0.816222 0.955284 0.0292815 2 -2 3 
5634 6 0.279982 0.014762 0.0146143 0 -1 -2 
6707 6 0.626159 0.981189 0.996572 0 2 -1 
5755 6 0.396439 0.0127498 0.996818 4 3 -1 
5468 6 0.636374 0.00130898 0.0567405 7 5 4 
6848 6 0.222659 0.0188827 0.0887597 -1 0 -3 
8271 5 0.243026 0.0689843 0.0747592 1 2 1 
6717 5 0.598388 0.0252716 0.0796578 3 9 -2 
5636 5 0.683445 0.0711754 0.0839983 -1 5 1 
8281 6 0.500025 0.0729559 0.0734346 -2 -3 0 
8033 6 0.0532731 0.102386 0.0726277 2 1 2 
5078 5 0.446831 0.0917118 0.0890154 0 -1 7 
6847 5 0.597411 0.11655 0.0443677 1 0 3 
8479 6 0.238077 0.165461 0.028042 1 2 -6 
8584 6 0.903945 0.118558 0.0591286 0 3 0 
7515 5 0.943265 0.134793 0.0545215 3 3 4 
8282 5 0.169321 0.138426 0.0413675 1 -3 -1 
7225 5 0.389357 0.129893 0.0405703 4 -1 -3 
7772 6 0.693251 0.167505 0.0537884 0 3 1 
6963 5 0.959182 0.154294 0.0569477 -1 3 -3 
8855 5 0.254154 0.224826 0.0385342 1 1 7 
6155 5 0.388607 0.233454 0.0591861 -1 -6 -8 
5361 6 0.605911 0.20323 0.0624256 2 -2 -1 
5892 6 0.784398 0.222588 0.0687183 -2 -1 -1 
7262 5 0.650811 0.237193 0.0680166 -1 3 -2 
8842 5 0.719842 0.298124 0.0296722 -3 1 5 
8650 6 0.0807649 0.300605 0.0725108 -1 -1 4 
8413 5 0.182145 0.27173 0.0756764 1 4 0 
7865 6 0.93441 0.271025 0.0230868 -2 -1 4 
6972 6 0.114203 0.310981 0.0281188 3 -2 9 
8719 5 0.356334 0.283531 0.073732 -3 4 -5 
5751 6 0.911234 0.316892 0.0250244 -5 -2 2 
6264 5 0.994471 0.324198 0.0650259 -2 0 -1 
8860 5 0.714985 0.381376 0.0751359 0 2 6 
8567 6 0.0434778 0.372472 0.0482667 1 1 3 
5120 6 0.111801 0.411709 0.0448544 -1 -4 -3 
6512 5 0.40913 0.394054 0.0189345 -4 2 0 
8277 6 0.671786 0.417992 0.00145868 -4 -2 -1 
8382 6 0.0426696 0.47052 0.0676186 1 -2 2 
8875 5 0.446936 0.449366 0.0761154 3 0 5 
8243 6 0.647196 0.439176 0.0411618 -3 1 -1 
7010 6 0.998796 0.471639 0.0773382 0 6 1 
7600 5 0.942928 0.475333 0.0800816 1 -5 -3 
7765 6 0.681478 0.505198 0.0440079 -4 4 0 
5952 6 0.954833 0.539413 0.0613832 0 -3 2 
8930 5 0.98509 0.511754 0.0675585 -4 4 -1 
8206 5 0.314209 0.555146 0.0658282 0 -3 -2 
7662 5 0.834583 0.569764 0.0468532 1 -1 2 
6481 5 0.346287 0.533662 0.0473194 4 0 -2 
5312 6 0.777455 0.553569 0.0646475 -4 -1 0 
8715 5 0.828737 0.572815 0.0549477 2 1 -1 
5621 5 0.174584 0.588896 0.0852911 5 -4 -2 
6496 6 0.400105 0.609292 0.0332729 5 -2 4 
6898 6 0.104984 0.628395 0.0662046 -7 -4 0 
5306 6 0.227697 0.63416 0.0538126 2 -3 0 
8752 6 0.25833 0.677252 0.0457184 -2 -6 -3 
7186 6 0.261858 0.642447 0.109477 1 -1 3 
6057 6 0.562617 0.641286 0.070615 -2 -2 -1 
6294 5 0.637384 0.66869 0.0614001 -2 1 -2 
7064 6 0.565192 0.743925 0.0766345 5 -3 0 
5681 5 0.89867 0.72881 0.0376113 -3 0 -2 
5150 5 0.185568 0.764944 0.0685004 -2 1 -1 
6928 6 0.290607 0.793705 0.0336229 -3 3 -2 
8359 6 0.294534 0.801232 0.0726219 -1 5 -4 
6218 5 0.420372 0.743673 0.0776057 1 6 1 
8340 5 0.461703 0.80708 0.0245817 -2 3 -1 
7037 6 0.152407 0.801976 0.0561562 2 -3 2 
7544 6 0.45608 0.794318 0.0516789 1 0 4 
8062 6 0.0460509 0.82231 0.0636728 0 4 -1 
7132 6 0.172485 0.79918 0.0345651 2 2 -1 
8992 6 0.0742699 0.890228 0.0745065 -1 -2 4 
6747 5 0.975898 0.890702 0.0489874 -5 -1 -3 
8787 5 0.971195 0.887318 0.0567587 7 -4 -2 
8397 5 0.0268019 0.91273 0.0501972 -3 4 -1 
7761 5 0.982262 0.892562 0.0603198 -2 3 -5 
6015 5 0.296415 0.889762 0.0831293 -1 -2 -2 
7674 5 0.546708 0.91659 0.103084 -2 -3 -2 
7579 6 0.316878 0.886887 0.0525239 2 -1 0 
6813 5 0.334547 0.955972 0.0751295 2 2 0 
5355 5 0.868164 0.969154 0.0355152 -4 -1 6 
8683 5 0.490111 0.983443 0.0704135 -1 -2 5 
8738 5 0.805384 0.962302 0.0347817 -4 -3 5 
6143 6 0.223542 0.974824 0.0674978 -1 0 0 
6157 5 0.722736 0.00536518 0.0518213 -6 2 1 
5239 6 0.187669 0.0397936 0.0819605 -4 6 2 
6203 6 0.652803 0.0874873 0.0579348 -2 -2 0 
8177 6 0.0480209 0.0474465 0.0581981 4 4 -1 
6352 5 0.524573 0.0624561 0.0654499 0 -1 -3 
5348 6 0.655305 0.0421249 0.0688426 1 3 -1 
8577 6 0.130265 0.0959446 0.095232 -2 4 1 
6406 6 0.287984 0.0991209 0.0857199 -4 -3 1 
6247 5 0.731928 0.0791302 0.0865158 4 2 0 
6509 5 0.820203 0.120256 0.106545 4 2 1 
5172 5 0.455821 0.120193 0.0975495 3 0 0 
7928 6 0.574555 0.0834351 0.0609558 0 2 2 
7194 6 0.565682 0.136089 0.100737 4 7 4 
5916 5 0.856556 0.118278 0.0816174 3 -1 -2 
6827 6 0.855294 0.113245 0.0630744 -3 -1 3 
8642 6 0.200549 0.142216 0.0788011 3 4 2 
5352 6 0.377001 0.138076 0.0744222 -4 0 -1 
5086 6 0.869277 0.143235 0.0963011 -2 3 -4 
5659 5 0.00520514 0.175993 0.0657117 -2 1 -2 
8500 6 0.383406 0.148091 0.0775901 -4 1 -1 
8485 6 0.699312 0.15167 0.0984953 -5 1 5 
8341 5 0.88515 0.176045 0.0676519 -1 -2 -1 
5861 5 0.897831 0.152887 0.0659185 -3 3 -7 
8486 6 0.321722 0.2432 0.0543626 -2 -2 0 
8970 6 0.818021 0.238193 0.106683 0 2 0 
8469 5 0.0218944 0.233736 0.0939552 0 -1 -4 
8122 5 0.104525 0.266661 0.067511 2 0 -1 
8350 6 0.107231 0.259527 0.0954879 0 3 -5 
6492 5 0.662402 0.253063 0.11155 -2 3 2 
6924 6 0.971152 0.230654 0.0878198 0 -1 5 
5846 6 0.647975 0.299195 0.103004 1 -1 6 
8589 5 0.633893 0.294614 0.115201 -4 -2 4 
5788 5 0.751527 0.341647 0.101857 3 3 5 
8190 5 0.985298 0.322952 0.0816121 2 -5 0 
5184 5 0.273854 0.320285 0.0634401 2 3 4 
6913 5 0.0685418 0.357465 0.12625 -5 -2 5 
8466 6 0.39582 0.393206 0.0761724 -3 -1 2 
8226 6 0.491118 0.419545 0.0595501 1 0 4 
7239 6 0.914951 0.363672 0.0728305 1 2 0 
5824 6 0.190555 0.416018 0.0548923 -1 0 2 
5124 6 0.428014 0.427847 0.0603546 -2 1 2 
6753 5 0.412831 0.440014 0.0919748 -5 3 -1 
8727 6 0.636906 0.442689 0.104642 -1 0 -3 
7292 5 0.779336 0.454746 0.0967427 3 0 2 
8884 6 0.0650326 0.462695 0.0972615 -2 -1 0 
7428 5 0.771933 0.478176 0.067279 3 -3 6 
7834 5 0.54975 0.50937 0.0716403 4 2 -6 
5115 5 0.257825 0.513252 0.0826618 2 2 1 
5964 5 0.571401 0.562652 0.0507412 2 0 3 
5597 6 0.227889 0.58805 0.0754289 0 2 -1 
6348 6 0.246101 0.573376 0.0895797 -2 -3 0 
7989 5 0.718461 0.586456 0.059146 4 -1 -2 
6334 5 0.749199 0.586669 0.0664572 0 -1 4 
6729 5 0.0917178 0.619274 0.0877259 1 4 4 
5428 5 0.519319 0.624262 0.0721258 1 -2 2 
6784 6 0.727831 0.593595 0.0469268 -2 4 -1 
6273 6 0.602528 0.631931 0.070561 3 1 0 
7562 6 0.447766 0.642811 0.114087 1 2 0 
5567 5 0.218803 0.670998 0.0905104 -1 -1 0 
6018 5 0.0713377 0.727726 0.0726051 6 7 0 
7796 6 0.0362392 0.708506 0.0649375 -6 -2 4 
5106 5 0.224495 0.683282 0.0875406 -3 3 -5 
6453 5 0.413302 0.748535 0.112449 0 -2 3 
7592 5 0.454927 0.765287 0.0634771 0 2 -2 
8846 6 0.689411 0.6954 0.073091 3 -5 -2 
8767 6 0.748331 0.705334 0.078542 -1 4 0 
7111 6 0.012515 0.696297 0.0906571 -3 -2 5 
8825 5 0.206726 0.701509 0.0564914 3 0 5 
6670 5 0.154031 0.74451 0.0794754 2 3 -4 
7125 6 0.668224 0.764345 0.0733293 1 -3 -1 
5889 6 0.964569 0.722649 0.129344 -3 1 3 
5534 5 0.355219 0.777829 0.0497523 1 -6 -1 
7885 5 0.487471 0.761317 0.108531 4 -2 2 
5825 6 0.948932 0.793759 0.0936929 -2 -5 -4 
8879 6 0.00541846 0.786387 0.0932423 -4 7 -6 
5241 6 0.140018 0.75248 0.0629608 5 1 0 
7406 6 0.266948 0.791637 0.0837607 6 -2 0 
5416 5 0.919402 0.838881 0.0775702 -3 4 1 
8583 5 0.350059 0.845231 0.0778244 4 0 -5 
5545 6 0.484416 0.818924 0.117289 0 3 5 
5649 6 0.0660675 0.860499 0.0779475 -1 6 2 
7074 6 0.730265 0.87842 0.0391688 -6 2 1 
6993 5 0.870041 0.871735 0.0611301 0 0 1 
7459 6 0.226067 0.905399 0.0891725 4 0 -4 
8306 6 0.419162 0.870936 0.0961632 -1 -1 -1 
8916 6 0.0706779 0.906163 0.06059 -1 5 0 
8125 6 0.970739 0.902617 0.0664402 -5 4 -4 
8483 5 0.238403 0.958975 0.0690968 2 -9 -1 
8168 5 0.507588 0.938379 0.0515957 0 -2 0 
7208 6 0.494772 0.972758 0.11386 1 -2 5 
6554 5 0.885619 0.946163 0.0521496 2 2 4 
7176 6 0.993357 0.987959 0.0880077 -3 -5 5 
6404 5 0.472124 0.00470512 0.0237037 -1 -4 -3 
5190 5 0.247352 0.00618386 0.0928305 0 3 -6 
5714 5 0.875513 0.0317874 0.0917018 4 1 1 
5939 5 0.574328 0.0758279 0.0865922 0 -2 7 
5167 5 0.692034 0.0406104 0.102666 -4 3 4 
5505 6 0.921843 0.0431864 0.107815 -3 2 6 
6766 6 0.955801 0.033646 0.117831 3 1 2 
6961 6 0.501498 0.0937209 0.0947883 1 3 1 
7941 6 0.468896 0.114919 0.118064 3 -3 -4 
7630 6 0.505121 0.0850249 0.107286 0 2 -1 
7121 5 0.57827 0.10389 0.0727033 -4 3 -3 
6373 6 0.762166 0.0641195 0.0882781 1 0 0 
6141 5 0.957803 0.0917974 0.0930957 1 4 7 
7714 6 0.932936 0.166287 0.121252 -4 0 -2 
8437 6 0.610427 0.144289 0.0943949 5 2 2 
6803 6 0.126461 0.239721 0.129111 2 6 1 
6364 5 0.266051 0.266001 0.120541 0 -1 -5 
8776 5 0.780617 0.235483 0.0501846 0 -4 -4 
5371 6 0.822169 0.309093 0.0760026 0 -2 1 
6801 5 0.942928 0.286966 0.107509 -1 3 1 
8201 6 0.421553 0.33685 0.0621848 -3 -4 5 
8926 5 0.790831 0.364509 0.0904613 -3 -1 1 
6095 5 0.768866 0.363113 0.0866509 -1 -7 4 
8026 5 0.820349 0.431968 0.0916272 -3 3 1 
5342 5 0.957649 0.372211 0.151938 -5 -6 -4 
6836 6 0.36678 0.391837 0.0825845 1 0 -3 
5746 6 0.632634 0.386605 0.107627 2 0 0 
8082 6 0.721814 0.392987 0.128502 3 -4 1 
8685 6 0.625499 0.431628 0.0750002 -2 -3 3 
8619 6 0.832369 0.415637 0.114072 -1 -2 0 
8689 6 0.11379 0.44323 0.0753595 -2 -1 6 
7181 6 0.394392 0.453672 0.131884 3 -1 7 
7999 6 0.118676 0.47419 0.0838857 6 -4 -3 
6537 6 0.65608 0.433534 0.0969254 3 3 0 
6423 5 0.896549 0.47348 0.0773426 3 4 1 
5613 6 0.94932 0.438676 0.0801599 -2 -3 2 
7819 5 0.948067 0.513295 0.0622122 1 4 2 
8334 6 0.589501 0.534337 0.0348405 -4 3 5 
5546 6 0.75198 0.490314 0.0912466 -4 0 2 
8635 6 0.841177 0.499629 0.115649 3 3 -1 
6005 5 0.0416051 0.568721 0.0798063 6 1 0 
7681 6 0.351514 0.543392 0.155229 0 -2 2 
6737 6 0.993796 0.537744 0.107306 0 0 -5 
6897 6 0.0291121 0.571706 0.126846 2 -5 5 
5375 5 0.165699 0.559087 0.125012 -1 -1 1 
8070 5 0.499015 0.576776 0.112061 3 1 -3 
5293 6 0.74787 0.567637 0.113247 1 0 -2 
5896 6 0.240925 0.572719 0.0974456 4 1 0 
8850 6 0.265939 0.623723 0.126034 2 -1 -2 
8949 5 0.988031 0.665373 0.0857669 2 5 -2 
6359 5 0.694491 0.624559 0.105928 0 2 -3 
5148 6 0.674608 0.624476 0.150311 -2 1 0 
8216 6 0.106465 0.673777 0.127282 0 2 3 
7572 6 0.318653 0.675536 0.0793347 2 0 0 
8762 6 0.433869 0.675502 0.085597 7 -1 1 
8467 5 0.177662 0.735497 0.0741711 -5 3 0 
6973 6 0.488413 0.71795 0.12775 2 -2 -3 
8233 6 0.526743 0.671557 0.146105 2 -1 1 
5806 5 0.913822 0.713492 0.0672549 -2 1 -2 
6896 6 0.00102924 0.724394 0.0957923 1 4 0 
6421 6 0.540301 0.707288 0.0930742 1 0 0 
7302 6 0.936026 0.743246 0.0688051 -1 4 0 
5384 5 0.0114022 0.74446 0.118374 -1 -1 0 
7490 6 0.605425 0.753647 0.169869 4 3 7 
8562 6 0.903674 0.776289 0.11131 -5 -3 3 
7293 6 0.241907 0.809319 0.107761 -2 5 -1 
7013 5 0.321727 0.806646 0.0919315 -1 -4 -1 
6194 5 0.567798 0.811844 0.0867663 5 -1 -1 
6733 6 0.349985 0.826291 0.130337 0 2 5 
6992 5 0.386532 0.826204 0.118997 -2 2 -3 
5720 6 0.983952 0.868755 0.0831341 0 -1 -2 
7923 6 0.510202 0.8632 0.0948822 3 0 0 
7478 6 0.955047 0.85425 0.0880621 0 1 -1 
7217 5 0.498608 0.91597 0.141203 -2 -1 -6 
7215 5 0.598042 0.92642 0.0684192 4 1 0 
7966 5 0.747716 0.958834 0.0851035 7 -2 2 
7756 6 0.893291 0.937616 0.0794833 1 -2 1 
6471 6 0.905279 0.943403 0.0826111 5 -1 1 
5642 6 0.660433 0.962913 0.11735 -1 -1 -2 
7889 6 0.616605 1.00075 0.107308 0 0 4 
8021 6 0.89699 0.969616 0.124418 1 4 -1 
6561 5 0.935348 0.965283 0.109196 -2 0 0 
8379 5 0.639556 0.0190651 0.127317 4 -4 -5 
8544 6 0.14282 0.0903444 0.170013 3 0 -1 
8808 6 0.60158 0.116585 0.101332 -3 5 3 
5041 6 0.738939 0.0597898 0.125853 -3 1 -5 
6336 5 0.800433 0.089241 0.158769 -3 4 -1 
7486 6 0.872165 0.0809867 0.132809 3 -3 5 
8960 5 0.646101 0.155193 0.160654 1 -3 -1 
7726 6 0.665536 0.1363 0.131475 -4 -1 -2 
7034 5 0.959012 0.142701 0.0801605 -2 -4 -3 
6417 5 0.251087 0.172523 0.135212 3 1 3 
7743 5 0.609912 0.212882 0.182108 -1 -3 1 
7261 5 0.725275 0.163201 0.135291 1 0 -4 
6030 6 0.682071 0.181038 0.148814 -2 -3 -2 
8448 6 0.207682 0.213656 0.117282 5 -3 3 
6626 6 0.681976 0.206112 0.121064 2 -5 -3 
7423 5 0.963058 0.202018 0.0957834 2 -5 -2 
8017 6 0.190585 0.217735 0.110595 2 -1 4 
8757 6 0.710363 0.230798 0.129667 4 3 -3 
5531 5 0.466518 0.241436 0.115095 2 0 -2 
6448 5 0.253665 0.285727 0.147003 -2 1 -1 
6656 5 0.396678 0.287456 0.152384 2 -1 -4 
5826 5 0.832125 0.32706 0.093323 -1 3 -1 
6915 5 0.632463 0.343952 0.141549 1 -2 0 
6454 5 0.980824 0.330954 0.0976202 -1 5 7 
5378 5 0.372448 0.363513 0.125826 0 0 1 
8316 6 0.191291 0.350771 0.165349 -3 0 1 
5595 6 0.461794 0.358025 0.148024 5 -1 5 
6312 5 0.0124774 0.398129 0.0895699 -1 -4 3 
8433 6 0.676556 0.445095 0.120083 1 2 3 
7408 6 0.428735 0.389099 0.153346 1 1 -6 
5295 6 0.459857 0.415431 0.163383 -1 4 1 
5860 6 0.496141 0.411153 0.0716539 -1 0 1 
7054 5 0.0473922 0.460578 0.145429 -3 4 -5 
7092 5 0.584564 0.477251 0.101234 2 1 4 
8272 5 0.893818 0.471454 0.116311 3 3 1 
6545 6 0.57423 0.475671 0.108427 -2 3 -2 
6326 6 0.88913 0.475902 0.0906217 1 2 2 
8729 5 0.050171 0.474715 0.132787 -1 -3 0 
7998 5 0.25506 0.538944 0.119605 0 2 -4 
6938 6 0.343223 0.537674 0.14157 0 -3 -3 
6440 6 0.122715 0.511891 0.135693 -5 -2 -2 
5540 6 0.128885 0.575312 0.126754 -2 -1 5 
7384 5 0.469465 0.566468 0.100489 -7 0 -1 
6403 5 0.627746 0.552185 0.130731 4 0 -5 
6395 5 0.923998 0.546155 0.13626 0 1 0 
5519 5 0.242379 0.582368 0.100453 0 1 2 
7749 6 0.396508 0.593568 0.140434 -2 2 -2 
5399 6 0.0521316 0.607827 0.159402 3 6 -1 
8097 6 0.278221 0.572001 0.138435 2 -4 1 
7853 6 0.595817 0.619841 0.0872037 0 1 -1 
8156 5 0.00424464 0.606148 0.126956 2 3 -1 
8176 6 0.0385733 0.616883 0.137722 6 -1 -2 
6410 5 0.601614 0.688229 0.158278 1 0 -1 
6688 6 0.991016 0.677341 0.118745 -1 3 -3 
6627 5 0.241513 0.718736 0.179762 4 3 2 
7832 6 0.643417 0.698349 0.132386 -2 -3 4 
8044 6 0.890705 0.716113 0.137115 5 1 -3 
8029 6 0.759801 0.783974 0.0936726 -1 -3 -3 
7463 6 0.064156 0.828939 0.107885 1 0 4 
5080 6 0.364693 0.801551 0.118545 1 -3 0 
8449 6 0.554859 0.786487 0.13019 1 -1 -2 
6386 5 0.703573 0.807153 0.119084 -3 -2 2 
7351 6 0.730134 0.823181 0.122524 1 -2 -5 
5003 5 0.0738165 0.844 0.156183 -4 0 6 
7011 6 0.404413 0.80409 0.151883 4 -2 3 
5913 5 0.686897 0.836736 0.135139 -2 -4 3 
7958 5 0.0587053 0.881701 0.115784 0 0 -6 
7862 5 0.514553 0.874988 0.104337 -5 -5 2 
7265 5 0.850761 0.849065 0.103816 -1 -2 2 
7404 6 0.873143 0.84303 0.0923273 2 -2 -1 
5585 5 0.181701 0.891966 0.135384 -3 2 -1 
5237 6 0.877376 0.861362 0.100712 -2 -4 -2 
6151 5 0.0714177 0.917371 0.123377 0 1 1 
5694 5 0.241748 0.938276 0.116911 2 0 -1 
6114 5 0.327553 0.91909 0.134327 -2 4 1 
7472 6 0.483027 0.930611 0.11659 -2 -4 3 
5863 6 0.0199445 0.907862 0.12303 3 0 0 
8670 6 0.627515 0.874882 0.103831 -1 -1 -2 
7395 5 0.911138 0.946909 0.136853 -1 9 -1 
6647 5 0.983421 0.969349 0.114497 -6 0 4 
5760 5 0.994738 0.926247 0.0792226 1 1 0 
7858 6 0.0509405 0.0373055 0.139066 -3 3 4 
7216 5 0.672164 0.00880005 0.144987 -5 1 -2 
8421 5 0.775323 0.0173269 0.170178 0 0 -3 
5707 6 0.166753 0.0424335 0.171117 1 -1 3 
7002 6 0.377876 0.00959315 0.156084 6 0 -2 
7283 5 0.538737 0.0558117 0.157398 0 2 2 
6083 6 0.703747 0.00829844 0.173418 0 -1 -3 
6310 5 0.77415 0.0503 0.183426 -2 1 3 
7237 6 0.603985 0.031182 0.115633 0 -1 -4 
8398 5 0.938282 0.053741 0.152169 -5 4 -3 
6136 6 0.190019 0.0476781 0.169529 2 -3 -3 
7087 5 0.0739073 0.0834061 0.132674 5 -4 -2 
6384 6 0.287958 0.0986083 0.169862 0 4 5 
7780 5 0.507887 0.116874 0.167368 2 -1 -1 
5460 5 0.436234 0.171686 0.124771 5 -1 3 
6093 6 0.825548 0.10707 0.125214 -3 1 6 
7229 5 0.117526 0.1994 0.128375 4 0 3 
7119 5 0.664338 0.189192 0.168546 1 0 1 
6978 6 0.612918 0.222117 0.1521 1 -2 6 
6210 5 0.946576 0.225097 0.166205 2 2 0 
8124 6 0.971007 0.251177 0.161118 -2 3 2 
6425 5 0.10323 0.269656 0.171471 0 3 1 
5090 6 0.148264 0.259576 0.110391 1 1 1 
5511 6 0.268177 0.299821 0.122862 -1 2 2 
8326 6 0.483072 0.307712 0.171844 -4 1 -1 
8196 6 0.294805 0.338949 0.126124 4 -3 -2 
7220 5 0.486526 0.379903 0.149372 5 0 2 
6091 5 0.0208714 0.405566 0.16416 2 -3 -1 
8420 5 0.665938 0.396851 0.161955 2 1 -1 
6919 6 0.701212 0.389596 0.134635 -2 6 0 
8114 6 0.98266 0.388887 0.153222 -1 5 -1 
8014 5 0.37613 0.430365 0.135388 -4 4 3 
7461 6 0.114195 0.471894 0.132331 2 1 -5 
6459 5 0.408056 0.498043 0.14091 -1 -3 -4 
5401 6 0.651881 0.542131 0.179216 -2 -3 -7 
6571 6 0.927398 0.577658 0.107629 -3 0 -4 
8914 6 0.102139 0.539471 0.142515 -1 5 -4 
6777 5 0.263909 0.626521 0.142114 -2 0 4 
5933 6 0.806205 0.678317 0.168861 -1 -3 4 
7530 6 0.177154 0.663331 0.137156 1 -2 -5 
5578 5 0.337269 0.667678 0.176151 -2 2 4 
8006 5 0.398916 0.698442 0.125899 0 -5 0 
7126 5 0.564851 0.648916 0.147458 1 -5 2 
8345 5 0.734778 0.691776 0.151282 1 0 -1 
8430 6 0.0323019 0.687466 0.181933 -5 -4 -2 
7962 6 0.38352 0.726293 0.13503 2 3 0 
8175 6 0.515439 0.695592 0.152444 0 -1 3 
8775 6 0.347474 0.769874 0.146735 -4 2 2 
5886 5 0.748888 0.75674 0.148365 3 -1 -1 
7724 5 0.3202 0.757612 0.154487 1 0 -1 
5141 6 0.621456 0.77695 0.119912 1 -5 -3 
5422 6 0.36731 0.810364 0.155981 -4 4 -7 
7778 6 0.756534 0.856988 0.156963 5 1 -1 
7385 6 0.644915 0.910785 0.151453 5 -5 -4 
6094 6 0.59213 0.88875 0.166593 -1 0 2 
7895 6 0.297059 0.976899 0.13559 -1 0 1 
6958 6 0.763538 0.995305 0.15362 1 -1 1 
7654 5 0.0812157 0.970535 0.119595 -1 -1 4 
5174 6 0.584109 0.0238134 0.169469 -3 0 1 
6006 6 0.604842 0.946164 0.144212 5 4 3 
6110 5 0.102101 0.0295273 0.175422 0 2 1 
7368 5 0.620662 0.999275 0.173751 2 -1 -1 
8170 6 0.977154 0.979523 0.159493 2 3 -1 
6780 5 0.205019 0.0448575 0.159019 2 -1 -5 
7345 5 0.546398 0.0213332 0.156127 3 -4 -2 
5547 5 0.641969 0.0601696 0.149904 -5 0 -1 
5044 6 0.907146 0.0455223 0.159505 -2 2 -2 
5890 6 0.383834 0.0574009 0.160435 -2 3 -1 
5631 5 0.385807 0.135108 0.15676 -7 4 1 
7908 6 0.74392 0.136986 0.162596 -2 -4 4 
7509 5 0.202202 0.154856 0.149773 1 1 1 
8231 6 0.877904 0.157301 0.19549 0 1 4 
7913 6 0.823209 0.200219 0.198681 0 4 1 
7045 6 0.651722 0.208069 0.209809 -3 1 1 
8598 5 0.802435 0.223193 0.190551 -2 -1 3 
5611 5 0.571843 0.281778 0.145185 5 5 -6 
7307 5 0.572179 0.22886 0.141337 -2 4 0 
7912 5 0.711266 0.250241 0.124531 1 1 2 
8276 5 0.815468 0.256796 0.172515 -4 2 -1 
5321 5 0.979496 0.26826 0.159937 0 0 5 
5754 6 0.0959137 0.301011 0.123856 1 -1 0 
5537 6 0.13648 0.31762 0.202917 -5 4 -3 
8781 6 0.373032 0.286751 0.153095 2 -1 -1 
8754 6 0.463701 0.279613 0.115314 -2 1 2 
8436 5 0.343929 0.307365 0.224002 -1 -1 2 
7207 6 0.875736 0.292442 0.13883 -4 0 3 
7305 6 0.20331 0.359168 0.168341 -7 1 2 
7187 5 0.961099 0.428444 0.176777 4 1 -2 
8941 5 0.443586 0.39724 0.148824 -5 -1 -1 
5195 5 0.690792 0.410997 0.116878 2 3 1 
7512 5 0.889412 0.394176 0.155573 -1 2 6 
7484 6 0.0973726 0.3928 0.193066 2 1 2 
6380 5 0.242539 0.413988 0.145432 -3 -5 -3 
8011 6 0.359555 0.392336 0.160814 1 -5 -4 
7086 6 0.535204 0.429204 0.165917 -2 2 -1 
8603 5 0.432214 0.464114 0.167113 -1 -1 -1 
8542 5 0.676847 0.454432 0.156065 -1 -2 0 
5062 5 0.276103 0.467579 0.177621 3 -2 4 
5229 5 0.786951 0.528993 0.150584 0 -3 4 
7206 6 0.122973 0.501709 0.141646 1 5 2 
6797 6 0.277164 0.483239 0.182173 -2 -4 6 
5779 5 0.285899 0.525124 0.200925 2 3 -1 
8944 6 0.996177 0.52181 0.185545 -9 2 -1 
5865 6 0.921563 0.553447 0.209698 1 2 3 
6437 6 0.95171 0.524723 0.171849 -2 1 2 
7713 5 0.0413121 0.557014 0.182647 -1 2 5 
8522 6 0.38229 0.542378 0.145232 1 0 3 
5525 6 0.521465 0.572926 0.177566 0 0 4 
7605 5 0.648637 0.573056 0.142695 0 -1 4 
8919 5 0.141346 0.610261 0.158111 5 -2 3 
6013 5 0.809862 0.541502 0.177385 -2 -1 -1 
5729 5 0.845666 0.559598 0.169568 -1 2 1 
5894 5 0.547161 0.62536 0.152087 0 -2 -4 
7723 6 0.912805 0.624494 0.137199 2 -2 0 
7017 6 0.00672992 0.667537 0.177168 -1 0 -2 
5845 6 0.0925849 0.671578 0.184492 0 1 5 
5908 6 0.519183 0.6601 0.184438 2 -1 -1 
7585 6 0.587144 0.640945 0.184789 1 -2 1 
7448 6 0.332505 0.673513 0.201841 -3 3 0 
5374 6 0.509367 0.688621 0.167205 -3 -3 1 
6874 6 0.890958 0.69175 0.180774 -1 -3 9 
7537 6 0.976679 0.676552 0.171088 -3 -1 1 
7849 6 0.182203 0.682204 0.166589 -1 2 -1 
8578 6 0.372665 0.731883 0.191742 0 1 -1 
7642 6 0.932518 0.696264 0.145495 -1 -2 1 
5856 6 0.0830901 0.701078 0.194379 6 6 -1 
7961 5 0.580103 0.711657 0.17647 0 -1 -2 
6494 5 0.118219 0.698779 0.178531 -4 -3 -2 
8258 6 0.22347 0.720067 0.169475 3 -2 -3 
6834 6 0.194749 0.729045 0.161882 4 -6 2 
7326 6 0.371994 0.730456 0.16559 3 -1 -4 
7719 5 0.84739 0.759284 0.176792 -2 9 -1 
8858 6 0.961714 0.721781 0.14534 2 -4 -3 
8328 5 0.676864 0.760927 0.172035 -1 1 2 
6744 6 0.752852 0.763273 0.173268 -2 -2 -4 
6022 5 0.144103 0.786511 0.135847 0 0 0 
5218 6 0.591668 0.784139 0.148917 -1 -2 1 
6910 6 0.49945 0.823218 0.194689 4 -4 1 
7106 5 0.550885 0.831016 0.182124 -3 0 -2 
5950 6 0.804871 0.851138 0.180309 -1 -1 -2 
6068 6 0.0163885 0.836766 0.1826 1 1 3 
8227 6 0.974559 0.822908 0.144067 1 0 1 
5718 6 0.0224178 0.893082 0.176493 2 0 3 
5299 5 0.076082 0.868022 0.18065 -3 1 -1 
7100 5 0.226723 0.875654 0.166353 2 4 2 
5661 6 0.265165 0.878432 0.145627 -4 1 0 
8550 5 0.726375 0.876513 0.14637 0 4 0 
8896 5 0.0267352 0.897539 0.145246 2 3 -1 
6470 6 0.0442623 0.932922 0.163971 -3 1 -2 
5142 6 0.965982 0.922109 0.161285 4 0 0 
6533 6 0.264566 0.9711 0.187733 2 -1 -2 
7467 6 0.728679 0.951349 0.158094 1 -5 -5 
5566 5 0.0885652 0.922025 0.224229 3 0 1 
6354 6 0.657331 0.955894 0.209941 -3 2 -1 
7447 6 0.239014 0.979523 0.164657 1 2 2 
8791 6 0.621726 0.958106 0.169894 -3 1 5 
8403 5 0.00653337 0.984391 0.193062 -3 -1 4 
6363 5 0.36405 0.0492299 0.177595 2 1 3 
6861 5 0.860869 0.0445037 0.171421 -1 6 -4 
6300 5 0.433021 0.0166382 0.216325 1 -1 -4 
6190 6 0.497997 0.0202101 0.176294 -1 2 -1 
6584 6 0.33238 0.116067 0.194303 -2 3 5 
8287 6 0.554626 0.0647016 0.176051 4 -4 -4 
5809 5 0.479764 0.081989 0.198307 -3 0 0 
6983 6 0.655826 0.0628964 0.237633 -2 4 0 
7576 5 0.260671 0.103052 0.224136 -5 0 -1 
7971 5 0.387117 0.116967 0.197194 5 3 2 
7185 5 0.032214 0.0881639 0.1925 -1 -4 1 
6830 5 0.195126 0.146765 0.187979 -1 1 3 
6757 5 0.552076 0.166128 0.155863 -5 0 3 
6439 6 0.207927 0.163407 0.211435 -1 -1 1 
8839 5 0.103787 0.173668 0.204718 3 1 1 
8957 5 0.274804 0.178589 0.220809 -1 1 5 
8289 5 0.409074 0.184759 0.174989 -2 6 1 
5646 6 0.378643 0.183633 0.20665 -2 -4 -3 
6381 5 0.409131 0.179349 0.193477 -5 -1 5 
6774 5 0.536851 0.178932 0.190768 -1 2 1 
7133 5 0.739277 0.163839 0.182102 -1 3 -3 
8535 5 0.146468 0.154484 0.189293 3 10 3 
7380 5 0.54928 0.169652 0.227303 1 -6 -1 
7462 6 0.760333 0.15747 0.20069 -3 0 4 
6120 6 0.533882 0.235091 0.188506 3 6 2 
6450 5 0.770203 0.222573 0.176985 -6 1 -1 
8552 5 0.0761998 0.240066 0.19829 3 -2 1 
5123 6 0.513162 0.231469 0.23527 -1 0 -4 
6857 5 0.903742 0.26132 0.196548 1 5 1 
8981 6 0.527386 0.285617 0.217993 1 4 -2 
6206 5 0.108055 0.352417 0.195617 0 -4 -3 
8119 5 0.366872 0.34947 0.201252 -3 -2 -1 
6255 6 0.871801 0.324713 0.220074 7 -4 -1 
6456 6 0.438917 0.351634 0.206987 2 1 -4 
7082 6 0.862708 0.381007 0.231048 -6 -2 -1 
5998 6 0.00475788 0.377225 0.254382 0 0 -2 
6781 6 0.592349 0.378602 0.163912 1 -1 3 
8983 6 0.66764 0.398616 0.200347 1 4 -2 
5441 6 0.880981 0.398179 0.180064 -2 7 0 
5388 6 0.989766 0.355259 0.22723 -2 -3 -1 
8704 5 0.995218 0.454879 0.186454 -2 2 -4 