ITEM: TIMESTEP
20000000
ITEM: NUMBER OF ATOMS
9000
ITEM: BOX BOUNDS pp pp pp
-75 75
-75 75
-75 75
ITEM: ATOMS id type xs ys zs ix iy iz 
6966 6 0.123456 0.0125376 0.04983 4 4 0 
5040 6 0.773796 0.0306375 0.0398471 -1 -1 1 
6919 5 0.0651073 0.078277 0.0391351 -1 2 -2 
7599 6 0.098865 0.0559524 0.0378323 2 5 6 
7033 6 0.331496 0.0749647 0.991659 2 -2 0 
5501 5 0.970051 0.11282 0.986826 -5 1 1 
7357 5 0.534138 0.119476 0.0504025 5 4 1 
6284 6 0.656791 0.0979537 0.015738 0 1 -3 
7508 6 0.985603 0.070036 0.992596 2 1 -3 
5422 6 0.103376 0.134727 0.0116414 -3 0 4 
5476 5 0.423438 0.0948719 0.0313315 2 -1 2 
5285 5 0.66418 0.137095 0.993976 -3 2 -1 
7621 6 0.145593 0.162877 0.00937523 0 0 1 
8048 5 0.198543 0.143953 0.0511779 0 1 -1 
7003 5 0.299719 0.109444 0.0245247 -5 4 -2 
6814 5 0.33066 0.154545 0.0324221 2 -2 0 
7447 6 0.607089 0.105078 0.981395 -1 4 1 
7461 6 0.74925 0.167494 0.0504085 1 7 0 
8890 6 0.289311 0.149049 0.0260675 -1 3 0 
7538 6 0.987175 0.193766 0.980499 -2 -3 1 
5215 6 0.152476 0.222365 0.993125 0 -3 0 
6728 5 0.167905 0.200314 0.00211305 5 1 1 
7428 5 0.4167 0.191077 0.9871 0 1 -1 
7226 5 0.563529 0.22862 0.0374814 2 -1 0 
6392 5 0.268148 0.238077 0.960888 -2 0 1 
5370 5 0.636439 0.195743 0.997612 2 -3 1 
6094 6 0.918026 0.285487 0.991215 -2 -2 3 
8790 5 0.116673 0.2691 0.00428713 3 -2 4 
6794 6 0.204474 0.345027 0.00827495 0 -1 0 
7579 5 0.703714 0.361541 0.00893787 -3 2 0 
8587 5 0.847281 0.364839 0.00118914 0 2 -3 
8125 5 0.802081 0.328332 0.997213 5 3 -1 
8242 6 0.119637 0.361405 0.995379 4 -1 -1 
5737 6 0.372424 0.386197 0.00983263 3 1 0 
6609 6 0.816806 0.421744 0.0551409 -2 0 4 
6821 5 0.912706 0.355435 0.0102955 1 4 -3 
7584 5 0.970507 0.410045 0.0250146 2 5 3 
6433 6 0.190373 0.412567 0.0205889 1 3 3 
7600 5 0.399684 0.421125 0.0308624 1 2 -1 
8042 6 0.838108 0.430711 0.000641577 0 -2 -2 
6327 5 0.646203 0.434278 0.0164934 -2 -7 2 
7421 6 0.795588 0.427635 0.982469 -1 0 -3 
8572 6 0.0435325 0.46336 0.013082 3 0 -3 
7693 5 0.360672 0.442743 0.0137147 -3 -1 3 
5483 6 0.559094 0.447125 0.0229318 -1 1 -2 
6458 6 0.612709 0.398671 0.966104 -1 -5 -2 
6782 5 0.246108 0.485299 0.0330622 0 5 -3 
5412 5 0.866975 0.523835 0.998859 4 -1 8 
5236 6 0.699025 0.558587 0.988511 4 -2 -3 
8685 5 0.858803 0.611275 0.986406 1 2 -2 
5424 5 0.921441 0.55634 0.0136268 -2 0 5 
6297 6 0.712697 0.648047 0.975895 -3 3 0 
8332 5 0.379186 0.585584 0.0149644 -2 -2 0 
5799 6 0.134314 0.608926 0.0100087 2 -1 0 
7893 5 0.445265 0.647067 0.0515198 2 -3 -3 
7614 5 0.541312 0.67116 0.0243897 1 -3 4 
4834 1 0.475733 0.677852 0.0240747 0 0 0 
4836 1 0.470802 0.67425 0.0272536 0 0 0 
4835 1 0.471519 0.680536 0.0279092 0 0 0 
4832 1 0.482765 0.680574 0.0242308 0 0 0 
4833 1 0.47708 0.683936 0.0249768 0 0 0 
4831 1 0.481004 0.684003 0.0189382 0 0 0 
4830 1 0.48234 0.677944 0.0172758 0 0 0 
4952 1 0.513198 0.681473 0.00308889 0 0 0 
4950 1 0.51901 0.677041 1.00017 0 0 -1 
7332 5 0.530884 0.675066 0.0133352 0 1 3 
4951 1 0.519534 0.682967 0.00245751 0 0 0 
4953 1 0.514139 0.686779 0.999209 0 0 -1 
4947 1 0.528442 0.672475 0.00548149 0 0 0 
4949 1 0.522611 0.676461 0.00531016 0 0 0 
4946 1 0.525335 0.666711 0.00584606 0 0 0 
4948 1 0.524249 0.671895 0.000804765 0 0 0 
4874 1 0.518807 0.679087 0.0192632 0 0 0 
4940 1 0.53022 0.661973 0.024073 0 0 0 
4943 1 0.529028 0.66234 0.0161597 0 0 0 
4944 1 0.524142 0.66429 0.0128253 0 0 0 
4828 1 0.486998 0.681629 0.0123586 0 0 0 
4829 1 0.487631 0.681112 0.0186106 0 0 0 
4826 1 0.493875 0.683518 0.0136329 0 0 0 
4827 1 0.488865 0.687315 0.0149304 0 0 0 
4824 1 0.496702 0.682547 0.00706735 0 0 0 
4822 1 0.502027 0.688479 0.00613796 0 0 0 
4825 1 0.490778 0.684956 0.00778666 0 0 0 
4823 1 0.497835 0.68778 0.0106036 0 0 0 
4884 1 0.496291 0.691529 0.0238246 0 0 0 
4886 1 0.493913 0.690886 0.0310043 0 0 0 
4821 1 0.501376 0.69425 0.00906875 0 0 0 
5153 5 0.499159 0.696758 0.998593 0 2 -1 
4819 1 0.50447 0.694564 0.00290352 0 0 0 
4877 1 0.514351 0.684663 0.0170084 0 0 0 
4879 1 0.508406 0.688735 0.0173036 0 0 0 
4876 1 0.513515 0.682866 0.0232228 0 0 0 
4817 1 0.508283 0.697925 0.99794 0 0 -1 
4875 1 0.519635 0.684704 0.021902 0 0 0 
4873 1 0.522466 0.678424 0.0241187 0 0 0 
4870 1 0.531888 0.679422 0.0198624 0 0 0 
7035 5 0.706341 0.738287 0.0713435 -3 3 1 
5688 5 0.537714 0.718119 0.00150349 -3 -3 0 
4801 1 0.533104 0.727904 2.45382e-05 0 0 0 
4802 1 0.53669 0.724247 0.99649 0 0 -1 
4798 1 0.537917 0.724318 0.00970082 0 0 0 
4799 1 0.533854 0.722591 0.00507697 0 0 0 
4800 1 0.5388 0.726147 0.0026282 0 0 0 
4797 1 0.537337 0.717552 0.0094996 0 0 0 
4796 1 0.535 0.720194 0.0145134 0 0 0 
4795 1 0.541244 0.718762 0.015719 0 0 0 
4790 1 0.55205 0.733594 0.0183951 0 0 0 
4793 1 0.5458 0.723282 0.0191437 0 0 0 
4791 1 0.550781 0.728629 0.0222308 0 0 0 
8742 5 0.562474 0.703194 0.034742 4 -2 2 
4789 1 0.557023 0.72915 0.0190528 0 0 0 
4786 1 0.564165 0.732392 0.0259699 0 0 0 
4794 1 0.540608 0.725002 0.0158336 0 0 0 
4792 1 0.546326 0.730036 0.0182571 0 0 0 
4784 1 0.570876 0.734429 0.0261936 0 0 0 
8310 5 0.879599 0.702734 0.967371 3 -6 -4 
4788 1 0.556574 0.732226 0.0248137 0 0 0 
4787 1 0.560903 0.735397 0.0214795 0 0 0 
4782 1 0.575216 0.733896 0.0319745 0 0 0 
4780 1 0.582209 0.734518 0.0343925 0 0 0 
4785 1 0.566084 0.738554 0.0262301 0 0 0 
4781 1 0.579873 0.736664 0.0288798 0 0 0 
4783 1 0.57298 0.739337 0.0298196 0 0 0 
7989 6 0.0613085 0.768036 0.00971452 6 -3 -6 
8677 5 0.734433 0.773727 0.992675 7 0 -3 
8254 5 0.966996 0.825684 0.978681 -7 4 4 
6739 6 0.383164 0.811654 0.0215796 3 1 2 
7979 5 0.453513 0.815368 0.025338 3 0 1 
5317 6 0.0741075 0.808109 1.00046 -1 -1 -1 
5936 5 0.257515 0.832156 0.0190851 6 0 2 
6097 6 0.315327 0.789757 1.00187 -1 -4 1 
5597 6 0.602321 0.875576 0.0138926 -2 2 0 
7153 5 0.831416 0.85558 0.0402508 -2 -2 5 
5488 6 0.848161 0.841643 0.0499714 -2 3 -1 
6498 5 0.716724 0.870657 0.0207172 0 -5 -4 
6593 6 0.573155 0.888468 0.0306283 2 0 -1 
6069 5 0.169165 0.923683 0.0168993 2 0 0 
5223 6 0.541993 0.92421 0.0112788 1 2 -1 
8218 6 0.931772 0.880674 0.00489296 -2 0 -1 
8886 6 0.318686 0.937358 0.0206141 3 -1 -3 
7050 6 0.558607 0.916619 0.00543147 -5 0 0 
8779 6 0.0250348 0.927558 0.0163181 0 -1 2 
8483 5 0.373345 0.00729898 0.00633101 -3 -1 2 
7491 5 0.510994 0.919718 0.993116 -2 0 -1 
8612 5 0.537928 0.983202 0.0131077 3 3 1 
5273 6 0.888708 0.938989 0.0404429 -7 0 3 
6438 6 0.973211 0.942648 0.00953113 -5 -1 -3 
7209 5 0.701443 0.0184149 0.0721428 2 1 -4 
6459 5 0.48726 0.0357128 0.0460643 0 2 0 
5047 5 0.679436 0.036517 -0.00146022 -5 3 -3 
5950 5 0.816537 0.0867589 0.0508712 -2 1 1 
6938 6 0.0130404 0.0958273 0.0360126 0 6 2 
6750 5 0.575357 0.0685858 0.995086 -3 3 -2 
7227 5 0.756946 0.0870445 0.0478976 0 4 3 
7702 6 0.763292 0.0937354 0.0171694 -1 0 1 
5970 6 0.789234 0.0733544 0.0380276 -2 -4 0 
7395 5 0.503631 0.0930467 0.0408266 -2 1 -5 
7583 5 0.761152 0.0781141 0.0287067 -3 2 2 
8234 6 0.757979 0.102069 0.0485289 -8 -5 0 
8416 6 0.0476854 0.117675 0.0764677 5 2 -4 
8154 6 0.26931 0.123984 0.0355953 5 3 -1 
5746 6 0.562644 0.127653 0.0246326 -2 2 -2 
8617 6 0.353335 0.1305 0.0674293 1 2 -1 
6810 6 0.543392 0.168341 0.0248008 4 4 6 
6994 5 0.243033 0.162192 0.0378059 -1 6 -5 
7849 6 0.333385 0.175905 0.988257 -3 4 0 
5211 5 0.570466 0.202671 0.0656021 1 -5 2 
8640 5 0.536199 0.206297 0.0329641 -3 8 -1 
8331 5 0.928212 0.229357 0.017445 0 2 1 
5203 6 0.447701 0.1968 0.0312876 4 -3 0 
7634 5 0.654894 0.213467 0.0172617 -1 1 -1 
7074 6 0.884606 0.203181 0.0413164 -1 6 -1 
7047 6 0.89373 0.237142 0.031896 2 2 -3 
7362 6 0.552633 0.319072 0.0312036 2 0 0 
8097 5 0.233362 0.278464 0.0143095 5 0 4 
8816 5 0.494174 0.302364 0.0383228 4 2 -7 
5427 5 0.775921 0.324641 0.0781579 0 -3 -5 
5425 5 0.945522 0.344354 0.0227227 0 -3 2 
5773 6 0.289134 0.362255 0.0421029 -3 1 -2 
8343 5 0.928994 0.400534 0.997095 -1 -5 6 
5353 6 0.00132607 0.401149 0.0338355 2 0 4 
5751 6 0.181091 0.366605 0.0612416 -4 3 -5 
8089 5 0.177808 0.361998 0.0546872 -4 4 -2 
6613 5 0.245691 0.438104 0.000311137 -1 2 2 
7661 6 0.720092 0.369279 0.0511076 0 6 0 
8804 5 0.0571347 0.39611 0.0342626 1 -2 1 
7642 5 0.268206 0.436453 0.044273 1 0 2 
8912 6 0.299033 0.435653 0.997137 0 5 2 
5125 6 0.412236 0.440799 0.00826708 -3 -2 4 
6469 5 0.9548 0.426365 0.00709556 0 -3 -2 
6521 5 0.11308 0.432851 0.0477116 3 -4 2 
6648 6 0.734723 0.49735 0.0273967 1 -1 -1 
5670 6 0.268214 0.494835 0.0104418 4 -1 -3 
6932 6 0.415713 0.482658 0.0325289 1 3 0 
7872 6 0.522023 0.496469 0.0324745 -3 4 5 
7942 6 0.957206 0.532074 0.0112744 -3 -2 5 
5833 6 0.156905 0.52668 0.0539924 0 0 0 
8404 6 0.393941 0.612042 0.0320794 0 -1 -4 
8818 5 0.235876 0.627341 0.0295801 1 4 2 
8073 5 0.245928 0.644358 0.99009 2 3 -9 
6661 6 0.749177 0.603674 0.0138832 -5 -1 4 
7480 6 0.458863 0.638319 0.0322893 1 2 1 
4941 1 0.526107 0.666342 0.0217325 0 0 0 
4839 1 0.47876 0.676231 0.0331657 0 0 0 
4837 1 0.47092 0.676213 0.0335796 0 0 0 
4838 1 0.474575 0.671249 0.032019 0 0 0 
4842 1 0.486599 0.671252 0.0392706 0 0 0 
4841 1 0.48 0.671745 0.0393549 0 0 0 
4840 1 0.482025 0.670538 0.0333523 0 0 0 
4844 1 0.487527 0.663168 0.03989 0 0 0 
4843 1 0.483716 0.667001 0.0435949 0 0 0 
4846 1 0.493464 0.659321 0.0413458 0 0 0 
4845 1 0.48964 0.662336 0.0458958 0 0 0 
4847 1 0.497044 0.66287 0.0456264 0 0 0 
4945 1 0.529511 0.667321 0.0107457 0 0 0 
4848 1 0.498758 0.66433 0.039444 0 0 0 
4849 1 0.501147 0.668283 0.0435443 0 0 0 
4851 1 0.502441 0.670451 0.0365446 0 0 0 
4850 1 0.506064 0.666614 0.0402124 0 0 0 
4852 1 0.507583 0.673792 0.0393926 0 0 0 
4939 1 0.529545 0.667602 0.0277837 0 0 0 
4942 1 0.524316 0.660446 0.0192906 0 0 0 
4872 1 0.52528 0.675976 0.0190945 0 0 0 
4938 1 0.535307 0.66769 0.0250356 0 0 0 
4933 1 0.546364 0.669634 0.030804 0 0 0 
4931 1 0.553507 0.669241 0.0283829 0 0 0 
4932 1 0.54953 0.673303 0.026195 0 0 0 
4936 1 0.535883 0.673694 0.0294514 0 0 0 
4937 1 0.535735 0.667292 0.0314116 0 0 0 
4935 1 0.540131 0.672195 0.0339368 0 0 0 
4934 1 0.543357 0.675333 0.029465 0 0 0 
4930 1 0.556808 0.671332 0.0237898 0 0 0 
5832 5 0.672566 0.674193 0.0336791 0 1 2 
8275 5 0.284241 0.699058 0.0618517 1 2 0 
4881 1 0.506079 0.692262 0.0233697 0 0 0 
4888 1 0.489432 0.696968 0.0300846 0 0 0 
4893 1 0.501487 0.709543 0.0244779 0 0 0 
4887 1 0.495532 0.697383 0.0310053 0 0 0 
4885 1 0.499965 0.69171 0.029164 0 0 0 
4883 1 0.500991 0.687429 0.0236038 0 0 0 
4882 1 0.502087 0.691868 0.0187429 0 0 0 
4891 1 0.496718 0.703477 0.0232543 0 0 0 
4880 1 0.508591 0.695036 0.0184026 0 0 0 
4878 1 0.513215 0.690037 0.0215106 0 0 0 
4895 1 0.506968 0.71007 0.0301309 0 0 0 
4855 1 0.505773 0.682035 0.040844 0 0 0 
4857 1 0.511303 0.685844 0.037144 0 0 0 
4858 1 0.516689 0.687205 0.0400606 0 0 0 
4859 1 0.51631 0.690987 0.0350783 0 0 0 
4900 1 0.513606 0.721295 0.0345976 0 0 0 
4899 1 0.516663 0.717898 0.030132 0 0 0 
4862 1 0.523267 0.697708 0.0344801 0 0 0 
4861 1 0.523878 0.69143 0.0346958 0 0 0 
4897 1 0.513089 0.712299 0.0267406 0 0 0 
4871 1 0.526121 0.682209 0.0192806 0 0 0 
4869 1 0.530327 0.68325 0.0253413 0 0 0 
4868 1 0.530877 0.686886 0.0202655 0 0 0 
4867 1 0.532036 0.690173 0.0258355 0 0 0 
4866 1 0.529403 0.69409 0.0218248 0 0 0 
5880 5 0.554012 0.711544 0.0465375 -3 4 4 
4863 1 0.529471 0.696402 0.0341831 0 0 0 
4864 1 0.526681 0.694478 0.0287764 0 0 0 
4865 1 0.53186 0.697754 0.0265003 0 0 0 
4860 1 0.520293 0.694045 0.0393997 0 0 0 
7168 5 0.549816 0.675375 0.0346823 -4 -1 4 
4929 1 0.561411 0.66977 0.0276398 0 0 0 
4928 1 0.562089 0.675843 0.026028 0 0 0 
4922 1 0.555582 0.691487 0.0250656 0 0 0 
4927 1 0.556563 0.675773 0.0292913 0 0 0 
4926 1 0.555599 0.678454 0.0229054 0 0 0 
4923 1 0.553489 0.686628 0.0217604 0 0 0 
4924 1 0.55902 0.685043 0.0242167 0 0 0 
4925 1 0.55418 0.682346 0.0277526 0 0 0 
6515 6 0.568619 0.708144 0.0129486 6 -6 3 
7699 6 0.643645 0.673343 0.0349449 -1 3 -2 
8265 6 0.867735 0.702907 0.0472987 3 0 -1 
4890 1 0.491838 0.703985 0.0275881 0 0 0 
4889 1 0.492401 0.698437 0.0245294 0 0 0 
4892 1 0.495636 0.709337 0.0263733 0 0 0 
4894 1 0.502156 0.714156 0.0287384 0 0 0 
4898 1 0.510282 0.716273 0.0306822 0 0 0 
4896 1 0.507591 0.712586 0.024396 0 0 0 
4901 1 0.518659 0.718643 0.0371737 0 0 0 
4902 1 0.513911 0.714993 0.0386368 0 0 0 
4906 1 0.524807 0.710434 0.0446325 0 0 0 
4907 1 0.52951 0.714872 0.0446547 0 0 0 
4904 1 0.51764 0.712069 0.0446732 0 0 0 
4917 1 0.553044 0.704491 0.0297389 0 0 0 
4916 1 0.554042 0.709721 0.0266577 0 0 0 
4915 1 0.547721 0.708209 0.0267571 0 0 0 
4920 1 0.556329 0.696855 0.0207899 0 0 0 
4919 1 0.553091 0.698024 0.0263337 0 0 0 
4918 1 0.556551 0.703408 0.0243644 0 0 0 
4914 1 0.548923 0.714249 0.0289126 0 0 0 
4913 1 0.542604 0.71366 0.0279296 0 0 0 
4905 1 0.522704 0.716132 0.0436245 0 0 0 
4903 1 0.519284 0.712 0.0384572 0 0 0 
4921 1 0.550856 0.693054 0.020966 0 0 0 
6358 5 0.192698 0.726927 0.05185 5 -1 3 
4908 1 0.531581 0.709375 0.0422479 0 0 0 
4910 1 0.538579 0.711694 0.0395353 0 0 0 
4909 1 0.532961 0.714103 0.03797 0 0 0 
4911 1 0.539017 0.715714 0.0345367 0 0 0 
4912 1 0.544071 0.711593 0.0337722 0 0 0 
4775 1 0.579099 0.749338 0.0302604 0 0 0 
4772 1 0.567987 0.751443 0.0264479 0 0 0 
4774 1 0.573047 0.747301 0.0299165 0 0 0 
4770 1 0.563984 0.757684 0.0251991 0 0 0 
4778 1 0.582353 0.742118 0.0340991 0 0 0 
4779 1 0.586261 0.73863 0.0305574 0 0 0 
4777 1 0.585192 0.745759 0.0296606 0 0 0 
4776 1 0.579026 0.743694 0.0279976 0 0 0 
4773 1 0.573801 0.753838 0.0293068 0 0 0 
4771 1 0.570313 0.756566 0.023541 0 0 0 
8013 6 0.242843 0.756458 0.0533779 -5 3 -11 
8377 6 0.37896 0.789624 0.991323 0 5 -4 
4767 1 0.566494 0.762443 0.0364261 0 0 0 
4768 1 0.562193 0.761266 0.0317248 0 0 0 
4766 1 0.560743 0.760789 0.0391388 0 0 0 
4769 1 0.567715 0.759922 0.0294786 0 0 0 
5039 5 0.687821 0.764977 0.996626 2 -2 5 
8979 5 0.822611 0.720598 0.019582 0 0 -2 
7146 5 0.146288 0.784696 0.0301221 2 -2 1 
5940 6 0.291659 0.800496 0.002744 -4 2 1 
8985 5 0.287867 0.809135 0.0360319 1 -2 2 
7063 5 0.456477 0.770683 0.0363535 1 1 -3 
8056 6 0.00633206 0.786103 0.0200882 -5 1 0 
8170 6 0.206326 0.880402 0.0488491 2 -2 -1 
7222 5 0.369587 0.857056 0.0436463 5 1 0 
5510 6 0.625269 0.881605 0.0119897 -2 -5 -4 
8069 6 0.213302 0.881428 0.990265 2 0 -3 
7961 6 0.834046 0.9685 0.066966 2 -1 1 
5984 6 0.928612 0.926236 0.0620425 0 1 3 
5862 6 0.348775 0.98035 0.0863904 1 0 -4 
5419 5 0.505267 0.987892 0.0354549 -2 1 -1 
8600 5 0.538114 -0.000807042 0.0538837 -1 -5 -2 
5368 5 0.878403 0.992667 0.0354088 2 4 -1 
7828 5 0.53532 0.0140141 0.0440792 4 -2 -1 
7345 6 0.703042 0.97297 0.0255505 0 -3 -3 
7827 6 0.801772 0.983523 0.0360552 -1 -6 0 
7999 5 0.842064 0.983635 0.0152936 -2 -5 2 
6309 6 0.0121224 0.0310159 0.071523 2 4 -1 
6985 6 0.515061 0.00968956 0.0917768 2 -1 -6 
8329 5 0.689688 0.998213 0.0503024 -1 1 -5 
5996 6 0.865339 0.0354667 0.0353337 -2 1 0 
5633 5 0.112172 0.0679593 0.0519093 1 1 1 
7732 5 0.635992 0.0593831 0.0500624 1 2 -4 
6554 6 0.217678 0.0750029 0.058266 -2 -2 2 
5378 6 0.41254 0.111322 0.0591328 2 8 4 
7581 5 0.832577 0.0752449 0.068544 3 -6 7 
8096 6 0.433718 0.0862548 0.0364827 3 0 2 
6135 5 0.0417216 0.143161 0.070241 1 1 1 
8469 5 0.527271 0.16527 0.0462576 0 2 3 
5942 6 0.831588 0.12367 0.0615158 -4 3 -1 
6518 5 0.574869 0.142151 0.0380295 0 0 -1 
7735 5 0.808711 0.162889 0.0712292 -1 0 2 
8699 6 0.839055 0.169184 0.0192189 0 4 -2 
8457 6 0.139455 0.20391 0.0508735 3 2 2 
8473 5 0.184197 0.224049 0.0478983 1 2 -1 
6222 6 0.298486 0.218374 0.0671588 -1 2 2 
7110 5 0.615659 0.237169 0.0271382 0 4 0 
6616 6 0.709103 0.197494 0.0537425 5 2 0 
8679 5 0.85108 0.219657 0.0674417 -4 0 2 
7390 6 0.218218 0.244455 0.0517413 1 1 1 
6221 6 0.784928 0.2532 0.0303521 -1 1 -2 
6619 5 0.494793 0.302511 0.0232272 3 0 2 
6449 5 0.778268 0.274468 0.0875087 -8 1 1 
6305 5 0.532887 0.338533 0.0772846 1 -3 1 
7874 6 0.673163 0.312405 0.0395424 -1 -1 1 
5528 5 0.82369 0.369467 0.0652379 0 -1 0 
8282 6 0.83705 0.371269 0.0771399 3 4 -1 
7811 5 0.364898 0.410287 0.0502137 0 5 5 
8040 6 0.745481 0.37499 0.0478393 6 -2 4 
5788 6 0.799539 0.438937 0.0835477 1 0 1 
5209 6 0.352022 0.400537 0.0303133 2 1 3 
5171 6 0.384058 0.44857 0.0122754 -4 -4 -1 
8109 6 0.963701 0.481454 0.0558654 4 -4 1 
8302 5 0.142813 0.467912 0.0598795 1 3 -1 
8674 5 0.58216 0.474738 0.0713644 3 1 -1 
8784 6 0.329852 0.466447 0.0572992 4 2 3 
6537 6 0.366925 0.537533 0.0809308 1 -3 2 
6891 6 0.385073 0.52247 0.0972925 0 -1 2 
6570 6 0.562019 0.473229 0.0420646 0 0 1 
7310 6 0.788656 0.488514 0.080161 -3 -5 -2 
6276 6 0.112993 0.542011 0.0639355 3 1 -8 
8635 6 0.84916 0.536294 0.0459424 0 0 0 
5344 6 0.684829 0.556825 0.0725387 0 -7 2 
7802 6 0.603159 0.577249 0.0360081 -1 1 1 
5537 6 0.315886 0.600629 0.0508808 -1 -4 1 
5188 6 0.416795 0.619921 0.0688015 2 0 1 
6989 6 0.624107 0.612328 0.0391023 0 3 -3 
5467 6 0.960587 0.618513 0.0570114 6 0 -1 
6090 6 0.95416 0.641003 0.0294598 -1 0 3 
8761 6 0.119735 0.66792 0.0995429 0 0 4 
6308 5 0.243896 0.61602 0.0710938 4 1 0 
4854 1 0.506915 0.677595 0.0453289 0 0 0 
4853 1 0.502044 0.676103 0.0416014 0 0 0 
8059 5 0.857008 0.697551 0.0373081 0 -4 8 
5456 5 0.30455 0.688046 0.0384359 0 -4 -1 
4856 1 0.511622 0.683211 0.0432476 0 0 0 
5588 5 0.531384 0.68925 0.0330978 4 -3 1 
8398 5 0.622223 0.675688 0.062135 -4 -2 4 
6841 6 0.493394 0.703993 0.107482 1 -4 4 
5711 5 0.754054 0.708046 0.0720885 -1 -3 3 
5386 6 0.437629 0.741466 0.0688386 -2 -1 0 
8876 6 0.69547 0.745313 0.0712435 -2 -3 1 
5824 6 0.321469 0.763751 0.050274 4 0 2 
4764 1 0.556643 0.765354 0.0430027 0 0 0 
4765 1 0.561893 0.767401 0.0396173 0 0 0 
4761 1 0.558446 0.762639 0.0523698 0 0 0 
4763 1 0.561365 0.767237 0.0466362 0 0 0 
4757 1 0.564776 0.76427 0.065544 0 0 0 
4756 1 0.562935 0.769161 0.0693563 0 0 0 
4762 1 0.555249 0.767717 0.0501425 0 0 0 
4759 1 0.562128 0.765165 0.0587755 0 0 0 
4760 1 0.555574 0.766315 0.0574993 0 0 0 
4758 1 0.558999 0.767201 0.0639389 0 0 0 
8458 5 1.00242 0.743534 0.0512533 3 0 2 
5682 5 0.146547 0.76852 0.0491125 -3 -2 -3 
8983 6 0.20855 0.809073 0.0760818 -1 -3 1 
6863 6 0.700625 0.799722 0.0669406 -1 4 0 
6836 6 0.0832468 0.815806 0.0748396 1 -3 -1 
6330 5 0.4383 0.829265 0.0985453 0 -7 1 
7826 6 0.652652 0.807767 0.0431929 3 -6 -4 
8347 5 0.439296 0.818139 0.046607 0 -4 5 
8239 5 0.504929 0.830185 0.0540763 2 -5 2 
5654 5 0.722623 0.831786 0.0446448 4 3 1 
7967 6 0.451799 0.867454 0.0657749 1 -4 5 
6476 6 0.506449 0.862003 0.0192987 -2 -3 -1 
6629 6 0.0647677 0.887006 0.0814375 5 5 6 
7566 6 0.673671 0.920501 0.0266892 5 0 5 
8628 6 0.833662 0.92646 0.0767051 2 -3 1 
6156 6 0.942159 0.907004 0.0414227 1 -2 1 
5829 5 0.898785 0.906069 0.066377 -4 -4 2 
8965 6 0.0751186 0.904414 0.0540204 2 -2 -2 
6618 6 0.861344 0.0153116 0.0847291 2 -3 2 
7838 5 0.0690582 0.0267993 0.0619067 1 -1 3 
6641 5 0.307094 0.0476986 0.0646869 -1 5 -1 
6614 5 0.699715 0.0098416 0.0536884 -3 -2 -4 
8438 5 0.04345 0.100282 0.0935803 5 -3 1 
5797 5 0.631445 0.0590885 0.104809 4 2 2 
5012 6 -0.000808735 0.0887689 0.0772108 -3 2 2 
5906 6 0.693383 0.0897401 0.0302202 -1 2 -4 
5878 6 0.367157 0.137645 0.10236 -4 1 1 
8726 6 0.366471 0.16926 0.106131 1 -1 4 
8159 5 0.0371086 0.172044 0.0827742 1 4 1 
7121 6 0.568109 0.152735 0.0753358 -3 4 -1 
8300 5 0.97168 0.148427 0.0611029 0 3 0 
8870 5 0.00798374 0.180464 0.0927304 6 2 3 
6040 5 0.794643 0.164178 0.056362 -4 -3 6 
8412 5 0.349292 0.213189 0.0997755 1 1 0 
5305 5 0.55141 0.211126 0.0715023 1 -1 2 
7068 5 0.144876 0.208629 0.0845456 -3 2 2 
8076 5 0.247067 0.227099 0.0494141 6 1 0 
5957 5 0.367141 0.190736 0.0924556 3 -3 1 
8792 5 0.538736 0.186093 0.0994771 1 0 -2 
7910 5 0.97595 0.211487 0.0915699 -4 -1 3 
5470 6 0.171359 0.250502 0.00227515 0 -1 -2 
5421 5 0.504946 0.258044 0.113736 1 -5 -2 
6032 5 0.0343377 0.221972 0.104354 -1 4 -1 
6176 5 0.102164 0.302635 0.0771819 -3 -2 -5 
5095 5 0.844614 0.282149 0.0681413 6 7 -2 
7503 6 0.926646 0.253491 0.0656199 -1 -2 0 
7028 6 0.96973 0.245535 0.0784351 -3 -1 -1 
7729 6 0.855835 0.261485 0.0798524 -2 2 2 
8449 5 0.607136 0.315123 0.0803778 1 -1 0 
5494 6 0.247001 0.302114 0.0943245 -4 -2 3 
7173 6 0.254269 0.398254 0.0524984 0 -1 3 
8284 5 0.553563 0.377328 0.124344 -1 2 1 
5328 6 0.123013 0.387418 0.061231 3 0 3 
7844 6 0.0157184 0.407244 0.10778 -1 -1 3 
5677 6 0.338565 0.397921 0.0977828 1 -1 1 
7527 6 0.537578 0.410626 0.0503839 2 2 2 
8423 6 0.501231 0.397146 0.0529815 -4 -2 2 
6612 5 0.103034 0.487205 0.0868107 2 1 2 
7229 6 0.25352 0.433326 0.0692241 -1 2 5 
7151 6 0.580762 0.458704 0.115394 -7 -2 -2 
5092 6 0.786817 0.476156 0.0792883 2 4 -2 
5777 6 0.903981 0.44421 0.0874859 3 -4 3 
6945 5 0.896532 0.500485 0.0841282 0 -2 0 
8024 6 0.427596 0.524106 0.0710861 1 6 0 
5275 6 0.399028 0.50009 0.0665853 1 -3 -5 
8466 6 0.4755 0.519569 0.052952 2 -5 2 
7302 5 0.66653 0.495136 0.0867271 -3 1 2 
5907 5 0.973755 0.565648 0.0691391 -4 -1 -2 
8054 6 0.242098 0.565808 0.0867405 0 -3 2 
5487 6 0.736541 0.555314 0.0759316 3 2 1 
7831 5 0.571801 0.55333 0.0572875 -2 0 4 
5909 6 0.918329 0.592917 0.0705484 1 1 -1 
5748 6 0.284747 0.61498 0.0455928 1 5 1 
8053 6 0.560307 0.62542 0.0791991 -2 -2 -2 
2042 1 0.660424 0.604556 0.0961351 0 0 0 
2044 1 0.656396 0.610723 0.0947772 0 0 0 
2045 1 0.657278 0.614988 0.0997623 0 0 0 
5297 6 0.155014 0.632127 0.0645863 -1 2 4 
2046 1 0.652402 0.616862 0.0959184 0 0 0 
2015 1 0.672377 0.628846 0.0904849 0 0 0 
2014 1 0.675651 0.630333 0.0851029 0 0 0 
2013 1 0.670841 0.626588 0.0829426 0 0 0 
8216 6 0.114046 0.630462 0.0931871 2 0 0 
8244 5 0.42751 0.649266 0.0925945 -1 -1 5 
2202 1 0.611155 0.648308 0.0879879 0 0 0 
2203 1 0.613319 0.642797 0.0858131 0 0 0 
2201 1 0.616081 0.646776 0.0914159 0 0 0 
2205 1 0.609247 0.636371 0.086902 0 0 0 
2199 1 0.613715 0.652914 0.0945677 0 0 0 
2200 1 0.610565 0.647297 0.0953204 0 0 0 
2008 1 0.658258 0.647565 0.0910526 0 0 0 
2009 1 0.656118 0.646238 0.0851659 0 0 0 
2010 1 0.660697 0.642045 0.0871689 0 0 0 
2011 2 0.665014 0.637942 0.0851498 0 0 0 
2012 1 0.66817 0.632301 0.0830549 0 0 0 
7899 6 0.965887 0.656634 0.115691 5 -4 -3 
6269 6 0.992959 0.694993 0.0723855 -4 2 0 
8651 5 0.258986 0.708207 0.0952645 2 1 -1 
2007 2 0.656818 0.653636 0.0934812 0 0 0 
2006 2 0.657054 0.659768 0.0939808 0 0 0 
2005 2 0.659727 0.665564 0.0941682 0 0 0 
2004 2 0.661815 0.671479 0.095215 0 0 0 
7434 5 0.74833 0.703451 0.0645326 0 5 0 
6490 5 0.776159 0.640498 0.0994846 2 3 -3 
1998 1 0.644646 0.699552 0.0911564 0 0 0 
2002 2 0.655608 0.678374 0.0860227 0 0 0 
2003 2 0.660122 0.675147 0.0897815 0 0 0 
2001 2 0.653643 0.684607 0.0846649 0 0 0 
2000 2 0.650453 0.689415 0.0873629 0 0 0 
1999 1 0.649293 0.695651 0.0886541 0 0 0 
7210 5 0.708541 0.683674 0.0908727 2 -3 7 
5026 5 0.148041 0.711576 0.0694881 -4 -4 -4 
5890 5 0.307896 0.722118 0.0547609 -1 -7 -1 
5718 5 0.767401 0.722333 0.069717 2 -2 0 
5031 5 0.319114 0.749069 0.0806342 2 1 -1 
5130 6 0.344957 0.757392 0.0798719 -1 4 -1 
4746 1 0.546223 0.781107 0.0883751 0 0 0 
4748 1 0.550944 0.775552 0.0876849 0 0 0 
4745 1 0.547547 0.783611 0.0828029 0 0 0 
4747 1 0.546146 0.776749 0.083458 0 0 0 
4749 1 0.552816 0.772354 0.0827515 0 0 0 
4755 1 0.565157 0.764225 0.072648 0 0 0 
4754 1 0.559185 0.766741 0.0745075 0 0 0 
4752 1 0.559238 0.768724 0.0815788 0 0 0 
4753 1 0.563514 0.770415 0.0766936 0 0 0 
4751 1 0.558787 0.77494 0.0798679 0 0 0 
4750 1 0.557785 0.774199 0.0858652 0 0 0 
7958 5 0.566473 0.770027 0.0838646 -4 -2 2 
6347 5 0.476327 0.765759 0.0697384 6 -1 2 
4743 1 0.548716 0.789333 0.0879737 0 0 0 
4742 1 0.54553 0.786059 0.0925445 0 0 0 
4741 1 0.542483 0.791531 0.0913747 0 0 0 
4740 1 0.540669 0.78915 0.0971287 0 0 0 
4744 1 0.543386 0.787482 0.0851663 0 0 0 
5868 6 0.769497 0.793819 0.0628432 -8 0 3 
5362 6 0.455429 0.842096 0.0791353 4 6 2 
5418 6 0.510745 0.864453 0.0544111 -2 -3 0 
5904 5 0.269142 0.845557 0.0999192 4 -5 1 
6846 5 0.261389 0.878289 0.0634228 -1 -4 3 
6696 6 0.531162 0.839753 0.0702268 2 3 1 
8860 5 0.862265 0.880793 0.0779849 -2 -2 -3 
5111 5 0.0214761 0.824207 0.0739787 4 -4 1 
7575 6 0.247552 0.900395 0.098597 -3 0 -1 
6073 5 0.813718 0.869994 0.105501 0 -4 -2 
5615 5 0.186699 0.904296 0.0774503 -1 -1 5 
8528 6 0.209729 0.905909 0.101431 0 2 -5 
7350 6 0.268564 0.916459 0.0566711 0 -1 -1 
7985 5 0.817265 0.906152 0.0795677 -2 -3 1 
7408 5 0.943625 0.898881 0.0709336 -3 3 -1 
5956 6 0.14809 0.934473 0.0975724 0 0 -2 
7451 5 0.131287 0.942659 0.0771068 2 1 1 
5703 6 0.581749 0.924616 0.100101 1 2 3 
7689 6 0.76382 0.940371 0.0719929 -3 -1 5 
6422 6 0.221801 0.970462 0.0657841 -9 0 6 
6307 5 0.516888 0.95114 0.101676 3 5 -2 
5096 5 0.38896 0.0296514 0.0958071 -1 -3 -3 
5831 5 0.564085 0.043342 0.0645994 1 4 2 
6439 5 0.552109 0.0247513 0.100224 5 -1 -3 
7686 5 0.137732 0.0693967 0.0846736 2 -5 -2 
7968 5 0.439936 0.102645 0.093953 1 10 2 
6774 5 0.495759 0.101265 0.130989 3 -1 -2 
6391 6 0.674624 0.0594703 0.115326 1 1 4 
6772 5 0.0523656 0.121593 0.116772 0 -1 2 
8857 5 0.770126 0.0855 0.103663 1 2 6 
6402 6 0.903274 0.0940579 0.103857 -4 0 2 
7878 5 0.216034 0.0686551 0.14238 0 -1 0 
5816 6 0.267921 0.125924 0.0890102 2 -1 0 
8603 6 0.280482 0.104971 0.127594 2 4 4 
7595 5 0.748426 0.11503 0.096999 -3 1 -3 
8987 5 0.780377 0.156565 0.0858759 -2 4 3 
5725 6 0.131376 0.186715 0.06665 2 3 1 
7534 6 0.314742 0.192018 0.120607 -3 -3 0 
8390 6 0.203814 0.212104 0.0674556 -2 -2 0 
6448 6 0.247658 0.21084 0.102419 2 3 0 
5167 5 0.950361 0.248544 0.119575 -2 5 -2 
6700 5 0.693675 0.245094 0.11253 -5 4 -2 
8515 6 0.707106 0.272597 0.104391 2 1 -1 
7424 5 0.881725 0.200753 0.113856 -1 -4 -2 
8279 5 0.512533 0.263659 0.067591 0 -4 1 
5941 5 0.0182062 0.293984 0.130534 3 0 -2 
8277 5 0.834117 0.389877 0.108884 0 0 2 
8521 6 0.220056 0.389151 0.0777738 0 -2 1 
8352 5 0.332927 0.391732 0.0744273 1 1 4 
6041 6 0.437964 0.410396 0.1013 -3 -2 -1 
6500 6 0.595885 0.385916 0.0899057 3 3 1 
6404 6 0.920365 0.392661 0.103244 3 -3 2 
7945 6 0.0652264 0.375814 0.0962045 1 -2 2 
5468 6 0.359616 0.397735 0.106083 4 4 0 
5034 6 0.893727 0.43274 0.126755 0 -2 3 
6775 5 0.697413 0.434377 0.0643675 -2 1 -4 
7194 6 0.338393 0.476017 0.10541 -2 0 2 
8991 6 0.727908 0.464388 0.104962 2 3 0 
5002 6 0.0357074 0.53177 0.110703 -2 3 -1 
6111 5 0.790038 0.563463 0.0978586 1 -3 3 
6020 5 0.796467 0.521969 0.0898146 2 -2 2 
5172 6 0.36232 0.527525 0.0680152 4 1 -1 
6278 6 0.416449 0.57556 0.0977581 2 -4 0 
6136 6 0.527156 0.555058 0.117418 -5 0 -5 
5819 5 0.550212 0.575355 0.0934175 2 0 0 
7561 5 0.963648 0.572285 0.122832 1 -1 2 
5247 5 0.266137 0.606395 0.120891 1 -1 1 
5951 6 0.31348 0.564355 0.108044 1 1 2 
7733 6 0.642553 0.573142 0.12559 6 3 -7 
8091 5 0.990788 0.572262 0.0421309 2 -5 -2 
2043 1 0.662166 0.610574 0.096888 0 0 0 
2038 1 0.650807 0.601011 0.0996836 0 0 0 
2041 1 0.661749 0.605871 0.102371 0 0 0 
2040 1 0.657838 0.600732 0.10186 0 0 0 
2039 1 0.654634 0.60613 0.102041 0 0 0 
7336 5 0.668718 0.607057 0.0986571 0 0 -3 
2036 1 0.644335 0.60172 0.102096 0 0 0 
2037 1 0.647753 0.60675 0.0995947 0 0 0 
2035 1 0.641139 0.606551 0.104208 0 0 0 
2033 1 0.642612 0.608776 0.111206 0 0 0 
2034 1 0.64674 0.606869 0.106832 0 0 0 
2030 1 0.652796 0.60877 0.117481 0 0 0 
2032 1 0.648277 0.611563 0.112697 0 0 0 
2031 1 0.649209 0.605321 0.113339 0 0 0 
2029 1 0.655702 0.608579 0.111613 0 0 0 
2028 1 0.654937 0.614608 0.112862 0 0 0 
6993 5 0.9268 0.603681 0.0968937 2 -7 4 
8313 6 0.364623 0.623788 0.0998558 3 1 3 
2208 1 0.607707 0.636499 0.0973129 0 0 0 
2207 1 0.606838 0.631852 0.0923229 0 0 0 
2209 1 0.613467 0.634471 0.0949997 0 0 0 
2152 1 0.604353 0.626694 0.113016 0 0 0 
2210 1 0.611377 0.629709 0.0990146 0 0 0 
2211 1 0.617243 0.628776 0.0973738 0 0 0 
2213 1 0.622315 0.627883 0.103823 0 0 0 
2212 1 0.615743 0.628081 0.103888 0 0 0 
2215 1 0.619071 0.633133 0.107924 0 0 0 
7112 5 0.651809 0.612308 0.105571 -5 -3 4 
2053 1 0.645766 0.617681 0.107323 0 0 0 
2217 1 0.624646 0.632857 0.112983 0 0 0 
2048 1 0.646761 0.621033 0.0978309 0 0 0 
2047 1 0.650871 0.618195 0.102008 0 0 0 
2049 1 0.643787 0.616433 0.10109 0 0 0 
2050 1 0.640414 0.621641 0.101757 0 0 0 
2051 1 0.638599 0.617485 0.106122 0 0 0 
2052 1 0.642099 0.622355 0.108897 0 0 0 
2026 1 0.659957 0.619714 0.112087 0 0 0 
2027 1 0.660753 0.613739 0.109834 0 0 0 
2025 1 0.665015 0.619952 0.108108 0 0 0 
2020 1 0.671926 0.63562 0.102996 0 0 0 
2023 1 0.663819 0.626035 0.10467 0 0 0 
2019 1 0.670056 0.633359 0.0969233 0 0 0 
2021 1 0.66618 0.632625 0.102556 0 0 0 
2024 1 0.663808 0.625809 0.110989 0 0 0 
2022 1 0.669209 0.629265 0.106794 0 0 0 
2018 1 0.675029 0.637047 0.0965459 0 0 0 
2016 1 0.677633 0.631364 0.0926471 0 0 0 
2017 1 0.673076 0.635727 0.0907207 0 0 0 
8219 6 0.2477 0.619878 0.148515 -1 5 4 
8477 5 0.334299 0.656808 0.103111 -1 -3 6 
2206 1 0.604177 0.637134 0.0907379 0 0 0 
2204 1 0.606695 0.642521 0.086402 0 0 0 
2198 1 0.607502 0.653879 0.0947285 0 0 0 
2150 1 0.603868 0.632613 0.109199 0 0 0 
5782 5 0.61048 0.649504 0.101943 3 -5 -4 
2148 1 0.604541 0.639468 0.109342 0 0 0 
2149 1 0.608618 0.635429 0.106292 0 0 0 
2147 1 0.607906 0.643514 0.106175 0 0 0 
2146 1 0.609956 0.64316 0.112792 0 0 0 
2193 1 0.607268 0.659918 0.111181 0 0 0 
2197 1 0.609892 0.656585 0.0994857 0 0 0 
2196 1 0.604593 0.653338 0.101517 0 0 0 
5249 5 0.610408 0.641138 0.0923817 5 0 3 
2214 1 0.620482 0.633699 0.101441 0 0 0 
2216 1 0.624785 0.63534 0.107303 0 0 0 
2143 1 0.619707 0.649554 0.109765 0 0 0 
2144 1 0.614593 0.648979 0.114019 0 0 0 
2145 1 0.614931 0.644895 0.109169 0 0 0 
2218 1 0.625814 0.639402 0.113542 0 0 0 
2142 1 0.616653 0.65506 0.11131 0 0 0 
2141 1 0.622761 0.656122 0.111704 0 0 0 
2139 1 0.626129 0.662287 0.108422 0 0 0 
2219 1 0.62859 0.63657 0.118315 0 0 0 
2222 1 0.625138 0.641484 0.126646 0 0 0 
2220 1 0.622817 0.638621 0.120312 0 0 0 
2221 1 0.624925 0.634899 0.125032 0 0 0 
2194 1 0.604256 0.659391 0.106001 0 0 0 
2195 1 0.608162 0.654754 0.106665 0 0 0 
2192 1 0.600978 0.657892 0.111494 0 0 0 
2140 1 0.61992 0.660447 0.107516 0 0 0 
6904 5 0.632372 0.678947 0.11844 3 3 -1 
2136 1 0.62136 0.672932 0.112426 0 0 0 
2138 1 0.622213 0.665485 0.111982 0 0 0 
5342 5 0.172402 0.694866 0.0827794 2 -3 2 
7719 5 0.243343 0.668389 0.102583 3 -1 3 