ITEM: TIMESTEP
20000000
ITEM: NUMBER OF ATOMS
9000
ITEM: BOX BOUNDS pp pp pp
-75 75
-75 75
-75 75
ITEM: ATOMS id type xs ys zs ix iy iz 
8694 5 0.695277 0.979606 0.00255721 -4 -7 -3 
8122 6 0.972677 0.0306862 0.970044 3 -5 1 
5331 5 0.859204 0.0400824 0.00543104 -1 -4 -1 
7185 5 0.44455 0.118096 0.0364428 -3 -3 -4 
7005 5 0.156507 0.116426 0.0184873 2 1 2 
6845 6 0.180135 0.0988531 0.990831 3 0 1 
5328 5 0.660567 0.0981242 0.983678 1 2 0 
6728 6 0.270576 0.194445 0.0267695 2 -2 -1 
8613 5 0.305824 0.164176 0.99269 -1 -1 1 
5316 5 0.400151 0.118538 0.00381284 4 -1 0 
7761 6 0.691287 0.189776 0.0352049 3 -2 0 
5246 6 0.942531 0.158879 0.0212977 -2 -3 4 
5861 6 0.49117 0.171676 0.0108518 -3 -1 -3 
5455 5 0.611979 0.221909 0.00522705 -2 1 0 
6714 6 0.669857 0.164409 0.0173709 4 0 2 
7112 6 0.699673 0.192095 0.990455 0 -2 3 
8502 6 0.721323 0.154163 0.0234066 -4 -1 -2 
5182 6 0.0327498 0.184951 0.0135435 8 0 -1 
6142 5 0.675179 0.185633 0.984661 1 3 -7 
8477 6 0.877771 0.14862 0.97232 -2 -6 0 
7931 6 0.211732 0.179625 0.0104872 0 4 -2 
6089 6 0.481928 0.226982 0.974682 2 5 -4 
5539 6 0.678294 0.229637 0.0171094 1 -3 0 
5919 5 0.988332 0.190576 0.00890788 -3 0 0 
7403 6 0.276884 0.234998 0.0219411 7 -4 2 
8503 5 0.369633 0.299453 0.0442567 0 0 1 
8111 5 0.634173 0.301737 0.0071715 -3 3 1 
6185 6 0.109165 0.290996 0.975918 2 -7 -6 
8659 5 0.930223 0.27986 0.0139307 -2 1 3 
8048 5 0.212171 0.334399 0.00109319 1 5 5 
8600 5 0.821826 0.311971 0.0315514 -2 2 5 
5353 5 0.0939153 0.338079 0.00406364 4 2 -1 
8843 5 0.955862 0.319035 0.0487938 -1 5 -2 
8651 5 0.55054 0.347166 0.985689 -2 2 1 
8834 5 0.610844 0.358578 0.0186732 4 -4 -3 
5977 6 0.867743 0.391094 0.00541318 3 0 -2 
7447 5 0.219038 0.43223 0.012926 1 -6 -1 
6628 5 0.277453 0.464106 0.983439 1 2 1 
6440 6 0.790924 0.442248 0.00658638 -3 -3 -2 
8847 5 0.961981 0.439683 0.0514819 -1 1 1 
5435 5 0.592067 0.454993 0.0420625 -2 5 2 
6796 5 0.56585 0.448032 0.986821 1 -2 -4 
6146 5 0.910394 0.480474 0.0208187 2 0 3 
6154 6 0.0853778 0.469337 0.0324945 2 2 0 
7621 5 0.448874 0.466452 0.0262053 0 -6 2 
8840 5 0.608797 0.476631 0.988962 2 -4 -6 
5526 6 0.398439 0.52702 0.0385447 0 1 -3 
7789 6 0.49852 0.524391 0.0140094 -2 1 -3 
8974 6 0.0845122 0.542511 0.0244697 3 0 1 
6922 5 0.597448 0.563067 0.0298787 0 2 6 
7014 5 0.760319 0.562016 0.982688 -1 2 4 
7178 5 0.941284 0.546807 0.989452 -1 -2 -1 
6640 5 0.218524 0.595222 0.998796 1 2 4 
6747 6 0.258641 0.597375 0.0367703 -2 -2 -2 
7779 5 0.685508 0.541182 0.0256573 -3 -2 1 
7063 5 0.0283798 0.59951 0.980599 -3 1 -2 
5770 6 0.507623 0.660513 -0.000209397 3 5 1 
5261 6 0.535249 0.592635 0.029021 1 -1 -8 
5767 6 0.365643 0.639531 0.0426103 -1 -3 0 
6562 5 0.843047 0.66429 0.00937028 1 -4 4 
5782 5 0.859922 0.647351 0.992455 -1 0 2 
7284 6 0.39507 0.675531 0.988221 1 1 11 
5244 5 0.412403 0.651511 0.988699 -1 -3 2 
7285 6 0.527297 0.664306 0.0157251 1 0 -4 
6585 6 0.616823 0.677159 0.991572 2 -4 -2 
8274 5 0.109314 0.722956 0.0316183 0 7 0 
8820 5 0.354127 0.697784 0.971725 -1 -4 -3 
7672 6 0.805009 0.725954 0.0255553 -1 1 5 
8727 6 0.236938 0.736573 0.0180256 -5 3 1 
5833 6 0.442833 0.734204 0.993581 -3 4 3 
6058 6 0.880968 0.772432 0.97105 1 -3 2 
7153 5 0.229652 0.787337 0.0467935 0 -1 -2 
6923 6 0.366903 0.778948 0.0430712 -1 -5 -2 
8288 5 0.471389 0.835736 0.0389366 0 -2 3 
7338 6 0.898834 0.821221 0.0401061 0 6 -2 
8298 5 0.439889 0.804833 0.994841 -1 1 1 
7080 6 0.672298 0.759001 0.991622 6 -7 3 
7724 6 0.911883 0.821553 0.984999 2 0 -2 
7071 6 0.513378 0.791641 0.00979275 -4 -1 3 
6738 5 0.677279 0.829273 0.00509964 -5 2 -5 
5700 6 0.24014 0.892013 0.991012 2 3 2 
6168 5 0.526134 0.913933 0.00463627 -6 -2 -3 
8742 6 0.453646 0.881472 0.99679 -5 0 -2 
6664 6 0.32737 0.868197 0.0218414 4 4 -2 
5493 5 0.692554 0.924517 0.00207688 -1 3 -1 
6409 5 0.235992 0.96313 0.0141867 -1 -1 6 
7583 5 0.145556 0.980957 0.0289883 -1 2 2 
8689 6 0.251026 0.0186917 0.000562512 1 -4 4 
5532 5 0.666993 0.973551 0.045928 -2 2 3 
7415 6 0.727467 0.950808 0.0123689 -3 0 2 
7940 6 0.800299 0.982436 0.0170348 0 -5 -2 
8532 5 0.97717 0.0102461 0.991314 1 4 2 
6666 6 0.554902 0.019875 0.0481337 -8 3 -1 
6972 5 0.949722 0.0158901 0.0328378 -6 -1 5 
6257 5 0.928014 0.995869 0.0415976 -5 1 3 
5577 5 0.497829 0.0326588 0.0420896 -2 -1 1 
8955 6 0.493793 0.0204515 0.0310365 2 0 4 
7090 5 0.933624 0.0191673 0.0462626 -6 -1 -1 
8862 6 0.043395 0.0658197 0.0229788 5 3 -2 
7096 6 0.558112 0.0856848 0.0366052 -1 -4 2 
5001 5 0.828945 0.097025 0.0359626 -4 0 -4 
8898 6 0.836187 0.0717891 0.0478874 -1 -2 3 
7103 5 0.817556 0.114527 0.040339 -1 -3 -4 
5009 5 0.863013 0.12356 0.0731613 -5 -1 1 
7540 6 0.561439 0.168196 0.995279 -1 -2 -5 
7163 5 0.828382 0.13355 0.0608246 -1 -1 -1 
6708 5 0.9483 0.119147 0.0453233 -1 4 -2 
8252 5 0.228919 0.161708 0.0560153 3 1 2 
7640 6 0.639614 0.215699 0.0316227 2 3 1 
6015 5 0.949622 0.170602 0.0390711 -9 2 0 
5107 6 0.227888 0.144005 0.0195266 0 1 0 
5289 5 0.403909 0.246033 -0.000274795 -1 -3 1 
5841 5 0.725828 0.174401 0.0257053 -5 -2 2 
8263 6 0.0621551 0.198369 0.0330925 2 1 1 
7912 6 0.992328 0.21989 0.026034 -3 -1 -6 
7095 6 0.499076 0.214509 0.00990817 2 4 -1 
7963 5 0.519098 0.246956 0.0437764 3 3 -1 
6466 5 0.910524 0.210832 0.0489931 -1 0 4 
5899 6 0.194516 0.275279 0.0574967 2 -2 1 
7480 6 0.509989 0.264527 0.0241576 -3 0 -4 
7098 5 0.262563 0.310859 0.0127412 2 -2 5 
5699 5 0.660311 0.322811 0.0503064 -1 1 -3 
7265 6 0.911187 0.353236 0.0154202 1 6 -2 
5434 6 0.996269 0.351014 0.0294104 -3 0 -7 
5573 5 0.123971 0.402865 0.999528 0 -2 -2 
5707 5 0.139396 0.381603 0.994445 -2 -3 1 
7375 6 0.756061 0.433938 0.0225509 6 3 4 
7472 6 0.855194 0.45098 0.021975 0 -2 -1 
5437 6 0.0191359 0.458558 0.00750941 5 -4 1 
6795 6 0.0707475 0.481134 0.0375097 -1 1 -1 
5273 6 0.231182 0.445745 0.0310157 -4 -1 0 
5510 6 0.237269 0.489499 0.0260424 3 2 0 
6739 5 0.486006 0.506027 0.0458443 -1 2 0 
7148 6 0.736289 0.513264 0.0157104 -3 -2 -1 
6784 5 0.372015 0.521987 0.0567051 4 -2 -1 
6477 6 0.72578 0.547538 0.0463293 0 1 -3 
8451 6 0.329848 0.564795 0.0625517 -1 2 -2 
6661 5 0.700068 0.555581 0.0105903 0 -3 1 
8162 6 0.189124 0.585083 0.0527906 -1 1 1 
5113 5 0.488537 0.610237 0.0448134 -1 1 0 
5912 6 0.818236 0.599293 0.0110995 1 0 2 
5939 5 0.242823 0.695314 0.0226472 -4 -3 2 
6415 5 0.304509 0.649714 0.0328665 -3 -2 -2 
5512 5 0.849099 0.652295 0.0227311 1 2 -1 
6273 6 0.855546 0.64945 0.0459419 1 7 7 
7782 6 0.385414 0.656759 0.0459352 -2 -2 -1 
5883 6 0.552913 0.688483 0.0396529 -3 4 -5 
8369 6 0.671837 0.686508 0.0105907 -4 -1 -3 
8777 6 0.975665 0.663598 0.0151478 2 0 -4 
7062 6 0.426894 0.718606 0.0384145 1 -4 0 
8769 6 0.527104 0.69654 0.0039022 -1 -3 3 
7483 5 0.424011 0.773429 0.0484414 -1 -1 2 
7086 6 0.59002 0.758956 0.0383996 3 -1 0 
7348 5 0.819862 0.713999 0.0163532 1 -1 6 
6660 6 0.20096 0.777357 0.990849 -1 2 1 
6663 6 0.377348 0.76827 0.0409124 -3 -4 1 
6514 5 0.595287 0.795275 0.021799 -1 -1 -1 
5549 5 0.69543 0.748656 0.0158668 -2 -6 -5 
8804 5 0.632157 0.811068 0.0146753 -2 -2 2 
5248 5 0.283293 0.830548 0.012348 2 2 1 
5037 5 0.0022043 0.848589 0.0432912 1 3 -1 
6492 6 0.464278 0.876735 0.0819829 -1 -3 1 
7576 5 0.998722 0.878923 0.0100256 1 -2 5 
8202 5 0.0366313 0.920888 0.0748737 -5 -5 3 
6104 5 0.639732 0.953445 0.033354 -5 0 -7 
8566 6 0.253042 0.930297 0.0347633 2 0 0 
5124 6 0.310354 0.924909 0.0238172 -5 -1 0 
8664 5 0.80831 0.965307 0.0384693 -2 -2 -3 
8481 5 0.019681 0.962905 0.0559429 -1 -5 0 
8230 6 0.0821371 0.946848 0.0426483 4 2 0 
6691 5 0.684091 0.976422 0.00957203 -2 -6 0 
5847 5 0.88988 0.942605 0.0436431 0 1 -1 
7311 5 0.0388496 0.985004 0.0407242 1 1 5 
8514 6 0.245202 0.986973 0.0584538 -3 -3 1 
7404 5 0.243328 0.00561348 0.0658436 -3 -2 -3 
7855 6 0.281088 0.0148689 0.0599464 0 2 1 
6295 6 0.387915 0.0417884 0.0720454 -2 2 -5 
6770 5 0.40434 0.0291699 0.024484 1 -1 0 
8931 5 0.494002 0.0195877 0.0808626 1 6 -2 
8851 6 0.0362319 0.00338704 0.0690438 -7 -3 -1 
5645 5 0.0702071 0.0526598 0.0838305 -1 2 -1 
8057 6 0.1942 0.0123593 0.0618052 3 1 -3 
7927 5 0.88571 0.0818866 0.0585824 -2 -1 7 
8216 5 0.848329 0.0583569 0.0705384 2 2 3 
7133 5 0.465151 0.0733312 0.0687177 0 -1 2 
8948 6 0.90491 0.0798572 0.0869646 -2 2 4 
7091 5 0.122364 0.107278 0.102501 0 5 2 
5695 5 0.320529 0.0951702 0.0645614 2 0 -2 
6100 6 0.546003 0.107375 0.0445312 1 3 4 
7493 5 0.649285 0.0753904 0.0589238 5 -1 1 
5520 5 0.590266 0.178116 0.0952213 2 -2 -1 
7396 6 0.77124 0.134601 0.0858406 2 5 -2 
6719 5 0.340533 0.113265 0.0428318 5 2 3 
5590 6 0.769647 0.166858 0.0625605 4 5 0 
8874 6 0.79102 0.132946 0.0659051 4 0 6 
8887 5 0.0857452 0.151744 0.0872037 5 1 0 
7977 6 0.171757 0.167254 0.0184837 -4 1 3 
6696 6 0.651277 0.167962 0.0323693 0 -1 -3 
5057 5 0.789942 0.216022 0.0310057 -2 -1 0 
7193 6 0.403884 0.253604 0.0617319 3 3 5 
7250 5 0.130748 0.229669 0.0667711 -1 0 -1 
6567 5 0.882286 0.284847 0.0531831 -2 -1 0 
6347 6 0.120517 0.22025 0.0765579 2 4 -1 
8294 6 0.356689 0.241988 0.0515499 1 1 2 
5688 6 0.444467 0.264074 0.025568 1 3 0 
5283 6 0.509536 0.280011 0.0195109 -2 1 2 
6869 6 0.863472 0.285508 0.0549276 1 1 1 
5235 6 0.485579 0.318497 0.0625606 1 -1 3 
6020 5 0.963074 0.270087 0.0645864 -2 1 5 
6610 5 0.353426 0.310668 0.0853589 2 0 3 
5958 6 0.131335 0.346792 0.0574015 3 -4 0 
7993 5 0.981289 0.331536 0.0471788 1 7 -3 
8213 6 0.0543975 0.369889 0.07849 -1 -2 3 
8440 6 0.530898 0.360756 0.0610246 -1 -4 -1 
7282 6 0.716305 0.386084 0.0671564 2 5 0 
6854 5 0.909638 0.386098 0.086284 3 1 2 
8570 5 0.436486 0.374723 0.0633143 -3 0 2 
5694 5 0.346721 0.433885 0.0951985 2 0 -1 
7142 6 0.523531 0.452696 0.0755454 2 -3 -3 
5596 6 0.870437 0.469024 0.0428279 -1 -1 1 
8278 6 0.232171 0.496372 0.0767024 2 -3 2 
6609 5 0.268406 0.505107 0.0300374 3 0 3 
6260 5 0.392664 0.545418 0.0382088 4 1 1 
5652 5 0.478678 0.547474 0.0644623 5 0 0 
8412 6 0.915225 0.575954 0.051744 -1 1 0 
6381 6 0.991558 0.532615 0.057498 2 5 3 
8388 6 0.408513 0.572859 0.0729124 2 -1 3 
6730 5 0.720527 0.551962 0.0897436 -5 1 0 
8435 5 0.876796 0.587287 0.0668284 1 0 5 
6855 6 0.875795 0.56643 0.0582908 3 -1 5 
7394 5 0.95584 0.544009 0.0641951 5 0 3 
7181 5 0.0253492 0.590188 0.1032 8 -2 4 
6685 5 0.694663 0.608843 0.0827522 0 3 1 
5447 5 0.776314 0.612911 0.0245773 3 2 -2 
8001 5 0.419741 0.622978 0.0451809 -3 -1 -2 
5410 6 0.503319 0.666893 0.0966656 0 -1 6 
5635 5 0.737579 0.648873 0.0504477 -2 8 3 
7274 5 0.880394 0.63919 0.0493946 4 0 -1 
6414 6 0.108538 0.680246 0.0212968 1 2 -2 
7325 5 0.25902 0.706548 0.084255 5 5 2 
8987 5 0.268519 0.739543 0.0690703 4 -3 7 
5582 5 0.791864 0.680571 0.094908 -3 -2 -1 
6124 5 0.0794753 0.750219 0.0344017 4 0 -4 
5701 5 0.567177 0.705424 0.0587826 -4 0 -3 
5681 6 0.102172 0.762483 0.0699392 -5 -2 -1 
5197 6 0.413446 0.754489 0.0868923 1 -3 3 
8519 5 0.467131 0.734249 0.115032 -1 0 -2 
8341 5 0.503517 0.782478 0.0614374 -2 -1 -5 
8670 5 0.873958 0.769621 0.0587583 -1 -4 -1 
6194 6 0.939714 0.717139 0.0792971 4 -3 5 
6614 6 0.582779 0.747596 0.0781744 0 2 -3 
7245 5 0.585395 0.730952 0.0508075 -7 4 -2 
8523 6 0.91942 0.820006 0.042813 -2 2 1 
5227 5 0.0628904 0.837593 0.0474246 6 8 2 
5452 5 0.203922 0.803142 0.0552831 4 -3 -6 
5785 6 0.36544 0.822843 0.0466721 -1 1 2 
5541 6 0.67381 0.834975 0.0815862 -2 -2 1 
5426 6 0.863987 0.837485 0.0339544 2 0 3 
5516 5 0.23736 0.859108 0.0974259 -1 -1 1 
7964 6 0.570429 0.816146 0.062561 1 -5 1 
8398 5 0.803665 0.824197 0.0729409 0 -6 3 
8759 5 0.192841 0.833124 0.0482951 2 -2 2 
7073 6 0.626062 0.838931 0.0536964 -6 3 -2 
5600 5 0.649948 0.817806 0.0819976 -2 -3 -2 
7958 5 0.0656054 0.925738 0.0765943 -4 0 0 
6797 5 0.241422 0.881297 0.0290119 -4 1 -1 
5698 5 0.256073 0.924063 0.0452854 -3 2 -1 
7416 5 0.435315 0.911541 0.0896938 -1 -1 1 
5568 6 0.471178 0.948076 0.0657454 1 -1 -1 
7189 5 0.957366 0.89701 0.0574356 -1 -1 2 
7261 5 0.280895 0.949531 0.0666757 2 4 -2 
7034 5 0.749527 0.947758 0.0415473 6 -1 2 
8303 5 0.766952 0.946266 0.0379116 -1 2 4 
6011 6 0.591042 0.948329 0.0315754 -5 5 -1 
5640 5 0.137608 0.984811 0.0965789 -4 0 -1 
6077 6 0.478006 0.971836 0.0878901 6 -3 6 
5518 5 0.680832 0.966106 0.0402268 3 -5 1 
8311 5 0.15066 0.00616255 0.092263 2 1 -4 
5193 6 0.829552 0.995622 0.0644096 0 -3 -5 
5543 6 0.162348 0.0489448 0.0773605 -4 -1 -1 
5703 6 0.919789 0.0245939 0.107911 -3 0 1 
5428 6 0.173477 0.102078 0.0831727 2 1 2 
5891 6 0.122917 0.0756475 0.102561 3 4 -1 
8212 6 0.842481 0.179252 0.0992758 -1 4 1 
8463 6 0.550374 0.120367 0.0693499 0 -2 -1 
7573 6 0.733972 0.158008 0.0939366 -2 2 0 
8798 6 0.973275 0.165831 0.103167 -1 0 -4 
7955 5 0.0768501 0.172705 0.0887654 -2 -3 -4 
6371 6 0.250555 0.217944 0.0861478 5 5 7 
7898 6 0.869369 0.258947 0.0691888 2 1 -1 
7154 6 0.795459 0.246115 0.0758488 -1 6 7 
5257 5 0.993763 0.29624 0.0991357 -2 5 3 
6831 5 0.98858 0.270781 0.0769268 -3 2 -1 
5754 6 0.531327 0.332573 0.0706346 2 1 2 
6605 5 0.925865 0.338806 0.0811453 -7 -2 -2 
8277 6 0.960275 0.28976 0.0729991 -6 4 0 
5173 6 0.247746 0.346249 0.0676006 -2 -2 -2 
7382 6 0.29407 0.409191 0.0722269 -3 5 -8 
6238 6 0.270306 0.379296 0.0671167 -2 -4 -4 
6665 6 0.404327 0.376687 0.0865347 1 -3 -1 
8580 6 0.584996 0.365952 0.0600702 2 6 1 
5457 5 0.797057 0.383695 0.0809581 -1 -1 1 
8432 6 0.0785002 0.42567 0.03271 3 4 -2 
5879 6 0.418844 0.443488 0.0646776 1 -2 -3 
8725 5 0.555493 0.405784 0.0727742 -3 -2 2 
6316 5 0.908285 0.372783 0.0523028 -3 0 0 
7591 5 0.928965 0.379542 0.0644728 2 -3 4 
6406 6 0.322924 0.390716 0.077104 4 2 0 
5280 6 0.511006 0.431722 0.0853852 2 4 1 
5129 6 0.561368 0.414795 0.0950742 1 6 -3 
6164 5 0.100693 0.434695 0.0966451 0 -1 2 
8547 6 0.0760903 0.449249 0.0931822 -1 7 2 
7684 6 0.257418 0.416376 0.122274 -1 0 -4 
5183 6 0.294092 0.43352 0.070852 0 0 0 
8515 5 0.68575 0.469947 0.0835354 -6 4 2 
7321 5 0.871823 0.440151 0.10405 1 1 -2 
8225 5 0.344343 0.507371 0.0537428 -2 2 2 
5761 5 0.781778 0.49413 0.0940816 0 1 -3 
6412 5 0.830613 0.474783 0.104323 -3 -3 3 
5724 6 0.511407 0.495001 0.074016 3 -2 0 
5030 6 0.611336 0.481776 0.0810671 0 -4 -1 
6149 6 0.0283397 0.553097 0.0836986 0 -2 -1 
7861 6 0.0401822 0.491524 0.0828643 2 -3 -1 
7700 5 0.211369 0.580543 0.102808 3 2 -2 
6086 6 0.45125 0.587461 0.0844763 1 -3 -3 
6073 6 0.0838527 0.569352 0.0810176 -2 -3 -3 
5226 6 0.583508 0.550333 0.0945707 1 0 -3 
8830 6 0.707017 0.53768 0.090698 2 2 -3 
5442 6 0.766695 0.584078 0.105928 2 0 2 
6320 6 0.27682 0.580761 0.0806666 -3 2 3 
6401 5 0.387904 0.567077 0.0595222 1 -3 -4 
5356 5 0.503853 0.637435 0.0847606 4 -4 4 
5264 5 0.214145 0.648869 0.0919489 1 3 2 
6045 6 0.466484 0.616011 0.0707167 -6 -9 2 
5097 6 0.724962 0.670366 0.0470007 -1 -1 0 
5403 6 0.80658 0.620507 0.0699169 6 2 3 
7795 6 0.389865 0.654408 0.0871868 3 1 3 
5419 6 0.530391 0.651284 0.0791603 -2 1 -2 
6202 5 0.0570189 0.653133 0.0646983 -5 -3 3 
8107 5 0.129174 0.726575 0.0478546 -4 1 6 
5179 6 0.475718 0.72661 0.0952386 2 -2 -3 
8014 5 0.441119 0.736492 0.105438 -2 -1 2 
5112 5 0.52937 0.722933 0.0886132 1 1 5 
8187 6 0.769752 0.714417 0.0992287 -4 2 3 
7666 6 0.913053 0.731732 0.0524167 1 1 1 
8581 6 0.38229 0.713856 0.1084 4 3 2 
5315 6 0.392945 0.735189 0.095143 1 1 -2 
5872 6 0.433279 0.757446 0.12517 3 -3 -1 
6311 6 0.50178 0.759268 0.0904714 2 3 4 
8149 6 0.0145963 0.771436 0.0649018 7 -1 -2 
5077 5 0.853881 0.850666 0.0681645 -2 -1 -1 
5284 6 0.342231 0.842593 0.0500332 1 -1 3 
7486 5 0.184612 0.888844 0.0883871 2 2 -4 
6532 5 0.634505 0.920947 0.076895 0 2 2 
8881 5 0.724863 0.905821 0.0959844 -2 2 1 
7554 5 0.765768 0.86002 0.0730544 -1 6 1 
7097 5 0.209196 0.929539 0.0999315 -3 5 1 
7129 6 0.724431 0.905783 0.0891758 1 -3 3 
8619 6 0.369451 0.971085 0.0732943 -2 1 -2 
7461 6 0.505003 0.973189 0.0874161 -3 -4 2 
7276 6 0.51334 0.992065 0.0748917 1 -2 3 
7125 6 0.535902 0.00911524 0.0869972 -2 2 4 
8548 6 0.700063 0.971847 0.0704922 2 -7 8 
6994 5 0.72939 0.99568 0.10763 -9 0 0 
6977 6 0.778375 0.968364 0.0643078 -1 -1 -2 
7412 6 0.798577 0.984186 0.0255881 -1 1 1 
5351 6 0.364155 0.0298467 0.0922195 -3 2 0 
5471 6 0.149678 0.0113644 0.133758 -2 -4 -1 
5712 6 0.529553 0.0978847 0.0567447 4 -2 -4 
8669 6 0.79662 0.0745987 0.0741377 0 4 3 
5870 6 0.989044 0.0649991 0.0975507 -3 -2 1 
8698 5 0.620463 0.0760299 0.0869776 2 -2 -2 
8010 6 0.706696 0.123615 0.0831761 1 -1 2 
5830 5 0.448722 0.157563 0.145213 1 4 1 
5259 5 0.678354 0.1385 0.154366 0 0 -2 
6468 6 0.19211 0.131398 0.142819 3 -4 -2 
5081 5 0.185363 0.160674 0.123867 -2 4 2 
8627 6 0.710473 0.148085 0.107648 -2 -1 1 
8399 6 0.259145 0.242932 0.114623 -3 0 0 
5837 5 0.38545 0.180135 0.0660941 1 1 2 
8593 5 0.285654 0.231847 0.0682861 -1 -3 2 
7439 5 0.470885 0.207471 0.117679 5 -2 2 
5301 6 0.468698 0.26014 0.0748485 3 -1 5 
8378 6 0.64409 0.253549 0.125794 -3 -6 1 
8292 5 0.799585 0.250549 0.104215 -1 1 -1 
6553 6 0.589465 0.285418 0.112464 -3 1 -1 
8501 6 0.0238583 0.283357 0.11679 -3 -1 -3 
7055 6 0.185454 0.314823 0.13787 -2 1 2 
7732 5 0.929907 0.32568 0.120673 2 4 2 
6057 6 0.392334 0.319958 0.0870449 1 2 0 
6254 5 0.352556 0.319073 0.093421 1 2 2 
6919 5 0.855435 0.314311 0.106838 -4 2 5 
8389 6 0.0842248 0.342697 0.111758 2 -2 1 
8980 6 0.399533 0.409812 0.105936 1 2 -6 
7657 6 0.423968 0.343082 0.113066 4 -2 1 
6957 5 0.408083 0.353654 0.0937857 -2 0 1 
7371 6 0.0326417 0.443208 0.0797 0 1 -2 
6713 5 0.515738 0.450657 0.113705 -3 3 2 
6330 5 0.622872 0.444287 0.0776292 1 0 2 
5868 5 0.714085 0.400258 0.12317 -5 5 -1 
8979 5 0.867576 0.461857 0.121823 0 2 -2 
7468 6 0.895226 0.452956 0.121569 1 4 -3 
6983 6 0.959324 0.430522 0.114889 2 -3 2 
5834 6 0.27664 0.51256 0.0878656 5 2 -5 
7766 6 0.422 0.489628 0.112804 -1 -2 -1 
7960 6 0.793014 0.45005 0.0814022 3 -6 5 
5105 6 0.01531 0.482643 0.0945388 -2 3 1 
8858 6 0.686214 0.541129 0.110282 -3 2 1 
6546 6 0.136514 0.562605 0.122165 -1 0 1 
8634 6 0.815775 0.51478 0.119032 0 0 1 
7183 5 0.163906 0.574094 0.140523 1 -2 1 
6689 6 0.380778 0.568126 0.1164 -3 -2 1 
6374 5 0.0510753 0.581864 0.1038 -4 1 -5 
6172 6 0.149575 0.599356 0.0696169 0 -2 4 
6942 5 0.494346 0.548244 0.104592 1 1 0 
7731 5 0.493738 0.578908 0.0875063 1 0 -3 
6043 6 0.823938 0.565231 0.132498 -4 -3 7 
6894 6 0.705622 0.607034 0.103022 0 2 -3 
7110 6 0.28797 0.657162 0.0939087 2 -2 3 
8458 6 0.498444 0.66102 0.10421 -6 -2 0 
5593 5 0.811472 0.658628 0.0919902 0 0 5 
5628 5 0.978467 0.679347 0.0639981 -2 1 -3 
6626 6 0.404163 0.70728 0.0835581 0 0 4 
6839 6 0.0809964 0.65729 0.095841 -8 -1 4 
5855 6 0.188836 0.685027 0.0734323 1 0 4 
7928 5 0.172674 0.682966 0.0679864 -4 2 2 
5274 6 0.0918528 0.743029 0.0755119 4 -4 1 
5363 6 0.18192 0.7115 0.0756399 1 2 -1 
5475 5 0.728807 0.73522 0.123445 -1 2 1 
6429 6 0.317703 0.739935 0.0921536 1 -3 1 
6046 6 0.491484 0.713077 0.100239 -1 -5 4 
7393 5 0.84435 0.76518 0.0617823 5 0 -1 
7804 6 0.863819 0.807949 0.138795 -3 3 -4 
6102 6 0.831567 0.774126 0.0693112 -2 4 3 
7061 5 0.267481 0.834748 0.117691 1 -2 -1 
8015 5 0.365427 0.839434 0.102516 0 -3 -2 
6736 5 0.576611 0.872563 0.0671006 2 0 1 
5041 5 0.826245 0.852781 0.117965 -2 -3 -1 
8521 6 0.161723 0.882677 0.0676682 3 -5 -3 
7151 6 0.498198 0.881983 0.11225 1 -3 0 
5359 6 0.587803 0.895646 0.106163 -4 -4 -1 
6426 6 0.843418 0.936761 0.124798 -3 4 8 
7160 5 0.738655 0.944166 0.13913 3 2 -5 
8261 5 0.476906 0.959479 0.0918571 -3 0 3 
7423 6 0.497749 0.994548 0.113835 -2 -6 -1 
6638 6 0.0200602 0.975528 0.11782 0 0 0 
8116 5 0.939079 0.979681 0.103606 -5 -2 2 
8171 5 0.283248 0.0428137 0.121845 1 2 -4 
6881 5 0.34934 0.0655369 0.124153 4 0 -2 
7094 5 0.591463 0.0231191 0.164712 1 7 -3 
8954 6 0.911536 0.0269896 0.130007 3 1 -3 
6132 6 0.17837 0.0697028 0.1279 -4 4 -6 
8448 6 0.456096 0.0716034 0.135954 -4 3 0 
8031 6 0.85099 0.0753157 0.130929 1 1 -1 
6252 6 0.20658 0.148708 0.127564 -2 6 4 
7508 6 0.865367 0.126426 0.140977 -2 -3 1 
7919 6 0.90387 0.132412 0.163438 -2 2 2 
8667 6 0.571393 0.15164 0.132894 -3 3 -1 
7768 6 0.202133 0.214119 0.119349 -2 0 3 
6905 6 0.411428 0.200838 0.100258 5 2 3 
5321 6 0.344791 0.182486 0.110558 1 4 -1 
8873 5 0.505443 0.21794 0.138422 -1 2 1 
5302 5 0.863657 0.247024 0.14353 4 2 4 
5500 6 0.526523 0.252148 0.120981 -2 -2 0 
7420 6 0.860738 0.274657 0.0947075 -3 1 -2 
7102 5 0.206753 0.285662 0.116258 0 -2 1 
8336 6 0.595744 0.288938 0.0932136 4 -1 -3 
7757 5 0.0190893 0.297313 0.13734 1 0 1 
5618 6 0.40233 0.270551 0.14515 -2 2 3 
8370 5 0.698993 0.313131 0.160217 3 1 -1 
8443 6 0.747266 0.31502 0.140923 0 -3 2 
5121 5 0.530278 0.322741 0.128274 -2 2 -2 
8866 6 0.406426 0.337374 0.103462 1 -2 2 
5928 6 0.458411 0.333855 0.156607 2 -1 0 
5620 6 0.352895 0.363774 0.132848 -4 0 1 
6208 6 0.417491 0.372075 0.119477 3 0 0 
5653 6 0.534299 0.338641 0.125045 -2 5 -1 
5538 6 0.589459 0.416696 0.145778 4 -2 0 
8396 5 0.763434 0.401069 0.0932932 3 -2 -2 
7085 5 0.407498 0.470418 0.158341 -6 4 5 
7319 5 0.232346 0.458613 0.0805409 2 0 3 
8534 5 0.327257 0.449433 0.10461 6 1 -1 
6745 5 0.398889 0.426177 0.146788 -2 3 3 
7546 5 0.947159 0.448131 0.131079 0 -3 5 
5791 6 0.114644 0.429302 0.149663 3 -1 2 
8233 6 0.624242 0.492173 0.11147 -3 3 -2 
7867 6 0.780476 0.509063 0.120638 0 3 -3 
8628 5 0.0169447 0.509649 0.140792 4 -1 -2 
7279 5 0.122649 0.508885 0.121941 2 1 -3 
6248 6 0.306794 0.418027 0.152231 0 -6 4 
8105 5 0.47093 0.489656 0.148067 0 2 -1 
7756 5 0.452428 0.455967 0.156759 0 8 4 
8837 5 0.125229 0.507977 0.112826 0 -2 2 
8071 6 0.115476 0.531547 0.105107 -6 -1 6 
5909 6 0.23267 0.537494 0.1027 -3 6 3 
5940 6 0.00233234 0.504508 0.14883 4 -2 0 
8787 5 0.128709 0.566387 0.124173 1 -1 2 
7310 5 0.515308 0.528452 0.0906497 2 -1 2 
8317 5 0.763901 0.571953 0.13815 3 -2 -2 
7060 5 0.0709209 0.611319 0.133048 0 1 1 
5727 6 0.39827 0.570991 0.15733 0 -3 0 
7708 5 0.931302 0.585142 0.139256 -3 -1 2 
8695 5 0.657439 0.609735 0.0876542 -3 -1 0 
6167 5 0.712084 0.585534 0.140276 -2 -3 -1 
6768 6 0.0454178 0.638437 0.113079 4 1 -3 
5999 6 0.11742 0.649345 0.162572 0 -4 -5 
6068 6 0.542984 0.660186 0.106326 2 2 3 
6209 6 0.581462 0.628524 0.142074 2 2 6 
7233 6 0.67804 0.618097 0.122609 -5 -9 -2 
7596 6 0.127242 0.693567 0.104036 -5 -2 -1 
5840 5 0.351894 0.66224 0.113023 3 4 5 
7220 6 0.735594 0.665948 0.13978 4 5 -2 
6862 6 0.236858 0.711823 0.139536 4 0 2 
8863 6 0.361385 0.665467 0.166485 -1 3 2 
7803 6 0.535756 0.643097 0.108044 -4 -3 2 
7003 6 0.70617 0.735926 0.0922044 4 1 2 
6674 6 0.674387 0.746696 0.135844 -1 -2 3 
6882 5 0.0737569 0.774762 0.139007 0 -2 -2 
5432 5 0.907493 0.755182 0.068902 -5 2 1 
7360 6 0.0808856 0.803464 0.168978 2 0 -1 
8348 6 0.686961 0.80262 0.127013 -1 2 2 
6603 6 0.998528 0.817789 0.165263 4 -2 -1 
7812 6 0.135897 0.825465 0.093757 0 3 9 
8407 6 0.628999 0.820728 0.117032 0 -4 3 
6712 6 0.785631 0.848575 0.0892352 3 -2 5 
5166 6 0.417916 0.853235 0.0776044 -3 -3 -1 
5396 6 0.857269 0.880168 0.133098 -2 0 7 
5225 6 0.36822 0.858471 0.132666 -2 0 -1 
7302 5 0.806876 0.869142 0.105312 -3 1 0 
5873 5 0.916896 0.81374 0.134786 -4 2 0 
5768 6 0.265781 0.930061 0.125645 2 3 2 
6868 5 0.218159 0.927551 0.143452 -4 -1 -2 
7691 5 0.519101 0.930141 0.122153 2 0 -4 
8879 6 0.678653 0.913291 0.145425 2 -1 1 
6080 6 0.577251 0.924304 0.122209 1 1 0 
8309 5 0.562138 0.906012 0.144011 0 -2 -1 
8909 6 0.71211 0.943275 0.161406 -3 -1 0 
5591 5 0.833568 0.91332 0.119542 0 -1 -1 
8231 6 0.614743 0.920268 0.12482 4 -3 0 
6630 5 0.258407 0.0524316 0.145251 1 -1 -2 
7652 6 0.360991 0.984013 0.144896 -3 0 -2 
6688 5 0.408964 0.0415291 0.144938 0 4 5 
5104 5 0.672291 0.014711 0.168784 3 -4 -3 
7333 6 0.673515 0.994631 0.115447 3 3 7 
8304 5 0.925956 0.998794 0.155856 0 -2 7 
5765 5 0.567521 0.0715222 0.147853 0 -2 4 
5209 6 0.757459 0.0136074 0.126481 4 2 3 
5886 6 0.959486 0.0517551 0.135324 -2 -3 -2 
5606 5 0.729651 0.0883491 0.139861 -2 3 3 
7686 6 0.988596 0.0462402 0.162245 -5 2 -1 
7587 5 0.0404069 0.0970433 0.16903 2 -3 -3 
8944 6 0.698143 0.124817 0.171449 -2 0 -8 
7369 6 0.914527 0.0963953 0.128094 3 3 -1 
5569 6 0.308944 0.109985 0.150679 2 1 -5 
5303 6 0.818342 0.138017 0.166535 -2 4 4 
8460 5 0.44848 0.135043 0.130805 2 5 4 
5798 6 0.661125 0.13902 0.132533 4 -1 0 
5937 5 0.0123374 0.161506 0.175725 -2 6 3 
8062 6 0.176843 0.167343 0.143782 4 0 2 
5665 5 0.777346 0.205772 0.146463 1 -2 4 
5348 5 0.0471965 0.212254 0.162955 -1 1 2 
5094 5 0.113513 0.239941 0.191828 3 2 3 
6108 5 0.457918 0.229108 0.114004 1 -4 3 
8918 5 0.51845 0.251566 0.120778 3 -1 0 
6315 6 0.722637 0.218856 0.139209 7 2 2 
7647 5 0.714013 0.270595 0.153891 -2 5 3 
7750 6 0.72681 0.27691 0.148501 2 -1 2 
8640 6 0.28992 0.25905 0.172219 2 -7 4 
8500 5 0.107145 0.277327 0.160773 1 -2 2 
8025 6 0.302168 0.35672 0.160497 -1 1 -2 
7660 6 0.558908 0.31312 0.160051 -2 3 4 
7495 6 0.798292 0.382387 0.200355 1 -1 -1 
7580 6 0.836036 0.389983 0.155151 -4 5 0 
7824 5 0.53383 0.364389 0.113328 0 4 -1 
5809 6 0.0257662 0.402247 0.133889 -1 1 -3 
5864 6 0.497253 0.422648 0.134614 2 -1 0 
6722 5 0.349484 0.452948 0.139851 0 0 -4 
8063 5 0.65966 0.410191 0.0793712 1 3 -5 
5459 6 0.745688 0.450012 0.127222 0 5 -3 
5599 6 0.0339908 0.494756 0.142112 2 -1 4 
7377 5 0.0905354 0.492938 0.157052 6 -3 2 
8497 5 0.28399 0.477437 0.18817 4 1 0 
6474 6 0.7684 0.454026 0.146426 -1 0 2 
6193 5 0.808607 0.455464 0.111728 0 -4 0 
7639 6 0.0829541 0.463654 0.131934 -3 -6 -1 
5973 5 0.658674 0.502948 0.163999 1 0 4 
5214 6 0.526127 0.519729 0.135784 -4 1 2 
6552 5 0.581058 0.506035 0.151255 1 2 -7 
7658 5 0.927027 0.499731 0.177709 -4 2 -1 
6703 5 0.9572 0.510662 0.222349 0 -2 1 
6274 6 0.529664 0.52729 0.11721 1 -1 2 
5385 6 0.236309 0.613686 0.169696 -3 -2 -2 
5790 5 0.441397 0.570484 0.181266 6 2 -1 
7570 5 0.454665 0.608254 0.126265 0 -3 4 
8253 6 0.577096 0.606219 0.154929 -3 3 -4 
7363 6 0.880453 0.629494 0.143765 -1 -1 2 
8810 6 0.425631 0.673439 0.13016 -6 2 -4 
8796 5 0.379506 0.618897 0.141198 5 3 0 
5181 5 0.762676 0.741795 0.11563 -1 3 1 
5810 5 0.275752 0.722225 0.147558 0 2 1 
6407 6 0.685528 0.722187 0.169803 -1 -1 -1 
5262 5 0.710233 0.69426 0.141861 -2 0 -2 
7685 5 0.553233 0.738494 0.154524 5 2 0 
5184 6 0.0576904 0.732424 0.184997 3 -2 -1 
7119 6 0.955353 0.709464 0.128697 -2 2 3 
5347 6 0.224409 0.813756 0.114418 4 2 -2 
8236 6 0.451612 0.794913 0.192369 -3 -5 2 
6653 6 0.339988 0.809598 0.129405 4 0 -5 
6742 6 0.869847 0.822702 0.182143 1 3 1 
6442 5 0.0012692 0.854148 0.129753 -4 3 1 
8594 6 0.120823 0.808422 0.145241 3 3 2 
6943 6 0.244678 0.81475 0.143566 -1 -2 3 
8540 5 0.281194 0.8557 0.144225 0 4 1 
6709 6 0.201255 0.912305 0.122591 3 3 0 
6961 5 0.244935 0.895899 0.0965884 3 4 0 
6899 6 0.573774 0.889349 0.127144 -5 0 -5 
6476 5 0.0870596 0.911752 0.13753 -5 -1 2 
6813 5 0.405802 0.91815 0.136645 -2 0 0 
5753 5 0.916689 0.95831 0.133894 -1 1 0 
8021 5 0.396372 0.965097 0.159664 8 -2 -4 
5523 5 0.454638 0.967768 0.18863 -1 -3 0 
7516 6 0.499584 0.963421 0.126161 -4 -1 2 
5438 6 0.219411 0.979036 0.113684 5 1 1 
6651 5 0.555973 0.0109046 0.174971 -1 0 -3 
5683 6 0.201996 0.0630155 0.158697 1 2 2 
7066 6 0.404792 0.0596693 0.182197 -5 -6 0 
7336 5 0.56417 0.0421782 0.13061 0 -3 -3 
7497 5 0.79655 0.0607288 0.171727 -1 3 1 
7847 5 0.286084 0.0420417 0.172467 -2 -3 -1 
6593 6 0.890239 0.0562871 0.197932 2 -2 -7 
8158 5 0.29481 0.126978 0.192785 1 0 5 
6944 6 0.425627 0.105564 0.154374 -2 6 -2 
6987 6 0.596539 0.103621 0.163437 1 3 4 
7157 6 0.393106 0.100588 0.174523 -6 0 1 
8132 6 0.336275 0.13869 0.16238 3 0 3 
8588 5 0.416728 0.103432 0.173251 -3 -1 3 
7676 6 0.744488 0.191645 0.194634 -4 5 -1 
5329 6 0.865087 0.130018 0.184169 1 -1 -4 
8637 6 0.32096 0.226079 0.136365 5 3 2 
6298 6 0.621924 0.222856 0.198314 -3 0 -2 
5032 5 0.970697 0.243661 0.141337 5 1 4 
6915 5 0.321662 0.301592 0.16039 2 3 2 
7667 6 0.459975 0.278343 0.147013 1 2 -1 
6600 5 0.598897 0.287891 0.180228 -5 0 5 
6650 5 0.9376 0.296101 0.166498 -3 2 1 
8059 6 0.51592 0.328304 0.183999 1 2 8 
8345 6 0.96303 0.322111 0.118683 -2 4 -2 
6201 6 0.130042 0.347334 0.16522 6 6 -1 
5612 5 0.809198 0.325101 0.168236 4 -2 0 
6169 5 0.0733916 0.314002 0.175 4 -4 4 
8313 5 0.425321 0.338434 0.193606 -1 -4 -1 
5045 5 0.420853 0.399172 0.183238 -1 5 0 
8382 6 0.0739377 0.48284 0.166909 5 0 -2 
8055 5 0.388556 0.437625 0.15747 -3 2 4 
6735 5 0.452854 0.5022 0.194447 -1 -3 0 
5614 6 0.386648 0.502561 0.209516 4 1 -1 
5623 5 0.68197 0.526758 0.18954 0 0 -4 
5786 5 0.101433 0.59565 0.193815 0 -4 8 
6835 5 0.326311 0.610209 0.177664 1 5 4 
5172 6 0.50347 0.60683 0.172404 0 1 4 
6544 6 0.158773 0.585463 0.178181 0 3 2 
7108 6 0.308671 0.621185 0.13723 1 2 1 
8625 5 0.411483 0.618728 0.169413 -2 -4 6 
7775 6 0.470013 0.626785 0.131792 -3 2 -5 
7669 5 0.779655 0.68295 0.209866 1 -2 2 
8286 6 0.319749 0.690419 0.181109 -1 -1 -1 
8551 5 0.388752 0.711117 0.176444 0 -1 2 
6362 6 0.566903 0.69776 0.144706 -3 1 -1 
8800 5 0.293966 0.708803 0.197175 4 2 -5 
5806 6 0.520357 0.724504 0.197393 -1 -6 -1 
8861 5 0.988383 0.713923 0.142032 1 3 0 
8585 6 0.442438 0.733543 0.182438 5 -4 -2 
5738 5 0.673548 0.730832 0.180947 4 1 -2 
8563 5 0.073253 0.766604 0.196786 4 1 -1 
5825 5 0.701855 0.785758 0.180785 0 -3 -1 
6924 5 0.451234 0.783386 0.190065 0 -2 0 
8045 5 0.822172 0.835755 0.137697 -1 -6 4 
5127 5 0.95655 0.812638 0.194486 -1 2 2 
7886 6 0.0815135 0.82995 0.178521 -5 1 -5 
7944 6 0.518126 0.836585 0.154871 -1 0 -2 
8305 6 0.183706 0.89227 0.178461 -2 2 0 
7840 5 0.240368 0.838058 0.174121 -1 -6 -3 
7636 6 0.482362 0.809778 0.188215 -3 -1 3 
7619 6 0.957283 0.83902 0.19 -1 -2 -4 
5585 5 0.717915 0.84844 0.161513 1 -4 -4 
7225 6 0.25852 0.933724 0.168654 -3 0 0 
8486 5 0.892916 0.909852 0.172569 -4 -2 5 
6524 5 0.390339 0.924255 0.186749 -2 -4 0 
7661 6 0.870622 0.939826 0.180511 -1 4 2 
5570 5 0.11334 0.940701 0.1786 5 -4 -4 
5964 6 0.647569 0.942291 0.166438 -6 -9 -1 
7256 5 0.674267 0.934878 0.156791 -3 -1 1 
8124 5 0.781943 0.943225 0.156421 2 0 2 
7340 5 0.0513606 0.986165 0.15193 1 0 -5 
5096 5 0.687555 0.946896 0.200498 4 -2 2 
5800 5 0.741545 0.984444 0.186533 3 1 -1 
5352 5 0.401233 0.0178891 0.198589 3 0 0 
5314 6 0.644557 0.0372258 0.196884 -5 3 1 
5472 6 0.918446 0.999182 0.194595 0 -5 3 
7763 5 0.181774 0.0357236 0.218986 1 -1 2 