ITEM: TIMESTEP
20000000
ITEM: NUMBER OF ATOMS
9000
ITEM: BOX BOUNDS pp pp pp
-75 75
-75 75
-75 75
ITEM: ATOMS id type xs ys zs ix iy iz 
5338 6 0.474589 0.989581 0.986381 -4 0 1 
6857 5 0.825081 0.0313536 0.96695 -4 -6 0 
7304 5 0.270025 0.0910888 0.00701598 -3 -3 1 
5838 6 0.76057 0.0562909 0.0298742 -5 -1 -5 
5022 5 0.468799 0.0974609 0.974523 3 0 -2 
6680 5 0.682433 0.08229 0.0121417 -5 2 2 
8433 5 0.802591 0.108126 0.0249045 2 6 3 
5046 6 0.333645 0.151504 0.0221991 1 -4 -2 
7935 6 0.518836 0.162206 0.985158 -1 -4 2 
6236 6 0.720175 0.143107 0.0155135 -2 0 3 
7134 5 0.806703 0.160943 0.0208941 -6 5 1 
8411 6 0.338539 0.218172 0.0168025 0 0 6 
6565 6 0.649255 0.179736 0.992081 -3 -1 -2 
5874 5 0.822772 0.184769 0.0274762 -8 -6 1 
5051 6 0.583173 0.194937 0.053605 -3 3 -6 
7546 6 0.153058 0.277882 0.0349696 1 4 -3 
7635 6 0.425006 0.232884 0.0129756 -4 1 5 
8051 5 0.0630884 0.274304 0.0225591 -8 -2 1 
7443 6 0.091764 0.244485 0.00885418 1 0 5 
8654 5 0.336003 0.299882 0.993669 0 1 3 
7895 6 0.480723 0.257403 0.0174599 1 4 0 
6956 5 0.475105 0.284003 0.0248528 5 -2 5 
5286 6 0.662354 0.294224 0.044467 -3 1 2 
5786 5 0.839356 0.268975 0.0322603 -6 1 -5 
6760 6 0.189515 0.326051 0.0246216 4 1 0 
8246 6 0.676107 0.343746 0.0135172 -6 2 1 
7620 5 0.965657 0.329028 0.0294171 -7 -2 -4 
5923 6 0.181219 0.326609 0.00837719 3 -3 4 
6715 6 0.696628 0.349469 0.00270036 -1 0 7 
5290 5 0.752137 0.390505 -0.00258741 0 0 -2 
7569 6 0.971433 0.352825 0.0303987 4 1 2 
8925 5 0.048171 0.339106 0.997705 -2 0 -5 
7586 6 0.0918665 0.382667 0.029889 -4 0 -1 
7641 6 0.510984 0.377367 0.0368687 0 1 -3 
7630 6 0.581437 0.39557 0.020419 -4 -2 0 
5366 5 0.376681 0.375158 0.994794 -2 6 0 
5569 5 0.435312 0.422974 0.00835715 2 -3 5 
6421 6 0.722089 0.395222 0.00119665 2 3 3 
7282 6 0.666181 0.418939 0.0130332 1 2 -2 
5448 5 0.184979 0.442139 0.993549 -2 1 -1 
5229 6 0.354421 0.462601 0.0336971 0 -1 2 
8471 5 0.212378 0.479582 0.0155931 -4 -4 7 
6460 5 0.436987 0.516992 0.00972339 3 0 -2 
5385 5 0.807809 0.541621 0.0383536 0 -2 -1 
5181 5 0.443881 0.604716 0.0172794 4 1 -1 
8936 6 0.091697 0.633554 0.00519483 -1 0 3 
5403 5 0.969264 0.631157 0.984462 7 0 0 
6346 6 0.532007 0.699156 0.0217545 4 1 7 
5672 5 0.312689 0.745122 0.0157127 -3 5 -3 
6339 6 0.534922 0.747578 0.00786801 -5 -1 -2 
7421 5 0.360875 0.779611 0.0329279 7 -6 3 
5543 6 0.568978 0.807334 0.0309338 -2 -2 0 
8198 6 0.143554 0.812602 0.0159137 0 -3 -3 
5489 6 0.403304 0.783263 0.0117301 0 0 3 
5087 5 0.503312 0.776138 0.984204 0 -3 -4 
8106 6 0.625125 0.796903 0.0140985 3 0 2 
7739 5 0.619965 0.818626 0.0112839 -1 3 1 
8010 6 0.689052 0.811837 0.00411947 -5 3 2 
5743 5 0.66942 0.831429 0.998561 3 -2 1 
8943 6 0.17517 0.850209 0.0285167 1 3 4 
5056 6 0.686961 0.840483 0.00832391 6 2 -2 
6434 5 0.118577 0.843903 0.00644285 -2 -3 -6 
7760 6 0.605228 0.91242 0.0335646 0 5 -3 
5545 6 0.818958 0.887583 0.0134697 4 0 -1 
6334 5 0.852342 0.881874 0.00219487 -1 1 -3 
7475 5 0.367524 0.962399 0.0338655 5 1 -2 
5187 5 0.62964 0.918892 0.0201557 -1 0 2 
6261 5 0.314482 -0.000861814 0.0260727 4 0 3 
7557 6 0.363785 0.00951731 1.00008 -3 -3 0 
8091 6 0.432335 0.0283461 0.0192671 4 1 4 
8481 5 0.672844 0.00724129 0.0588481 2 0 3 
8075 6 0.503775 0.0244218 0.0432547 -3 2 -3 
5179 5 0.579155 0.00204296 0.00388219 -5 4 0 
6948 6 0.414587 0.0402169 0.0107799 1 3 2 
5209 6 0.566917 0.0838004 0.0445031 -6 -3 -3 
7972 5 0.544026 0.0185005 0.0270486 -7 5 2 
6685 6 0.604924 0.0475064 0.0296563 1 5 -1 
5100 6 0.795566 0.0396952 0.0510871 2 1 -5 
5970 6 0.936575 0.0462266 0.0149671 0 0 4 
5406 5 0.0666706 0.0519462 0.0818336 0 -1 -1 
6253 6 0.928745 0.0600008 0.0279327 -3 3 2 
8304 5 0.976698 0.103344 0.995114 -3 1 -5 
6082 5 0.31687 0.110716 0.0144148 5 4 -2 
6114 6 0.7847 0.114066 0.00645313 -3 -3 -1 
8289 5 0.510156 0.142604 0.0496497 -2 7 4 
6282 5 0.550089 0.142958 0.049932 0 0 -2 
5666 6 0.999117 0.143247 0.0285073 3 -3 -4 
7723 6 0.418323 0.195546 0.0280218 2 4 2 
5055 5 0.635599 0.172652 0.0191241 0 2 3 
5588 5 0.757262 0.207163 0.99727 4 -3 0 
5168 6 0.0102741 0.199116 0.0335405 -1 7 7 
8217 6 0.301627 0.202777 0.02351 -2 -3 -1 
8270 6 0.418547 0.202161 0.0640564 -1 -3 -2 
8705 6 0.509925 0.206541 0.0607497 5 2 0 
7374 6 0.193696 0.231057 0.0122836 -3 -2 2 
7254 5 0.267896 0.244858 0.0443554 3 4 6 
7996 5 0.432406 0.260131 0.0238874 5 2 2 
7665 5 0.185502 0.344285 0.0319425 -5 -4 -1 
8584 6 0.594522 0.338703 0.0373305 4 5 1 
7366 6 0.373594 0.340644 0.0282645 2 1 3 
6292 6 0.57578 0.315491 0.0352393 1 -3 -4 
5692 5 0.231005 0.358747 0.0500364 4 1 -6 
8896 6 0.246851 0.351214 0.0492335 3 -1 -1 
8197 5 0.9301 0.325729 0.0340478 1 -4 -1 
6952 5 0.0472839 0.380766 0.0473362 -1 1 4 
8168 6 0.0216938 0.376138 0.0164154 -3 0 5 
5268 5 0.622345 0.381827 0.015462 1 1 0 
7756 5 0.0890962 0.398047 0.997589 3 0 0 
5631 5 0.80648 0.442639 0.0024726 1 1 -4 
8480 5 0.328167 0.467962 0.0156595 -5 1 -2 
8035 5 0.509645 0.448525 0.0641934 1 2 6 
7194 6 0.966412 0.487392 0.0586862 -2 -4 7 
5732 5 0.191331 0.48706 0.0666754 -1 4 1 
6977 6 0.880513 0.476207 0.0178153 0 2 -1 
8007 5 0.397042 0.497943 0.0464578 1 4 3 
8445 6 0.749602 0.503276 0.00456868 1 -4 0 
7242 5 0.660213 0.565779 0.00536566 2 4 1 
6628 6 0.644216 0.562073 0.043788 4 1 -4 
5776 5 0.845418 0.561246 0.0729686 7 -7 0 
7575 6 0.232549 0.535425 0.00303937 2 -3 -7 
7064 6 0.396758 0.573715 0.0524303 2 4 -1 
7488 6 0.910646 0.595599 0.00718749 -2 1 2 
6336 6 0.993527 0.617157 0.00716199 1 -2 -1 
7065 6 0.141054 0.590137 0.0135115 -3 5 0 
5593 6 0.456107 0.646953 0.00217469 -1 0 5 
5199 6 0.174641 0.620758 0.0271652 3 1 2 
5751 6 0.244263 0.645117 0.0387306 0 -1 1 
6169 5 0.78457 0.625317 0.0362639 1 5 -2 
6293 6 0.925251 0.658329 0.0255848 -2 -1 -2 
7228 5 0.00799004 0.676487 0.0157977 1 -1 3 
7599 5 0.842272 0.688327 0.0444067 -3 0 -6 
5116 5 0.308675 0.691388 0.0391777 0 5 2 
8598 5 0.455146 0.702246 0.0392241 2 -4 3 
7189 6 0.644172 0.69235 0.00666463 -2 2 3 
7523 5 0.909302 0.729022 0.0558495 -1 0 -2 
8536 6 0.648392 0.771849 0.998991 -7 -3 -1 
5744 6 0.813312 0.712169 0.0528436 2 0 4 
8766 5 0.27535 0.814379 0.0359368 3 -4 1 
5458 6 0.261901 0.843828 0.00533655 1 2 3 
8008 6 0.336466 0.889158 0.00466869 -4 -1 -1 
7695 5 0.899309 0.873447 0.0357658 2 -1 0 
8721 5 0.072564 0.905257 0.00461148 -4 0 0 
5591 6 0.229474 0.926299 0.0319448 3 1 5 
7563 6 0.289653 0.950889 0.0562822 -1 -7 3 
7526 5 0.983168 0.930695 0.0367759 0 6 1 
7212 6 0.106948 0.926106 0.990244 -5 -3 -1 
5792 5 0.222351 0.952166 0.00819125 -2 -1 3 
8188 5 0.35402 0.944989 0.0643582 0 2 -2 
7145 6 0.508647 0.960564 0.0426905 1 2 -3 
5394 5 0.719178 0.917958 0.0479648 -1 3 -5 
7104 6 0.126749 0.952752 0.00504478 3 -2 -1 
7749 6 0.81107 0.984124 0.0270617 4 9 1 
6408 5 0.990745 0.971474 0.077782 2 -4 -5 
8890 5 0.323334 0.96213 0.0461402 1 0 -1 
8679 5 0.876369 0.995734 0.0122327 -4 4 -3 
7559 6 0.935238 0.997495 0.0523349 1 -2 1 
7773 5 0.106738 0.0223634 0.0714741 3 -3 -2 
6567 6 0.23752 0.995149 0.0560428 -3 -1 -5 
5712 6 0.330519 0.999222 0.0391248 1 -1 0 
5267 5 0.450169 0.0102309 0.0775336 2 7 0 
5048 6 0.469598 0.997737 0.0701732 5 1 -1 
5559 6 0.355911 0.0712275 0.071446 2 2 -1 
6327 6 0.638562 0.0150496 0.0366568 2 -2 5 
6446 5 0.603889 0.0455426 0.0661799 -1 -4 0 
8809 6 0.598415 0.0298611 0.0315635 -6 0 -2 
7550 5 0.989718 0.0270703 0.102255 2 -3 5 
8573 6 0.110637 0.0747011 0.0264042 3 -2 -6 
8653 5 0.232201 0.0186617 0.0453866 0 4 0 
7543 5 0.100144 0.0546492 0.0832534 2 1 4 
7684 5 0.120936 0.0479589 0.0565461 0 -3 -3 
8004 5 0.413432 0.0494594 0.0163221 5 -8 0 
7041 6 0.239042 0.104013 0.0871287 -2 -3 -1 
7866 6 0.596435 0.110799 0.0743874 -2 5 5 
7175 5 0.215199 0.11911 0.0501207 4 -2 0 
6653 5 0.427489 0.158929 0.079825 6 1 1 
8346 5 0.673311 0.131967 0.0388919 -2 -2 -4 
8927 6 0.928282 0.120322 0.0513179 -1 -1 0 
6023 6 0.604308 0.173715 0.0746387 0 -2 6 
8861 5 0.576111 0.186749 0.0690682 1 -2 -3 
7697 6 0.638721 0.154079 0.0371254 -2 1 1 
8329 5 0.327571 0.225163 0.0923157 5 -3 -4 
5388 6 0.717488 0.208 0.0321017 -1 1 2 
8627 6 0.137094 0.21968 0.0591251 0 0 1 
7919 5 0.198317 0.242418 0.0356726 -5 3 -4 
6592 6 0.200715 0.289865 0.0725095 1 2 5 
6790 5 0.30288 0.319566 0.0790697 -2 3 1 
5660 6 0.763043 0.281643 0.0351678 1 -1 3 
6675 6 0.0679066 0.286638 0.0354 0 -1 -6 
5305 5 0.841319 0.345912 0.0679042 3 -2 3 
5040 6 0.176367 0.361939 0.0561784 2 -1 2 
5277 5 0.224139 0.362699 0.072838 0 -2 -3 
6084 6 0.948534 0.361494 0.0737236 2 -3 0 
8961 5 0.945225 0.353918 0.0934437 -1 -5 0 
8102 5 0.10169 0.346586 0.102003 4 -3 -4 
7487 5 0.929146 0.356936 0.0259776 -4 -1 -3 
5391 5 0.984853 0.371179 0.0707587 3 0 0 
8065 5 0.0220311 0.429607 0.0517827 6 -2 2 
8956 6 0.307206 0.412146 0.068536 3 -2 9 
8551 5 0.386937 0.434221 0.985988 -5 3 -1 
7372 5 0.37861 0.471157 0.0661241 -1 0 -1 
8659 5 0.579752 0.485518 0.0380111 -6 3 4 
6771 6 0.802444 0.425055 0.0643053 -5 -1 0 
7424 6 0.356265 0.487085 0.0345879 -2 -2 -1 
7703 5 0.858821 0.473029 0.0311009 5 -2 0 
7908 5 0.0622492 0.460687 0.0184357 3 -1 -1 
8897 5 0.0868956 0.411546 0.0261124 1 -1 -7 
5836 6 0.278606 0.513819 0.0239531 -4 3 1 
7137 5 0.420072 0.500016 0.0674516 0 0 2 
8262 6 0.486636 0.494583 0.0785025 4 1 0 
6104 5 0.86501 0.491894 0.0634947 -2 2 -3 
5762 5 0.963331 0.465683 0.0361261 -3 1 4 
5239 6 0.250515 0.4829 0.0915839 2 1 0 
6781 6 0.631045 0.510057 0.0690248 0 2 -1 
7594 5 0.821505 0.488997 0.0276509 0 -3 -3 
7958 6 0.0897494 0.546014 0.0355925 2 2 2 
7020 6 0.350163 0.593092 0.0611118 4 -6 0 
7470 6 0.905582 0.580801 0.112504 -1 -7 5 
5271 5 0.261318 0.600592 0.0921395 -2 3 3 
5387 5 0.394148 0.613113 0.0326466 -1 -3 5 
6211 5 0.580205 0.638764 0.0779327 0 2 1 
5071 6 0.766028 0.638216 0.0292969 -3 -3 -3 
5374 5 0.11556 0.617236 0.0350662 3 -7 -3 
7397 6 0.451784 0.605853 0.0690038 3 1 0 
7602 6 0.839514 0.603545 0.074799 -3 1 2 
7313 6 0.650603 0.683949 0.0873752 0 5 2 
8507 6 0.993952 0.708911 0.0526048 1 0 1 
8700 5 0.815742 0.701964 0.0513969 2 3 -1 
7465 6 0.925403 0.753869 0.0916993 1 2 5 
7573 5 0.431147 0.765458 0.0500484 -1 1 -1 
6391 5 0.0214176 0.779989 0.0116086 1 0 1 
6160 5 0.511967 0.785905 0.0311033 -2 1 0 
8475 5 0.511593 0.795748 0.0741438 1 3 0 
6283 6 0.527134 0.800677 0.0724627 -2 0 -6 
6380 6 0.305457 0.822897 0.0260668 6 1 1 
7103 5 0.562212 0.794842 0.0211262 2 1 -3 
8367 5 0.124475 0.869225 0.0775899 -1 3 1 
7147 6 0.843282 0.809499 0.0466843 -4 -5 -4 
5946 6 0.265201 0.866981 0.0799672 2 1 -2 
8714 6 0.378769 0.858685 0.0479095 -1 -4 5 
7071 5 0.446064 0.863754 0.052094 2 1 -2 
7614 6 0.692771 0.835239 0.0245255 -5 4 5 
7417 6 0.208145 0.888088 0.0376658 5 2 0 
6482 5 0.430277 0.879163 0.0491348 -2 -1 2 
7771 6 0.836404 0.895271 0.0218657 -4 4 0 
7920 6 0.92393 0.900829 0.0894681 -4 0 -1 
8543 6 0.936422 0.891321 0.0472081 -2 -3 2 
8428 5 0.260671 0.904202 0.0487011 5 3 -1 
7870 5 0.43992 0.943136 0.051349 1 -2 -1 
5727 5 0.715615 0.929106 0.0573935 -2 3 5 
8710 6 0.819243 0.914664 0.0518781 -2 0 -1 
8676 5 0.163424 0.962661 0.09292 -2 -2 -1 
8085 6 0.230144 0.981509 0.033974 1 0 1 
7152 6 0.543552 0.919829 0.0931357 1 1 2 
5438 6 0.534222 0.971127 0.0806822 1 -1 -2 
7091 6 0.230132 0.963651 0.0952155 5 2 -1 
7754 5 0.180835 0.994908 0.0633015 2 1 5 
6483 5 0.546176 0.00500807 0.0545977 1 3 -2 
6783 6 0.920611 0.0253515 0.0860176 -5 -7 2 
8319 5 0.913977 0.0158492 0.0826658 -2 4 -2 
5206 6 0.418835 0.0729462 0.0741488 -1 1 3 
8797 6 0.926837 0.0599664 0.129135 2 2 1 
7580 6 0.181418 0.0978274 0.0865799 -1 0 -3 
5565 6 0.521785 0.0890034 0.0659701 -1 -2 -2 
6228 5 0.681687 0.0576574 0.0706939 1 -1 -1 
8666 6 0.849111 0.115299 0.0649236 -4 -3 5 
7874 5 0.758902 0.131878 0.110006 4 -3 2 
6374 5 0.771717 0.18116 0.0783968 -4 3 3 
6867 6 0.233073 0.151682 0.0859278 -3 2 3 
5171 5 0.443995 0.135659 0.0192712 0 0 -2 
8915 6 0.839465 0.120496 0.100714 5 3 2 
5236 6 0.207548 0.180787 0.0895619 0 -1 1 
5668 5 0.545176 0.198878 0.0942031 -1 0 3 
8293 6 0.696883 0.157197 0.0885853 3 -5 0 
8645 6 0.711115 0.170081 0.0833618 3 0 3 
7402 6 0.256548 0.176915 0.0895098 1 -2 -1 
5240 6 0.24538 0.205777 0.107717 -5 -4 1 
5674 5 0.456893 0.19723 0.0887095 1 5 1 
8112 5 0.163561 0.217279 0.0729347 0 -1 6 
6912 5 0.27089 0.229642 0.0878512 3 -7 7 
8801 6 0.471436 0.218771 0.0461805 -2 -3 -1 
5481 6 0.906511 0.224682 0.0561483 0 -1 2 
8736 6 0.957524 0.253431 0.0827447 -4 0 -6 
5205 5 0.544193 0.290224 0.0635968 0 2 -3 
7504 5 0.879785 0.250212 0.0724572 4 0 2 
8463 5 0.930362 0.292324 0.0867412 0 1 0 
5287 6 0.159397 0.320184 0.0554523 -2 -3 -1 
6782 5 0.705636 0.300914 0.0648793 3 3 1 
8265 6 0.778295 0.303009 0.120074 -4 -1 -1 
6445 6 0.819347 0.281484 0.114666 -3 1 -3 
7184 5 0.754988 0.32849 0.0737048 1 0 3 
5767 6 0.118763 0.368374 0.058418 0 6 -3 
5465 5 0.264875 0.395013 0.089855 0 0 4 
5876 5 0.919301 0.363181 0.0833391 2 3 -1 
5698 5 0.174437 0.402141 0.075917 1 2 1 
8832 5 0.829274 0.384483 0.0834889 -1 7 -2 
6135 5 0.136854 0.423458 0.0809133 1 2 -2 
8086 5 0.966658 0.527087 0.0820644 3 5 -1 
8349 5 0.568882 0.496439 0.0997718 -3 -2 4 
6122 5 0.357122 0.541498 0.0933879 0 0 -2 
6560 6 0.489098 0.520804 0.083684 -5 1 2 
8356 6 0.694098 0.538324 0.0700763 0 -5 -2 
8533 5 0.0465441 0.502045 0.0541842 2 4 -1 
5595 6 0.643942 0.522727 0.0952604 -2 1 3 
7802 6 0.019127 0.578929 0.0820028 1 3 5 
5888 5 0.542088 0.594879 0.0951242 -5 5 -3 
7409 5 0.177595 0.613691 0.0847162 4 1 7 
8025 6 0.492057 0.606374 0.102247 1 0 -1 
6542 5 0.550623 0.557042 0.0728075 0 2 -3 
8043 6 0.922633 0.59385 0.0533614 -3 -2 -2 
8681 5 0.96374 0.638895 0.0525386 -1 2 -4 
6192 6 0.696579 0.692771 0.0730664 3 -4 1 
7984 6 0.281477 0.664016 0.0752191 -1 4 1 
6111 5 0.57542 0.63368 0.0917066 -6 0 -2 
5341 5 0.334049 0.683507 0.144289 -1 -4 1 
7730 5 0.421566 0.689426 0.0917207 1 -3 3 
8724 5 0.542756 0.656241 0.0858861 4 3 0 
5960 6 0.679893 0.723383 0.0873622 -2 0 5 
5955 6 0.964691 0.701741 0.0883296 -2 -1 0 
6745 6 0.101449 0.778424 0.107382 4 -2 -1 
7732 5 0.366873 0.698792 0.119905 -4 -1 -2 
5275 6 0.562545 0.760464 0.0781118 -3 1 3 
8881 5 0.876724 0.758476 0.0927133 -6 4 3 
8151 6 0.937021 0.761842 0.0778509 -4 -4 0 
5007 5 0.958815 0.73145 0.0932505 2 -2 -1 
5018 5 0.0200986 0.771964 0.102553 2 -4 1 
8122 6 0.705901 0.706698 0.0468303 1 2 -5 
6324 6 0.279725 0.786976 0.0881596 -1 0 2 
6513 5 0.687555 0.791505 0.0612893 -3 0 0 
7192 6 0.49618 0.81476 0.0628821 0 1 -2 
6301 5 0.519731 0.822179 0.086761 -2 1 1 
6813 5 0.608088 0.820625 0.039733 -1 -1 2 
6730 6 0.252718 0.884215 0.0247452 0 1 2 
5628 6 0.286126 0.865617 0.0719266 2 2 2 
5583 5 0.765138 0.857148 0.0818305 0 0 2 
8158 6 0.0757673 0.884267 0.0733763 -1 -3 -5 
8276 5 0.879621 0.892598 0.0860251 2 4 -3 
6393 5 0.26139 0.905898 0.0609998 -3 2 4 
7889 5 0.617186 0.880552 0.0768348 0 4 1 
7425 6 0.234706 0.908888 0.0854318 2 -4 7 
7675 5 0.314505 0.943112 0.0948338 0 1 1 
5339 5 0.371193 0.943015 0.0790091 6 1 2 
7247 6 0.546446 0.932682 0.0768048 0 1 -5 
7551 6 0.0088998 0.968868 0.0794911 4 4 -4 
7085 5 0.89376 0.989378 0.092531 -2 -2 5 
7553 5 0.688467 0.0469555 0.120074 -2 2 1 
7600 5 0.734002 0.0602689 0.13967 -3 0 -1 
6697 5 0.408722 0.00121415 0.0726194 -3 -5 2 
5006 6 0.837377 0.101875 0.0890852 1 2 -1 
5328 5 0.0466317 0.085281 0.0995677 6 5 4 
7934 5 0.0887309 0.111396 0.0695655 5 1 0 
8772 6 0.526935 0.0807207 0.0921046 1 2 5 
6356 6 0.550342 0.131173 0.101465 0 2 4 
8813 6 0.892282 0.0294174 0.103574 3 0 -4 
5611 6 0.127002 0.113542 0.0619849 0 1 4 
6331 6 0.220873 0.142698 0.0802915 1 -2 2 
6564 5 0.321056 0.119427 0.108297 -4 -2 -2 
7070 5 0.109511 0.153059 0.129823 2 0 -1 
8604 5 0.121957 0.173451 0.0732693 -2 -7 -2 
6859 6 0.5308 0.160229 0.0701294 2 -2 -1 
5005 6 0.748193 0.219069 0.102126 -4 0 5 
5984 5 0.175884 0.252643 0.104851 9 -2 3 
8129 5 0.497346 0.27201 0.0736684 1 0 2 
8227 6 0.940518 0.252682 0.0619058 0 3 1 
6304 6 0.318048 0.254092 0.120211 -3 -2 2 
8072 6 0.541655 0.257608 0.136637 -1 -5 2 
5577 6 0.923452 0.258034 0.0955773 -8 -4 4 
8955 6 0.436571 0.296727 0.0760861 6 -4 -2 
5864 6 0.553546 0.283019 0.0851757 3 -5 0 
8644 6 0.943106 0.277027 0.129369 -2 1 -1 
5258 5 0.190437 0.320152 0.151513 -4 3 4 
6136 5 0.432811 0.350835 0.100966 -4 -6 4 
8884 5 0.717122 0.325722 0.0927625 1 -1 -1 
8130 6 0.462774 0.367394 0.109353 3 1 5 
6599 6 0.844161 0.36868 0.095775 1 2 -2 
8994 6 0.10648 0.425388 0.0234354 0 5 2 
8555 6 0.152262 0.441707 0.105861 -1 1 -2 
5775 6 0.968485 0.357986 0.0827552 2 0 7 
5446 5 0.220324 0.412941 0.111966 1 -2 1 
8905 6 0.419545 0.471401 0.0910779 0 -2 3 
7884 5 0.976395 0.401041 0.0906842 2 0 2 
6810 5 0.475014 0.403686 0.135025 -4 -7 -1 
8047 5 0.220695 0.561698 0.103799 -4 2 2 
8928 6 0.483228 0.522905 0.135383 0 -4 0 
5081 6 0.655009 0.511303 0.10298 -2 -3 3 
6823 6 0.942818 0.540005 0.122094 -5 -3 -2 
7868 6 0.294535 0.5944 0.125393 3 4 -1 
8720 6 0.486237 0.565293 0.092643 1 -3 1 
5192 5 0.00422916 0.581933 0.0941663 4 -2 -2 
7691 5 0.274345 0.622612 0.0925389 8 0 5 
6850 6 0.643138 0.615662 0.10583 1 -1 -4 
7405 5 0.408886 0.592417 0.0955702 -3 -2 -2 
8562 6 0.805741 0.605001 0.0768105 -1 3 6 
6947 5 0.987114 0.653045 0.107533 -5 -1 -2 
6815 6 0.691655 0.653306 0.136292 -7 1 1 
7877 6 0.970824 0.66898 0.101922 3 -4 0 
7657 5 0.0455555 0.654934 0.103286 4 1 3 
5068 6 0.525415 0.650044 0.0898986 2 0 1 
6090 5 0.658789 0.698908 0.0897406 -6 -1 0 
7878 6 0.221481 0.657237 0.0951254 1 2 6 
6888 6 0.313686 0.679709 0.120972 -1 0 -2 
5516 6 0.809258 0.706781 0.0670911 0 2 -6 
6551 5 0.886398 0.721197 0.0789487 0 -2 2 
8405 6 0.14696 0.669511 0.0993951 0 -3 4 
5814 6 0.502721 0.74524 0.124935 0 1 -4 
7025 5 0.445914 0.736843 0.0934261 2 -3 1 
5761 5 0.739241 0.759271 0.0903376 0 4 6 
7359 5 0.975209 0.736083 0.131514 1 0 -3 
7737 6 0.614305 0.801848 0.108962 1 1 3 
6115 6 0.693604 0.774391 0.106429 1 3 -3 
7028 6 0.972616 0.781769 0.134888 -2 1 0 
6748 6 0.488373 0.785715 0.118255 3 0 0 
5396 5 0.870352 0.775746 0.100974 -1 1 4 
8531 5 0.388476 0.753946 0.109139 -2 -3 0 
8844 6 0.344639 0.821199 0.153029 5 4 0 
5633 5 0.660913 0.829017 0.0650465 2 2 4 
5009 6 0.675759 0.80732 0.0740345 2 -1 -6 
7090 5 0.426751 0.810524 0.101091 1 0 3 
6178 6 0.0917656 0.8562 0.11166 -2 1 1 
8324 6 0.461564 0.882749 0.105148 -2 2 -3 
6524 5 0.544946 0.897142 0.0948406 0 6 1 
5430 5 0.0142998 0.890062 0.110418 -1 -3 0 
5617 6 0.168464 0.884245 0.129105 1 2 4 
5376 5 0.124873 0.939617 0.111685 -4 -3 -2 
6237 5 0.784321 0.93755 0.119739 1 -3 0 
8517 5 0.213157 0.971245 0.133711 -5 -4 -1 
8000 6 0.481793 0.95779 0.116109 3 -4 5 
6654 6 0.126783 0.991638 0.126827 -3 -1 3 
8500 5 0.561869 0.00270161 0.152962 0 3 2 
5183 6 0.989703 0.00670602 0.107091 0 1 5 
6004 5 0.765776 0.0360814 0.10505 5 2 1 
8469 6 0.146858 0.0661907 0.155856 -4 -4 2 
7589 6 0.266113 0.0322635 0.11622 2 -3 0 
8380 5 0.328943 0.0894953 0.143231 -2 0 -1 
5746 5 0.427437 0.0875744 0.113446 -4 -3 0 
5029 5 0.802644 0.0817424 0.101798 -5 5 0 
6860 6 0.163686 0.107272 0.0859885 1 7 1 
7735 5 0.167961 0.115225 0.115403 -1 -3 2 
6510 6 0.406256 0.0910942 0.130211 3 1 3 
8929 6 0.980468 0.107685 0.108841 -3 1 -3 
6928 5 0.049296 0.0962493 0.136395 1 0 1 
6746 5 0.299197 0.091331 0.155035 -3 -3 2 
8509 5 0.507348 0.123018 0.0955743 2 -2 2 
8647 6 0.899204 0.161422 0.135982 5 -1 7 
6710 6 0.99465 0.219755 0.136784 -1 3 0 
5626 6 0.104599 0.185666 0.112095 0 3 -4 
5312 5 0.115856 0.201894 0.111255 5 -3 3 
5877 6 0.250688 0.209569 0.135516 -5 3 -2 
6854 5 0.680677 0.230928 0.175204 3 1 8 
7829 5 0.730635 0.193412 0.135995 1 4 1 
7989 6 0.568297 0.232508 0.128453 -1 -1 3 
8542 6 0.862739 0.231926 0.131344 -4 5 -3 
7872 6 0.93673 0.205297 0.109999 -1 -4 -2 
8776 5 0.960238 0.240577 0.138516 5 2 3 
8159 6 0.098891 0.212827 0.143308 3 -5 1 
6468 5 0.240165 0.22278 0.126484 2 0 -2 
7096 5 0.277829 0.275735 0.157652 2 1 2 
8050 6 0.613378 0.302799 0.0954322 2 -3 1 
6107 5 0.691381 0.304256 0.15771 -1 -3 0 
8964 5 0.670908 0.278125 0.177529 -1 -4 2 
7660 5 0.0843804 0.319555 0.107882 0 -2 2 
6659 6 0.189247 0.308102 0.127912 2 -4 1 
5813 5 0.436229 0.311304 0.130733 -6 0 6 
7239 6 0.522108 0.298029 0.112438 4 -2 3 
7207 5 0.866918 0.368299 0.105393 2 3 -10 
5136 6 0.758938 0.438975 0.126404 0 3 1 
7485 5 0.877535 0.495115 0.131497 -4 -2 3 
7968 5 0.96794 0.447856 0.124024 -4 2 2 
7820 5 0.0937359 0.487312 0.137418 2 5 1 
5645 5 0.189525 0.541432 0.128635 -2 1 0 
8525 6 0.471877 0.501027 0.118152 -4 2 -2 
5597 6 0.62492 0.4684 0.106264 2 4 2 
7707 5 0.866912 0.505102 0.142282 2 -3 3 
6344 6 0.537051 0.500032 0.123522 -3 -5 -1 
8548 6 0.658123 0.568488 0.139967 1 -1 0 
8618 6 0.718178 0.516537 0.10829 -4 7 1 
8107 5 0.2671 0.559952 0.125468 0 0 0 
7308 6 0.475219 0.551192 0.111176 4 -4 -1 
8432 6 0.808806 0.58442 0.138673 0 5 1 
6041 5 0.35317 0.632984 0.103269 7 -3 4 
5067 6 0.565656 0.694754 0.155388 -2 -1 0 
7256 6 0.679499 0.618943 0.116446 0 -4 2 
8501 5 0.872644 0.638277 0.149123 -1 -1 3 
7185 6 0.92635 0.618511 0.140624 1 1 1 
7879 6 0.614294 0.685072 0.136178 1 -2 -2 
5145 6 0.680788 0.593659 0.116938 -4 4 -4 
6016 5 0.972272 0.633185 0.0944378 1 -2 2 
7088 5 0.290604 0.706515 0.0878539 7 -2 0 
6112 6 0.25317 0.703009 0.148954 4 -5 2 
5724 5 0.74966 0.716534 0.0765778 0 -3 2 
8379 5 0.0133131 0.733017 0.0996845 0 1 -4 
7015 5 0.73774 0.734772 0.109962 4 0 1 
8952 5 0.859691 0.736982 0.17416 -8 4 4 
5272 6 0.109878 0.784963 0.151098 2 3 -4 
6057 5 0.149947 0.805613 0.127917 0 -1 -2 
8862 5 0.468563 0.790474 0.122818 0 -3 3 
7357 5 0.850144 0.785107 0.102749 4 6 7 
7676 5 0.77665 0.834735 0.123297 1 -3 5 
7368 5 0.946983 0.869203 0.101288 -2 4 -2 
5234 5 0.399434 0.883958 0.121941 1 -4 -2 
5247 5 0.999037 0.885642 0.146486 -3 -1 0 
7757 6 0.156093 0.909836 0.125141 0 -4 0 
7003 6 0.422289 0.950956 0.136993 1 -5 0 
7013 6 0.689764 0.927153 0.112086 -2 -2 7 
6152 6 0.150737 0.967354 0.134328 -1 -1 -2 
8856 5 0.227052 0.933599 0.0976221 5 -7 -3 
5781 6 0.370749 0.00404469 0.115327 1 -1 5 
7654 6 0.766487 0.980847 0.104421 -2 -2 -1 
8172 5 0.140199 0.999622 0.124154 3 -6 -1 
7765 6 0.966996 0.998804 0.151299 0 -3 1 
5663 5 0.624997 0.0413952 0.165037 0 0 -1 
8105 5 0.831535 0.000456865 0.0889155 4 -2 -3 
6612 5 0.51601 0.013349 0.14507 1 3 1 
7176 5 0.781508 0.0126642 0.142983 -1 -4 -2 
7862 5 0.840436 0.0235612 0.17402 1 7 1 
7716 6 0.130395 0.0320451 0.18205 3 2 3 
7645 6 0.411957 0.0735255 0.128489 3 4 -1 
5008 6 0.279711 0.0443128 0.149932 2 2 2 
7818 6 0.608221 0.104163 0.133642 -2 4 0 
6606 5 0.740175 0.0974773 0.127566 -3 -3 0 
8523 6 0.935172 0.0904723 0.171881 -1 4 0 
7072 6 0.386401 0.107902 0.160066 1 4 1 
6583 6 0.128553 0.13066 0.157835 3 0 2 
8784 6 0.52159 0.120165 0.114714 1 2 0 
8780 5 0.980255 0.121781 0.193862 -2 0 -1 
6869 6 0.701353 0.14321 0.126728 -2 1 -4 
5322 6 0.913957 0.195809 0.113267 -6 4 2 
6504 6 0.0174814 0.167474 0.14424 -4 -1 0 
5997 5 0.781283 0.185634 0.185909 0 4 -1 
5160 5 0.0355096 0.271867 0.118544 -1 0 3 
8576 5 0.0307691 0.270375 0.165882 -1 2 6 
8144 6 0.173387 0.226247 0.124435 3 -1 6 
6736 6 0.433926 0.263776 0.144767 1 -2 1 
6818 6 0.642119 0.284703 0.160861 4 2 0 
6272 5 0.17032 0.261555 0.150351 -4 -2 3 
5224 5 0.593799 0.248766 0.165141 -2 -1 2 
6448 5 0.838794 0.26168 0.145895 1 1 3 
7808 6 0.942753 0.268459 0.149573 0 -3 0 
7661 6 0.936756 0.270082 0.169465 5 4 2 
7280 5 0.447258 0.280725 0.142649 5 -3 3 
7301 5 0.498082 0.294817 0.155036 1 2 -1 
6660 6 0.656886 0.288855 0.139417 -1 3 7 
5613 6 0.0544045 0.340077 0.143757 3 0 4 
6225 6 0.311622 0.283816 0.12446 -1 -2 4 
7350 5 0.753625 0.363191 0.156361 2 -1 -4 
6550 6 0.931501 0.323929 0.162902 1 -1 -4 
7977 5 0.234 0.346139 0.131801 -2 -2 -2 
8695 6 0.933181 0.391483 0.154743 1 1 -1 
8631 6 0.166881 0.357471 0.126107 1 0 -1 
6880 5 0.125956 0.344305 0.168767 0 1 2 
8169 5 0.581974 0.364082 0.127458 -5 -4 -1 
5927 6 0.254486 0.405657 0.135586 -4 1 2 
7927 6 0.374314 0.393218 0.141035 3 -2 -5 
5144 5 0.18643 0.458141 0.131305 1 0 0 
5263 5 0.203664 0.450675 0.183435 1 -2 -5 
5965 6 0.579149 0.478428 0.149792 -3 0 -2 
7943 5 0.8949 0.418775 0.148247 -2 1 0 
7284 6 0.39235 0.427859 0.138461 -1 0 0 
7777 5 0.822722 0.471874 0.135804 5 1 -2 
7967 6 0.679621 0.458339 0.151505 4 1 3 
7509 5 0.563935 0.486662 0.126061 -1 -1 1 
7017 5 0.299377 0.546391 0.167217 0 -1 1 
6825 6 0.394485 0.539749 0.133939 -2 4 0 
6752 5 0.454481 0.561785 0.167308 4 3 1 
8401 6 0.297032 0.54134 0.11886 -1 -1 3 
5001 6 0.770151 0.556491 0.152062 -1 -1 5 
7578 5 0.839915 0.54559 0.174997 3 -2 -2 
8175 5 0.992072 0.568556 0.190505 -1 1 -4 
5296 6 0.26396 0.570198 0.130278 5 0 1 
8124 5 0.34483 0.559253 0.184367 3 2 2 
6437 6 0.568507 0.604778 0.148922 1 0 -3 
5176 5 0.720835 0.612732 0.182902 7 5 3 
5085 6 0.656004 0.639402 0.151082 4 0 1 
6672 5 0.799384 0.642115 0.125501 3 1 5 
8728 6 0.925413 0.643569 0.150725 3 1 1 
8139 5 0.921275 0.604617 0.153646 2 -3 -2 
7469 6 0.551014 0.637318 0.145962 3 -1 -6 
8357 6 0.0923339 0.65229 0.148275 -2 1 1 
7024 5 0.946723 0.669834 0.121615 0 -5 3 
5612 5 0.969174 0.694571 0.149699 0 0 0 
8036 6 0.174897 0.684392 0.135992 6 3 2 
7047 6 0.707289 0.711737 0.108739 -2 1 5 
5848 5 0.750699 0.680563 0.141197 3 3 -2 
8327 5 0.465835 0.695487 0.125763 -1 0 -2 
6134 6 0.483351 0.710671 0.116008 1 -2 2 
6278 5 0.802063 0.762347 0.169695 3 -5 3 
8529 6 0.46676 0.728095 0.154987 5 2 -2 
6387 6 0.449217 0.711103 0.129793 0 2 1 
5503 5 0.592828 0.743703 0.139269 2 -5 3 
7390 5 0.651876 0.75304 0.184495 -2 0 -1 
5914 6 0.661948 0.73471 0.168239 5 -1 0 
7985 6 0.112336 0.743278 0.14722 1 -2 -2 
5652 5 0.558699 0.784731 0.11171 -1 -3 3 
8732 6 0.937695 0.775488 0.149181 -2 -4 5 
5025 6 0.471584 0.80634 0.132971 2 -1 6 
6341 6 0.761162 0.813325 0.178612 -2 8 4 
6017 5 0.168606 0.856966 0.158404 2 -4 6 
8385 6 0.591106 0.823415 0.130642 -2 -1 3 
7225 6 0.762185 0.873446 0.135564 2 3 -1 
8333 5 0.371807 0.900092 0.176816 2 -1 4 
5330 5 0.659257 0.89498 0.151206 7 -1 0 
8071 6 0.775892 0.922479 0.147693 1 1 -1 
6920 6 0.148601 0.929794 0.131922 -3 -1 0 
7851 6 0.615886 0.925723 0.166044 3 -2 2 
5220 6 0.883697 0.00973916 0.138426 0 -4 2 
6138 6 0.164358 0.00056092 0.168087 -1 5 -1 
8111 6 0.562471 0.0377413 0.142913 -1 1 1 
6181 6 0.898736 0.0109778 0.152139 -1 1 0 
5530 6 0.877495 0.0333766 0.121746 0 -2 -1 
5126 6 0.162495 0.0573828 0.197606 5 1 0 
5357 6 0.469136 0.087791 0.194957 1 -4 -3 
8199 5 0.124734 0.118039 0.182585 0 -1 1 
7049 5 0.455565 0.139167 0.14333 1 4 -1 
7807 5 0.141802 0.15105 0.125967 0 -3 -2 
7963 6 0.358164 0.190833 0.169357 0 -3 0 
6352 6 0.364908 0.148171 0.202517 2 -1 1 
8882 5 0.446262 0.157083 0.160683 6 2 -1 
7253 6 0.81237 0.186657 0.18316 3 -1 0 
7165 6 0.0428066 0.239093 0.145367 -4 2 3 
6020 6 0.22514 0.193623 0.146991 -2 -3 -1 
5742 6 0.471408 0.242736 0.145197 7 -1 1 
6267 6 0.514274 0.264131 0.213688 -5 1 4 
7264 6 0.533384 0.243238 0.169328 3 -2 -2 
7260 6 0.792159 0.268967 0.163727 6 -1 1 
8163 6 0.581392 0.289072 0.204516 0 -1 -5 
5671 5 0.67457 0.249749 0.16862 3 -1 1 
6161 6 0.908691 0.251902 0.155155 -2 5 5 
8901 5 0.220951 0.296538 0.163299 1 1 -4 
5553 6 0.391298 0.289974 0.176301 1 0 0 
7534 6 0.548187 0.287684 0.169011 0 2 6 
6747 5 0.638195 0.317217 0.146882 2 4 2 
6528 5 0.973997 0.287166 0.155255 -3 6 -2 
8594 6 0.392689 0.354872 0.136924 1 -2 -3 
7358 6 0.661427 0.300872 0.185913 -1 -1 -2 
6121 6 0.991189 0.315727 0.163511 -3 -1 2 
6461 6 0.197612 0.362273 0.190847 2 1 2 
7637 5 0.228743 0.367778 0.184615 1 2 2 
7813 5 0.734721 0.32873 0.18831 0 1 2 
7677 6 0.955427 0.374853 0.162065 -2 -1 -3 
5715 6 0.275592 0.35918 0.211812 2 1 1 
7583 5 0.844316 0.374765 0.176003 -1 -2 -1 
5771 6 0.862869 0.380848 0.197007 -2 -3 2 
6040 6 0.571683 0.370844 0.184905 0 0 3 
8940 5 0.710158 0.421957 0.169428 4 0 -4 
5730 6 0.10836 0.432937 0.153393 2 0 3 
8212 6 0.36284 0.45495 0.19462 -3 1 -2 
5610 6 0.421131 0.502326 0.166956 -2 6 4 
6224 5 0.895817 0.451041 0.156927 -4 1 1 
7632 6 0.394916 0.508015 0.153945 -2 0 1 
5281 5 0.89574 0.495626 0.185348 3 2 2 
7913 6 0.0173843 0.525974 0.162114 1 -4 3 
6904 5 0.732192 0.500876 0.166046 -3 3 -1 
7698 6 0.790536 0.473305 0.144547 0 4 -2 
7080 5 0.473721 0.550642 0.145151 0 6 0 
5445 6 0.661267 0.548284 0.181356 -3 3 1 
8737 6 0.087114 0.570098 0.186537 2 0 -4 
5941 6 0.272647 0.548449 0.160594 1 1 -4 
8489 5 0.383882 0.528241 0.161893 -1 1 6 
5540 5 0.487766 0.549124 0.182499 -1 3 5 
7259 5 0.67353 0.598369 0.165809 -3 0 -1 
6801 5 0.929305 0.586421 0.177724 3 -1 2 
8258 6 0.139765 0.571484 0.183433 -5 3 0 
7329 5 0.468075 0.624237 0.153517 1 -3 1 
8446 5 0.0328811 0.690398 0.162793 2 -1 -3 
6784 6 0.156712 0.645018 0.178113 -4 -1 -1 
6846 5 0.771954 0.718151 0.174441 1 1 2 
5991 6 0.00636409 0.680711 0.181205 3 1 -3 
6968 6 0.0539603 0.686905 0.179325 -3 1 3 
7983 6 0.848749 0.704267 0.142029 -2 -2 -2 
5895 6 0.00133039 0.759628 0.188134 3 -1 1 
6320 6 0.348805 0.763292 0.171221 -3 3 3 
8519 5 0.334173 0.70868 0.157574 1 -6 0 
6530 5 0.90917 0.723306 0.146156 -5 1 4 
6922 6 0.191123 0.73562 0.172058 1 3 0 
6466 6 0.919626 0.733025 0.151173 -2 1 3 
6394 5 0.723341 0.738116 0.176521 -4 2 -2 
6171 6 0.0184079 0.776202 0.210916 6 4 1 
8636 6 0.247679 0.759717 0.168622 0 -4 2 
8575 6 0.30059 0.790885 0.165381 -2 2 3 
7744 5 0.17287 0.796531 0.186862 5 0 -1 
7037 6 0.518713 0.849837 0.15853 5 -1 0 
8795 5 0.963745 0.847408 0.144077 -4 -2 1 
7180 6 0.00673765 0.876425 0.1645 2 0 0 
7772 6 0.396401 0.844185 0.147457 2 -4 1 
5242 6 0.100003 0.878775 0.212393 0 -3 -1 
8756 5 0.512916 0.886209 0.158467 0 -2 0 
7388 6 0.685471 0.835593 0.222571 -4 -2 1 
6427 6 0.432494 0.929673 0.169666 -1 3 3 
8995 6 0.470284 0.931877 0.143276 -2 -5 0 
8934 5 0.406945 0.942165 0.176421 2 0 -5 
8837 5 0.651029 0.942563 0.194644 4 3 -2 
8942 6 0.414373 0.920451 0.178677 -1 1 -3 
6609 6 0.631273 0.93761 0.173649 1 5 -3 
7987 6 0.603119 0.993448 0.227542 0 -5 1 
8440 6 0.0115172 0.0416076 0.220577 3 3 4 
5773 5 0.717011 0.0719461 0.20271 3 1 1 
6286 5 0.788197 0.0444154 0.186643 2 -1 0 
5174 6 0.870897 0.0330256 0.199069 2 4 -5 
8069 5 0.154452 0.0465409 0.202261 1 1 -5 
7974 6 0.223392 0.0780799 0.171715 2 2 4 