ITEM: TIMESTEP
20000000
ITEM: NUMBER OF ATOMS
9000
ITEM: BOX BOUNDS pp pp pp
-75 75
-75 75
-75 75
ITEM: ATOMS id type xs ys zs ix iy iz 
8303 6 0.0795547 0.0185205 0.015538 4 6 6 
5052 6 0.293069 0.986844 0.976368 7 1 -4 
8821 6 0.417011 0.0227423 0.0144634 5 -1 0 
5971 6 0.883329 0.0611548 0.0243076 -5 1 4 
7362 6 0.329187 0.044747 0.0148019 -3 3 1 
8010 6 0.628391 0.0638734 0.0293467 0 -4 0 
6829 5 0.765851 0.0685637 0.0239306 -6 2 -5 
5115 6 0.642478 0.0701787 0.0142019 1 -2 -2 
8085 6 0.704809 0.0610635 0.0272099 0 4 5 
7469 6 0.68185 0.0864078 0.0268927 1 1 2 
8653 5 0.899148 0.0806486 -9.50346e-05 -2 -2 -4 
5465 5 0.040137 0.103965 0.00930059 0 -5 -3 
5385 5 0.181285 0.11711 0.987921 -1 0 1 
5012 6 0.311304 0.116869 0.0287603 3 2 0 
8761 6 0.319123 0.141268 0.0252419 2 0 0 
7247 5 0.680609 0.116247 0.996594 -2 1 1 
5171 6 0.181621 0.156748 0.0168922 3 -2 -2 
7895 5 0.446356 0.186214 0.988514 5 -1 0 
8225 5 0.387429 0.142078 0.0129659 1 3 1 
5563 6 0.118816 0.163263 0.999075 0 2 -6 
5920 6 0.416407 0.20189 0.00106781 2 2 2 
8588 6 0.670899 0.247594 0.0436198 -4 -1 4 
6817 5 0.873763 0.199457 0.998353 0 4 2 
5418 6 0.129653 0.261498 0.0178786 0 2 3 
6474 6 0.644483 0.207337 0.023663 1 4 -1 
7334 5 0.152254 0.243963 0.00730335 3 -1 0 
6318 5 0.563815 0.312756 0.988122 -2 -3 -1 
5774 6 0.627638 0.275314 0.00620567 3 -4 1 
5677 6 0.675212 0.257476 0.0157071 4 3 -3 
7616 5 0.898762 0.318456 0.00768721 2 -4 0 
5275 6 0.0540004 0.299959 0.070934 1 0 3 
7494 6 0.765402 0.298888 0.0214432 0 -1 -4 
5778 5 0.882491 0.324227 0.99541 0 -1 -3 
8200 6 0.0302922 0.358686 0.0210972 2 1 -3 
7399 5 0.499165 0.343875 0.986687 2 -3 -1 
6302 5 0.271957 0.353239 0.0286844 2 7 -3 
5867 5 0.879711 0.385366 0.0184759 -5 1 -2 
8237 6 0.154653 0.417673 0.0233007 2 0 2 
7312 6 0.80817 0.439627 0.0218862 -1 0 2 
8829 6 0.767366 0.437532 0.0293857 4 1 -1 
6146 6 0.533704 0.482541 0.0213138 -2 -1 -5 
5043 5 0.92669 0.445686 0.0446316 3 -2 -1 
5724 6 0.0930505 0.499138 0.0150072 3 0 -3 
8779 5 0.525269 0.490201 0.989947 1 -3 -2 
5423 6 0.904171 0.523911 0.00243107 4 6 1 
7152 6 0.284908 0.528303 0.98522 1 1 -2 
6766 5 0.429069 0.535035 0.0104551 -1 -1 2 
7219 6 0.979668 0.512167 0.0336003 -6 -7 -2 
8135 5 0.396182 0.536238 0.0192835 3 -3 0 
8566 6 0.800504 0.596461 0.0073283 -1 2 2 
8813 6 0.858667 0.568533 0.0132785 4 -6 0 
7826 6 0.0451352 0.608701 0.00435293 2 1 -6 
7798 5 0.630396 0.665117 0.0138784 0 0 1 
7285 6 0.652908 0.606308 0.992437 2 -3 3 
5410 5 0.20609 0.635559 0.0206792 1 0 3 
6790 5 0.496885 0.662753 0.986959 2 0 -3 
6137 5 0.181054 0.671885 0.01276 -2 0 3 
5983 6 0.296353 0.688657 0.0294783 5 2 5 
8323 5 0.502667 0.67312 0.981036 -1 -5 3 
6358 6 0.578511 0.695156 0.991177 7 1 -2 
7237 5 0.782925 0.697391 0.0173702 -4 -6 2 
6752 6 0.772242 0.717945 0.0351431 6 4 4 
6276 5 0.104885 0.702549 0.0244551 -5 -2 3 
5647 5 0.246898 0.731333 0.027351 -3 3 3 
7040 5 0.458532 0.74217 0.0305052 0 -3 -1 
7400 6 0.526371 0.688365 0.0385355 -3 -6 1 
8889 5 0.655611 0.776094 0.98054 0 -1 2 
8476 5 0.752873 0.723985 0.979888 1 -2 -2 
6219 5 0.309172 0.752264 0.000528306 -3 -2 1 
8999 6 0.29141 0.783315 0.987326 6 -4 0 
6565 6 0.860569 0.781111 0.00520621 1 0 -2 
7968 5 0.985563 0.786838 0.00271347 1 -5 0 
7179 5 0.381103 0.804117 0.00797363 2 3 -2 
5117 6 0.803963 0.83825 0.980909 -3 -2 0 
8419 6 0.222541 0.827592 0.00239416 0 -1 -2 
5402 6 0.73384 0.849178 0.992573 -2 -2 1 
8871 5 0.275142 0.896353 0.995947 -5 -4 6 
8689 5 0.638801 0.836886 0.0404189 -1 3 -2 
8211 5 0.292312 0.87791 0.0177474 -3 0 2 
5666 6 0.361767 0.909195 0.0399656 1 2 3 
5541 6 0.934231 0.895774 0.998312 2 -4 -1 
7136 6 0.0766285 0.95465 0.99094 -1 -5 1 
5080 6 0.121701 0.9371 0.987557 -3 0 3 
5083 6 0.208622 0.962259 0.0204391 2 2 0 
5729 6 0.263675 0.921421 0.00473016 -1 1 3 
8857 5 0.989152 0.929358 0.0493422 0 -2 -1 
8607 5 0.151288 0.951503 0.0234738 0 1 4 
6321 5 0.256617 0.0234598 0.0259953 1 0 -2 
5406 5 0.905906 0.950246 0.0150768 4 -1 -1 
5074 5 0.694334 0.995887 0.0334965 -1 -3 3 
6140 6 0.0246605 0.0166459 0.0171562 4 1 2 
5529 6 0.273218 0.0460337 0.0525629 3 5 3 
7182 5 0.559502 0.0787724 0.0243393 1 -1 5 
5039 6 0.548483 0.0754 0.0339216 1 -2 -3 
7675 6 0.997058 0.170327 0.0131053 0 -4 -1 
8444 5 0.461033 0.119095 0.0281895 4 3 0 
7783 6 0.859833 0.143117 0.0116197 2 3 2 
6457 6 0.989477 0.167069 0.0356769 0 -4 -1 
5348 5 0.379008 0.214809 0.00493319 4 1 0 
6915 5 0.365339 0.268893 0.0100327 -2 2 4 
7412 5 0.628691 0.25794 0.0459031 -2 -1 2 
8720 6 0.843942 0.272436 0.0400227 -4 0 3 
8028 6 0.847851 0.300195 0.0309682 -3 1 2 
5046 6 0.00659213 0.356925 0.0268564 -2 -1 1 
8652 5 0.881851 0.354193 0.0714692 -1 2 -2 
7123 6 0.88664 0.341376 0.0131889 -1 4 0 
7096 6 0.457422 0.37198 0.0299813 -1 1 -2 
7931 6 0.997274 0.374281 0.0184787 -2 3 5 
5277 6 0.0409079 0.383359 0.0142573 2 -3 5 
6508 5 0.666004 0.395604 0.00945526 -1 0 -2 
8828 6 0.71262 0.373481 0.0146289 -5 1 6 
5856 6 0.90241 0.344741 0.0292931 0 3 1 
5673 6 0.132982 0.394226 0.0232452 3 -2 -1 
7548 6 0.337834 0.39568 0.00208775 1 4 5 
8647 6 0.511044 0.38267 0.0538111 4 2 1 
7917 5 0.4451 0.39402 0.0312035 2 3 -1 
6835 6 0.750679 0.396245 0.0358137 0 1 6 
5138 5 0.595081 0.421513 0.0729701 -1 -2 0 
8542 6 0.674088 0.462819 0.00696447 -2 -1 1 
5982 5 0.755115 0.476547 0.00945356 1 4 1 
8726 5 0.865468 0.49119 0.0539528 -1 4 -1 
5002 6 0.727898 0.524305 0.0179303 -7 -1 0 
7797 6 0.0452868 0.57181 0.0252913 5 0 0 
5930 5 0.38587 0.550946 0.010289 -1 1 0 
7010 6 0.364799 0.579895 0.0451549 0 4 -4 
8229 5 0.565979 0.546418 0.0203814 2 -3 -3 
7467 5 0.0250087 0.620696 0.0125984 -3 3 -2 
5417 6 0.911871 0.650345 0.0540363 -3 2 1 
8630 5 0.00467076 0.637359 0.0390405 -1 1 2 
5782 6 0.57264 0.712852 0.0584264 1 2 -3 
8937 6 0.8204 0.661961 0.0474532 4 0 -2 
5686 6 0.527889 0.740643 0.0249748 0 1 0 
5865 6 0.282901 0.74862 0.0859705 5 -5 -1 
8227 6 0.284336 0.759007 0.0663787 -2 -1 1 
8402 5 0.307106 0.733289 0.0658551 -1 2 4 
7641 6 0.449082 0.751166 0.0513657 4 -3 3 
7810 5 0.513254 0.774378 0.0225675 3 0 -2 
7477 5 0.612135 0.806978 0.0273033 -1 2 3 
8583 5 0.245207 0.783759 0.0420096 -2 -2 0 
7614 5 0.369283 0.76025 0.0348836 1 -5 3 
7660 5 0.767224 0.801345 0.998544 2 -3 -2 
8453 5 0.445139 0.813904 0.0719234 -1 3 0 
8526 6 0.745168 0.818216 0.00340165 -3 0 0 
6136 6 0.729222 0.799682 0.0424157 0 2 5 
7085 6 0.739714 0.843487 0.0390089 -2 -2 0 
6475 6 0.837465 0.850519 0.0440656 -3 -3 4 
8711 5 0.811525 0.844643 0.0517737 1 -4 5 
7418 6 0.413567 0.896927 0.0148378 0 -2 3 
8749 5 0.476367 0.903637 0.0682872 4 0 -1 
7625 5 0.57259 0.92215 0.0734974 -2 -1 -1 
5658 6 0.636019 0.926504 0.0297567 3 3 0 
5823 5 0.78346 0.941836 0.0184056 -1 1 -4 
7684 6 0.939932 0.93749 0.0339069 0 1 1 
5419 5 0.106509 0.0236087 0.0128617 -1 2 0 
5698 6 0.706542 0.99879 0.0485904 -2 4 -5 
6171 6 0.52062 0.0505998 0.0514484 1 -1 3 
5091 5 0.824544 0.0512967 0.035811 -1 1 -1 
6954 5 0.290481 0.0663934 0.0878607 4 5 -3 
5540 5 0.334027 0.0547738 0.0467611 0 -1 -3 
5369 5 0.543671 0.0701094 0.0721477 -2 0 2 
5187 6 0.639626 0.0923931 0.0194643 5 -2 2 
7012 6 0.00193105 0.0661789 0.0634645 4 3 8 
5491 6 0.0649239 0.0914084 0.0459447 4 5 -1 
6386 6 0.195355 0.089758 0.0759716 3 5 6 
6862 5 0.485218 0.0811133 0.0541344 -6 -2 0 
6155 6 0.884923 0.11978 0.063319 8 2 4 
6876 6 0.148152 0.141477 0.0483269 0 0 1 
6112 5 0.607943 0.146506 0.0671025 1 1 2 
5047 6 0.661716 0.185487 0.0413174 1 2 -5 
8805 5 0.905163 0.153671 0.0620407 -1 2 -3 
6454 5 0.964317 0.181805 0.0508526 -1 -2 -3 
6344 6 0.012093 0.17701 0.0805289 1 -2 -4 
7681 5 0.959463 0.245677 0.0703595 -6 -1 -5 
8664 5 0.827539 0.244024 0.0693555 -3 0 1 
6676 5 0.24713 0.36811 0.0304231 1 -3 3 
8956 5 0.10007 0.382514 0.045981 -2 -2 -5 
6750 6 0.0187189 0.346167 0.0414495 2 0 3 
6307 6 0.655268 0.406823 0.0664163 -2 0 -1 
7966 5 0.946499 0.367224 0.0792083 -3 1 1 
8898 6 0.185347 0.368534 0.0838885 3 2 3 
6663 5 0.87264 0.416612 0.0445068 -5 0 -2 
7212 5 0.426508 0.453399 0.0657002 0 8 -2 
8825 5 0.0241193 0.447385 0.0844561 1 -7 -3 
7084 5 0.116378 0.456982 0.0629181 -2 1 -1 
6848 6 0.051689 0.49147 0.0424412 -3 0 1 
6381 5 0.109931 0.516947 0.0873534 2 -3 0 
8523 6 0.181108 0.520564 0.0689805 1 3 -4 
5446 6 0.622407 0.535896 0.0598925 0 -2 -3 
5111 6 0.527115 0.529179 0.0775232 -1 2 -1 
8189 5 0.636976 0.563787 0.0486092 -3 -4 -1 
7580 6 0.644969 0.557262 0.0744048 -2 0 -2 
5053 5 0.280966 0.529951 0.0820588 0 0 1 
5157 6 0.75852 0.573898 0.0456414 0 -2 1 
8746 6 0.733051 0.546961 0.0836963 -2 -4 1 
5769 5 0.304665 0.565211 0.0577247 3 4 -6 
7097 5 0.371356 0.569797 0.0312225 -5 4 1 
5383 6 0.598528 0.598617 0.0394225 0 4 -2 
8981 6 1.0002 0.61055 0.0296211 3 4 1 
5798 6 0.169607 0.6031 0.0302438 0 3 -4 
5272 6 0.136175 0.607583 0.0510797 -1 3 6 
6336 6 0.457336 0.611209 0.0421049 5 -3 -1 
8619 6 0.779415 0.53363 0.104387 -1 0 2 
7366 6 0.902856 0.583992 0.0289793 2 -4 4 
8270 5 0.42827 0.617423 0.0597891 0 5 2 
6317 5 0.638187 0.676329 0.055047 0 -1 7 
6820 6 0.972866 0.630223 0.0562139 -5 4 1 
7686 6 0.258917 0.67855 0.0552065 0 0 -1 
7642 6 0.0235179 0.669066 0.0664685 0 -5 -2 
8515 6 0.50406 0.68089 0.0673191 0 2 1 
7983 6 0.0502267 0.681842 0.0580569 -2 2 0 
7056 6 0.0791744 0.755104 0.0810567 4 0 -2 
8984 5 0.324053 0.745191 0.0532082 1 0 0 
8741 5 0.57069 0.731195 0.0204623 2 -4 0 
5303 5 0.893412 0.774422 0.0822751 -5 -2 0 
7490 6 0.0280833 0.764205 0.0815478 3 -4 -3 
5562 5 0.786558 0.765676 0.0675519 1 3 4 
7891 6 0.0156998 0.772825 0.0991811 4 -2 -1 
7875 6 0.22079 0.839286 0.080633 -1 3 3 
5926 6 0.562677 0.877951 0.0581991 0 0 4 
5054 5 0.95499 0.853858 0.0273746 5 0 0 
6733 6 0.322575 0.902413 0.0745274 2 -3 2 
6703 6 0.552567 0.888539 0.0753493 -2 4 1 
5221 6 0.765946 0.893241 0.0571766 -1 0 4 
8443 5 0.174034 0.875411 0.0375883 7 5 2 
6636 6 0.361559 0.881818 0.073976 1 -2 1 
7592 6 0.680998 0.910089 0.0675069 -1 3 4 
8559 5 0.374667 0.905655 0.0574628 -1 -3 5 
5479 6 0.740809 0.960533 0.0405002 8 1 -2 
8485 6 0.514298 0.968884 0.0834471 1 -5 3 
7273 5 0.108571 0.96479 0.0414493 2 4 2 
5586 6 0.119679 0.0211723 0.0976009 2 -3 -2 
8058 5 0.263694 0.0402959 0.0763136 2 0 -3 
5131 5 0.966487 0.0257183 0.0991732 -4 -2 1 
6490 6 0.0685541 0.0365559 0.0770577 -1 0 -1 
7634 5 0.130934 0.0755766 0.0746406 1 -2 -1 
5674 6 0.796099 0.0931881 0.0607509 6 2 -3 
8688 5 0.0794322 0.0989771 0.0459179 6 1 -4 
5793 5 0.581921 0.0660761 0.118303 -2 4 -2 
7708 6 0.667817 0.0794715 0.0522103 0 2 0 
7869 5 0.177687 0.0858917 0.070706 -2 -2 0 
8302 5 0.359495 0.0662723 0.0839716 0 -1 -2 
5291 6 0.791715 0.0935174 0.0714511 1 3 -2 
7378 5 0.808932 0.0648014 0.0744108 1 4 -4 
7682 5 0.95553 0.1092 0.111235 5 5 1 
7286 6 0.0988785 0.148936 0.109321 1 0 2 
7700 6 0.560103 0.202037 0.10486 1 1 -1 
5347 6 0.514414 0.159799 0.069906 -1 -1 3 
5390 6 0.986795 0.17761 0.0891996 -1 -2 -4 
7787 6 0.322303 0.191394 0.0947628 -4 -4 3 
6509 5 0.537264 0.197931 0.0715578 1 6 3 
8722 6 0.752526 0.170083 0.0603686 3 -3 -2 
6096 6 0.283859 0.232229 0.0450741 2 -1 -1 
6528 6 0.645458 0.233944 0.0453598 0 2 -2 
5256 6 0.980901 0.323887 0.0842406 4 5 3 
6374 5 0.477502 0.291574 0.0946997 5 -1 -2 
5503 6 0.518797 0.267554 0.0983106 -3 0 -2 
5353 5 0.108882 0.334624 0.0656764 2 -1 3 
7822 6 0.589416 0.308634 0.0827022 -1 -3 1 
6254 6 0.0755026 0.373584 0.101578 3 3 -2 
5787 6 0.223658 0.352946 0.104406 2 6 -2 
5797 6 0.086535 0.362644 0.0941357 5 1 -5 
6517 6 0.596538 0.363214 0.104966 1 -3 -3 
5757 6 0.98471 0.389871 0.0716874 -2 3 3 
8756 5 0.304716 0.40341 0.0892196 -1 -1 4 
7913 6 0.468415 0.425832 0.0789984 -1 3 -2 
8663 6 0.182267 0.455786 0.0427304 3 1 -2 
7829 5 0.242744 0.455253 0.0399772 -3 -1 -1 
7428 5 0.548217 0.435636 0.0963315 -4 -1 -1 
8144 5 0.434304 0.514929 0.0857476 1 1 7 
5249 6 0.443585 0.508039 0.0632647 -2 2 2 
8530 6 0.843488 0.49996 0.0816287 7 1 1 
8714 5 0.173528 0.494225 0.0822477 4 2 -1 
6585 5 0.384971 0.483163 0.0676328 -7 3 1 
6983 6 0.565665 0.495901 0.0824014 -1 -2 -3 
5581 5 0.165114 0.592976 0.0792667 1 1 -2 
8824 5 0.361135 0.572132 0.0836817 -1 1 -3 
6419 6 0.948648 0.617347 0.0755934 -3 -4 -1 
5075 6 0.448577 0.579405 0.0516872 4 -2 3 
6216 6 0.874293 0.602362 0.0660284 -1 -1 2 
6394 5 0.00365879 0.63049 0.0613991 1 -1 -1 
5267 6 0.295356 0.630992 0.0661811 0 2 5 
6500 6 0.278024 0.65344 0.0934697 1 -1 0 
8401 6 0.759541 0.608856 0.101208 1 -1 2 
6436 5 0.993202 0.701134 0.105566 -5 3 -2 
7434 6 0.167931 0.693423 0.075823 5 -2 2 
5648 5 0.23134 0.647158 0.0462949 2 -1 -4 
7230 6 0.250132 0.663316 0.108398 3 0 5 
6616 5 0.825257 0.69462 0.0722268 -1 2 1 
7807 5 0.929306 0.659196 0.0855351 0 -5 -2 
8393 6 0.113714 0.703853 0.0803044 0 0 6 
6320 6 0.719272 0.692832 0.0672676 1 -2 0 
6672 6 0.767765 0.70814 0.084526 -4 0 -2 
8377 6 0.956169 0.710917 0.0902258 1 0 -3 
7419 6 0.279199 0.683928 0.101971 -2 -3 3 
6246 6 0.403521 0.739851 0.0598806 -3 0 -2 
6109 6 0.583413 0.759371 0.0790189 4 7 2 
6253 5 0.836872 0.763259 0.051788 -2 -3 -4 
6614 6 0.497596 0.744584 0.132595 -2 2 4 
5694 5 0.624358 0.715643 0.0295759 3 0 0 
7404 6 0.763749 0.728804 0.0863445 -2 1 -3 
5451 6 0.983358 0.757864 0.097426 0 -6 0 
8203 5 0.600098 0.766056 0.0778982 0 -2 1 
8007 6 0.110876 0.798212 0.0670368 -2 5 -2 
6852 5 0.81486 0.846614 0.0844544 -2 -3 -2 
7083 5 0.258809 0.845291 0.0702588 2 -1 -3 
7280 5 0.395228 0.866156 0.0781424 -3 -1 -4 
8538 5 0.462932 0.867924 0.107228 1 -3 2 
6042 6 0.829357 0.92673 0.0777004 1 4 -2 
6462 5 0.669311 0.900732 0.105032 -7 -2 2 
7887 6 0.763957 0.905183 0.0922628 4 0 -3 
7198 5 0.860044 0.947159 0.106586 -2 -2 2 
7371 6 0.582283 0.950513 0.0791031 2 -7 -2 
6412 5 0.99618 0.918885 0.0734892 1 0 0 
5447 6 0.0515077 0.971958 0.0830239 -2 3 -3 
8374 6 0.202717 0.935523 0.0713049 -2 -5 -1 
7330 6 0.513564 0.980838 0.0793635 4 1 -3 
7088 6 0.968505 0.977942 0.0844986 2 -2 0 
6656 6 0.168358 0.982428 0.0736272 4 -4 2 
8113 6 0.297238 0.98669 0.0759522 -1 2 -2 
8228 5 0.523093 0.975185 0.0922453 0 4 1 
8965 5 0.862326 0.0201586 0.079816 1 -1 -6 
5764 6 0.811531 0.0182283 0.115653 6 1 -4 
7699 5 0.754745 0.0370902 0.102173 -3 -1 0 
7882 5 0.187471 0.0367704 0.118891 5 4 1 
5360 6 0.501306 0.0259352 0.0698285 -4 1 -1 
5321 6 0.972354 0.0464249 0.133595 -1 6 -1 
5817 6 0.630506 0.0739379 0.0886274 4 2 3 
6206 6 0.774406 0.0702318 0.0981601 -2 -2 3 
5355 5 0.963733 0.0952396 0.105469 3 -3 1 
6190 6 0.865537 0.118523 0.0351705 1 1 -1 
8333 6 0.955273 0.118503 0.122518 -3 -3 -4 
5202 5 0.957008 0.131177 0.13175 1 0 -1 
6234 6 0.379629 0.0957912 0.0783442 4 4 6 
7723 6 0.258582 0.146835 0.0902908 -2 -4 -3 
8356 6 0.230481 0.178187 0.103723 -2 -6 5 
7046 6 0.366711 0.161481 0.107042 4 -2 1 
8985 6 0.44723 0.175066 0.120786 1 -1 -1 
7649 5 0.527087 0.170533 0.122334 6 4 0 
8752 6 0.639463 0.146651 0.130503 -1 -5 -3 
5703 6 0.0456255 0.180984 0.103428 -2 0 -2 
7228 6 0.0717085 0.126995 0.113625 -1 3 0 
6348 5 0.301099 0.205871 0.108972 -6 3 6 
7045 5 0.0416142 0.227323 0.113357 2 -5 5 
8162 5 -0.000360129 0.148138 0.105372 2 2 0 
5955 6 0.53143 0.160246 0.0987486 -2 -1 1 
5427 6 0.637571 0.238276 0.131978 3 6 2 
5702 5 0.735728 0.198576 0.0924235 3 -4 0 
8190 6 0.821474 0.21851 0.101457 1 3 1 
8293 5 0.58606 0.193419 0.155257 -5 -2 2 
5710 6 0.844399 0.242254 0.0842027 -1 2 1 
5266 5 0.0439659 0.282091 0.113298 -1 2 2 
5977 6 0.467519 0.232578 0.126296 -3 1 3 
7896 6 0.758931 0.295211 0.0942855 2 2 -3 
7537 5 0.281449 0.299832 0.0887451 0 4 0 
6316 6 0.516426 0.288242 0.105524 1 2 -1 
5616 6 0.161002 0.331871 0.0904851 2 0 -1 
5358 6 0.843684 0.28566 0.0834204 -1 -2 2 
5260 5 0.190168 0.3411 0.0740723 -3 -7 -1 
7989 6 0.666668 0.307763 0.0916858 -1 2 4 
7605 5 0.676148 0.33621 0.11789 -1 3 0 
5195 5 0.256671 0.348158 0.102589 -2 3 3 
8865 6 0.341643 0.343339 0.105527 -2 4 -1 
6622 5 0.347014 0.359731 0.111958 0 1 2 
8812 6 0.792693 0.349865 0.122162 1 -3 -2 
8239 5 0.517252 0.401688 0.0750844 1 5 2 
7411 5 0.584452 0.346205 0.0874603 3 0 -2 
6989 6 0.212506 0.371936 0.0889709 5 -1 1 
8935 5 0.221033 0.417936 0.0550039 2 -1 -5 
5510 6 0.789927 0.429417 0.0743248 0 -4 0 
7520 5 0.593822 0.440364 0.0809479 3 0 6 
6166 5 0.893537 0.475158 0.111543 -3 1 2 
7711 6 0.990221 0.474081 0.108722 0 4 -1 
6761 6 0.253322 0.495514 0.11616 0 -2 5 
8909 6 0.658234 0.494983 0.0728708 0 -2 -5 
7519 5 0.35129 0.518936 0.115167 2 -2 -2 
8679 5 0.389169 0.522362 0.086173 -4 0 -3 
6324 6 0.403701 0.495708 0.140081 -1 0 2 
7130 5 0.769528 0.485186 0.118056 -1 -2 0 
8673 5 0.867317 0.462072 0.129694 0 0 1 
5340 6 0.479198 0.558224 0.0811208 1 -2 -1 
8922 6 0.660922 0.525801 0.119338 1 -4 0 
5870 6 0.979476 0.582936 0.0815687 1 -8 2 
6774 5 0.937605 0.629477 0.115967 -1 -1 -1 
5749 5 0.209342 0.655802 0.0924358 -4 0 0 
7712 6 0.202506 0.674748 0.10432 -1 4 -1 
7127 5 0.751641 0.675027 0.0672058 1 3 -2 
8196 5 0.388538 0.694461 0.0951673 0 0 -2 
6559 6 0.568868 0.690482 0.0727577 -1 1 0 
5731 6 0.664794 0.681174 0.0990719 -1 -1 5 
6967 6 0.800822 0.694711 0.117521 -2 -3 3 
7060 5 0.971537 0.699367 0.0893333 4 4 2 
8563 5 0.36485 0.715187 0.0944047 4 -2 1 
7602 5 0.440799 0.706536 0.120305 6 -1 0 
5089 6 0.461081 0.749519 0.110268 1 0 6 
6984 6 0.705647 0.757674 0.0831524 -2 2 0 
7899 6 0.00426647 0.748112 0.0880387 3 -1 -2 
8998 5 0.0998065 0.800688 0.0873141 2 0 -1 
7648 6 0.230851 0.818425 0.109474 0 -1 -1 
5941 6 0.315961 0.814612 0.0703396 -5 1 -1 
6879 6 0.0986475 0.790058 0.0824833 5 3 -5 
6578 5 0.341031 0.813836 0.114149 -2 5 -1 
7086 6 0.705205 0.820123 0.123234 -3 -3 0 
6674 5 0.901902 0.807745 0.119684 0 -1 -3 
8915 5 0.499219 0.896013 0.100312 4 0 3 
5539 5 0.202355 0.918105 0.0968372 -1 -4 1 
7776 5 0.545814 0.888692 0.0699519 3 1 -2 
7450 6 0.152964 0.914112 0.110559 0 -4 6 
6019 6 0.249568 0.907349 0.110026 3 -5 -3 
7380 6 0.983613 0.920319 0.101202 1 0 4 
5235 6 0.12505 0.955012 0.100455 -2 -2 4 
8379 6 0.863812 0.982461 0.100944 -4 2 1 
6686 5 0.0411022 0.96621 0.101996 1 2 0 
6210 6 0.734868 0.030298 0.12245 -5 -2 1 
5408 6 0.71848 0.938998 0.0871041 -2 -1 2 
5392 6 0.94502 0.984764 0.0621378 -4 -2 5 
6471 6 0.558963 0.0192525 0.0981836 -1 -5 0 
8874 6 0.925244 0.0293305 0.133274 0 1 -4 
5592 6 0.379375 0.971592 0.122376 2 7 4 
5247 6 0.178722 0.0655009 0.148855 3 5 4 
6147 6 0.572027 0.0474775 0.0988918 0 -2 2 
6744 6 0.0999275 0.0927734 0.0983182 4 -1 0 
5025 5 0.272289 0.0529956 0.104229 -5 -3 4 
6492 6 0.262233 0.0797826 0.0922861 -3 2 2 
8623 5 0.737628 0.0791064 0.145317 1 3 -6 
7033 5 0.414937 0.15762 0.109982 4 3 0 
8606 5 0.978481 0.15426 0.124812 0 -2 -4 
5217 6 0.61909 0.152885 0.115266 1 2 2 
5654 6 0.853673 0.172234 0.123841 -3 -2 -1 
6177 5 0.399312 0.173331 0.128918 -2 -2 3 
5265 5 0.0443695 0.230893 0.13911 1 -1 3 
8348 5 0.112276 0.196528 0.108712 3 -4 5 
8022 6 0.851131 0.210813 0.108484 3 1 -5 
5949 6 0.403541 0.231377 0.11454 0 3 2 
7928 6 0.401699 0.263214 0.123469 1 -1 5 
6256 5 0.383781 0.265942 0.111259 2 0 1 
6870 5 0.590939 0.239341 0.11911 -1 -2 3 
7934 5 0.729984 0.27313 0.121855 -6 -1 -1 
6442 5 0.446428 0.298005 0.13533 4 0 7 
5346 6 0.0147574 0.327361 0.120664 2 2 -1 
8400 6 0.0227096 0.338229 0.117555 3 1 -3 
6416 5 0.148893 0.342941 0.125807 -5 0 0 
7698 6 0.184832 0.292859 0.0942511 2 2 -4 
7828 5 0.349062 0.31097 0.158269 -4 0 -4 
7098 6 0.367586 0.355844 0.121335 7 1 2 
6228 6 0.174534 0.392576 0.14919 1 -2 -4 
6342 5 0.896934 0.370437 0.143892 -2 1 -2 
6538 6 0.161622 0.384009 0.144774 1 0 4 
5161 6 0.421874 0.379134 0.145302 2 3 0 
8533 5 0.724167 0.356979 0.135155 -3 5 -2 
5775 5 0.143779 0.412006 0.108419 -2 -2 0 
8798 5 0.275813 0.400338 0.12508 -1 -1 -7 
6846 5 0.756231 0.45011 0.124831 2 0 -2 
8429 6 0.130929 0.486836 0.0897337 3 -3 -4 
5601 5 0.368125 0.496131 0.118255 1 0 3 
7195 6 0.38996 0.454103 0.123827 2 -3 -4 
5967 6 0.450051 0.503349 0.0970928 4 1 0 
6382 5 0.573521 0.477888 0.129311 3 1 5 
8030 6 0.582297 0.529679 0.116798 -2 3 1 
5607 5 0.110455 0.530905 0.0895951 1 0 -4 
6801 5 0.333886 0.53864 0.110342 -1 -5 -5 
7325 5 0.800071 0.538665 0.162427 -5 -1 4 
7771 6 0.127854 0.568116 0.119958 4 -1 0 
6974 5 0.380407 0.531675 0.136343 0 -2 2 
7957 6 0.491843 0.610125 0.128653 -3 0 5 
5506 6 0.350203 0.590695 0.146784 3 3 2 
8762 6 0.902386 0.571021 0.113603 0 4 -1 
5134 6 0.0985274 0.688236 0.107602 -1 -7 5 
7211 5 0.474632 0.655636 0.106398 -4 -1 1 
6259 6 0.746103 0.686527 0.122133 -1 -4 -3 
6488 5 0.0233208 0.712887 0.123878 1 0 0 
8618 6 0.0920464 0.698689 0.100183 -1 0 2 
7491 6 0.149396 0.694811 0.102299 5 -3 4 
7925 5 0.146251 0.68774 0.0789961 -1 -1 2 
5805 5 0.363913 0.672637 0.0926203 7 -2 2 
8421 5 0.47969 0.703268 0.122288 -4 -3 3 
6220 6 0.721077 0.689349 0.102595 -1 -1 -6 
7719 5 0.529981 0.72527 0.132088 4 -1 4 
5336 5 0.588011 0.692605 0.101349 -2 -2 3 
6996 6 0.631381 0.715862 0.123602 0 -3 1 
8043 6 0.81488 0.718032 0.126866 3 4 4 
5738 5 0.294269 0.737305 0.112377 -1 0 0 
6570 6 0.566511 0.744357 0.156039 2 4 5 
6440 6 0.10612 0.77729 0.132079 -3 0 2 
6470 5 0.133574 0.813092 0.0958706 -2 -7 3 
7761 6 0.400243 0.771581 0.135167 4 -1 2 
7868 6 0.74629 0.800814 0.121341 -1 2 -4 
5335 6 0.778475 0.727846 0.104561 -2 -1 1 
8996 5 0.128846 0.808889 0.128516 -3 1 2 
7119 5 0.342202 0.820939 0.126796 -2 1 -6 
6102 5 0.39908 0.820188 0.14845 -3 2 4 
8180 6 0.424204 0.812483 0.127785 -2 -4 0 
5365 6 0.515457 0.862602 0.113121 -3 2 2 
8495 6 0.331579 0.844596 0.109836 -2 1 -2 
7139 5 0.441577 0.849479 0.138151 2 0 1 
6742 6 0.259102 0.89886 0.129381 1 0 7 
7307 6 0.548997 0.858455 0.12839 -5 6 -5 
8989 6 0.768254 0.856612 0.0975668 3 -1 3 
7458 5 0.832778 0.872097 0.133295 0 2 0 
5167 6 0.552933 0.978434 0.126241 -2 -1 4 
8408 5 0.627186 0.954853 0.120298 -5 0 -1 
8108 6 0.518999 0.996793 0.127126 -4 -4 -2 
6713 6 0.298241 0.0108835 0.169719 5 3 -2 
8322 6 0.339466 0.992389 0.173026 0 -2 -1 
8670 6 0.454877 0.0417231 0.162818 -4 -2 0 
5723 6 0.490752 0.989828 0.175259 3 0 0 
7926 6 0.971524 0.00712185 0.15621 1 2 3 
5548 6 0.251005 0.0335816 0.159955 -4 -3 2 
5376 5 0.0320237 0.0380931 0.137932 -4 1 1 
8848 6 0.0703355 0.0517487 0.12711 2 2 2 
6644 5 0.112121 0.06776 0.136882 -3 -2 3 
6689 6 0.352034 0.0568031 0.166331 5 3 -1 
6034 5 0.529506 0.0893854 0.138344 2 1 0 
6446 6 0.655132 0.112337 0.151946 -6 -2 2 
7115 6 0.197898 0.128316 0.119368 -3 3 -5 
6581 6 0.30896 0.127239 0.150765 -2 -1 -4 
8417 5 0.974654 0.133686 0.14199 4 0 0 
5791 6 0.0630886 0.144602 0.148547 2 -3 -3 
8633 6 0.653297 0.128288 0.126769 -4 3 -2 
8982 6 0.627013 0.183495 0.135073 3 4 0 
5230 5 0.607954 0.166063 0.124535 0 -1 -3 
5866 6 0.245875 0.179328 0.179871 -1 5 -3 
7052 5 0.270231 0.201577 0.125601 8 6 -3 
8808 6 0.60063 0.19121 0.110833 2 -2 0 
5760 5 0.8304 0.184332 0.157446 6 -3 1 
6314 6 0.613065 0.229332 0.154462 -3 0 -3 
6413 6 0.610948 0.179303 0.153627 -1 -4 1 
6512 5 0.0955076 0.223376 0.182478 -2 5 3 
5520 6 0.162614 0.224936 0.157935 -9 0 -1 
5261 5 0.224305 0.226237 0.137568 2 -2 -2 
7498 5 0.784319 0.227634 0.115047 0 5 -2 
7739 5 0.0936665 0.281215 0.184771 4 0 -2 
7253 6 0.280843 0.249118 0.145023 -1 -4 -2 
5436 5 0.431065 0.298446 0.170875 7 1 4 
8346 6 0.657238 0.288085 0.145351 1 -1 2 
8001 6 0.588543 0.351197 0.172006 -1 -1 -3 
7309 6 0.816563 0.291615 0.121442 7 5 0 
5697 5 0.109983 0.35829 0.155499 3 2 -3 
6051 5 0.25322 0.304161 0.106872 -4 -1 1 
6372 5 0.404366 0.37957 0.174663 1 3 -3 
7796 6 0.117272 0.43101 0.154552 0 2 2 
6082 6 0.61389 0.396097 0.130827 0 1 -3 
5274 5 0.77135 0.413716 0.125185 -2 2 2 
7355 6 0.215527 0.415224 0.144729 3 -1 2 
7594 6 0.472109 0.418239 0.127972 -5 -3 -3 
5589 5 0.797094 0.440969 0.153812 3 -6 -3 
7155 5 0.106288 0.523341 0.157694 3 3 -1 
5500 6 0.166041 0.483881 0.183241 -4 -2 2 
8441 5 0.22198 0.506419 0.158839 6 0 1 
8645 6 0.897699 0.551209 0.121069 0 1 0 
7223 5 0.976495 0.602885 0.135366 -3 -1 2 
6609 5 0.60279 0.592659 0.188485 -1 0 6 
6004 6 0.828294 0.634305 0.163686 -5 2 1 
8737 6 0.991409 0.663668 0.161387 -3 -1 3 
8613 5 0.0770285 0.629585 0.146741 0 -1 0 
7408 6 0.48207 0.674025 0.149527 4 2 -1 
7585 6 0.562805 0.679373 0.168332 -3 -2 -4 
8150 5 0.827307 0.680253 0.153893 -3 -4 0 
8803 5 0.18818 0.709825 0.124756 -1 0 0 
8621 6 0.345292 0.67348 0.132594 -5 -5 0 
7264 5 0.565303 0.653403 0.164722 5 -9 2 
6951 5 0.916578 0.788741 0.168734 -5 -1 1 
6957 5 0.897336 0.749024 0.160554 0 0 3 
7076 5 0.242094 0.725748 0.157814 1 6 4 
7125 5 0.59902 0.809033 0.154895 -3 -2 3 
8519 6 0.997606 0.806711 0.137853 -2 0 -4 
7368 6 0.471451 0.832907 0.133415 0 3 -5 
5765 5 0.669772 0.845972 0.0821468 -3 -2 6 
8042 5 0.836123 0.8567 0.107295 1 -3 1 
6126 6 0.473243 0.899347 0.143677 -2 2 1 
8459 5 0.110207 0.911113 0.144202 -1 3 -8 
5833 6 0.786719 0.914373 0.153002 5 3 0 
8219 6 0.259758 0.936121 0.165657 3 0 1 
8262 5 0.0696296 0.951627 0.140088 -2 0 -4 
8169 6 0.38634 0.918771 0.159836 -1 4 -2 
8274 5 0.975234 0.954637 0.15148 -2 0 1 
7938 6 0.0603088 0.995806 0.15445 4 0 2 
7302 6 0.565779 0.969458 0.136908 4 -9 -4 
7147 5 0.0563085 0.99776 0.1597 2 -2 -1 
5214 5 0.510747 0.987088 0.157155 -5 0 -1 
5244 6 0.530666 0.981777 0.189718 -4 0 -5 
6950 5 0.107797 0.0574757 0.204489 2 0 3 
7588 6 0.265817 0.0527071 0.198943 -8 1 3 
8903 5 0.0532454 0.0744224 0.161514 0 -2 2 
5444 6 0.447158 0.023786 0.14906 -4 -5 -4 
6090 6 0.422156 0.0534631 0.172277 -7 0 0 
7531 5 0.186449 0.081395 0.163738 2 1 -2 
5602 5 0.256443 0.0974598 0.1447 0 -2 5 
5960 5 0.700656 0.0709674 0.153829 -4 1 -1 
6638 6 0.575046 0.0947363 0.168041 1 0 -2 
7053 6 0.760222 0.127827 0.19829 1 3 4 
8896 5 0.81434 0.122999 0.16522 -6 -2 4 
8232 6 0.864716 0.103451 0.159821 0 -3 0 
8769 6 0.10785 0.104462 0.150017 4 4 -2 
8304 6 0.928699 0.178796 0.190792 0 1 1 
6510 5 0.118274 0.115202 0.192322 2 3 4 
6949 6 0.358848 0.170813 0.193 -1 2 0 
6311 5 0.965625 0.161208 0.186014 5 0 -4 
6933 6 0.757362 0.180256 0.169672 2 0 0 
5070 6 0.773617 0.167558 0.183723 -1 -5 0 
7748 5 0.581291 0.22952 0.167543 0 -2 5 
6062 5 0.663003 0.202817 0.166505 -1 -3 -6 
5201 6 0.789819 0.232812 0.141273 -2 3 -1 
5513 6 0.900753 0.227759 0.152138 2 3 -1 
8534 6 0.101802 0.235363 0.201166 1 2 1 
5583 6 0.336404 0.279682 0.162606 0 2 0 
5359 6 0.335599 0.313676 0.200879 -7 1 1 
6889 6 0.616015 0.319671 0.149848 -2 2 -2 
7055 6 0.0712309 0.29904 0.162008 -3 2 -3 
6963 6 0.104966 0.263579 0.218129 2 -1 7 
6748 6 0.051525 0.341928 0.145296 -1 -3 -2 
7050 5 0.267333 0.366866 0.157451 -1 5 -3 
8735 6 0.58539 0.402608 0.187642 0 1 2 
5901 5 0.633062 0.351129 0.163841 -3 2 1 
7984 6 0.165882 0.36652 0.15029 -2 0 2 
6296 5 0.66887 0.368939 0.177322 4 2 0 
7775 5 0.908727 0.33585 0.140283 2 0 6 
7365 5 0.0260715 0.386487 0.178768 4 3 -1 
5026 6 0.485884 0.413254 0.180474 -4 0 5 
5659 6 0.635665 0.367574 0.166553 -1 10 0 
5431 5 0.439931 0.413315 0.165107 -1 -3 5 
8213 5 0.506445 0.434335 0.172989 2 -5 0 
7535 6 0.0800828 0.488732 0.125508 -2 -2 -2 
5179 6 0.531748 0.454936 0.186474 -1 -5 2 
8488 5 0.717395 0.454005 0.140171 6 -2 2 
5741 6 0.163493 0.494275 0.137584 1 1 2 
6588 6 0.201904 0.480063 0.192434 -1 2 -5 
7506 6 0.174019 0.573858 0.141644 -2 1 1 
7000 6 0.249529 0.518529 0.148806 4 -2 1 
8494 6 0.904726 0.544666 0.176863 4 -1 -1 
6429 6 0.806868 0.553247 0.206329 -5 3 -2 
5459 6 0.819838 0.584473 0.190995 -2 3 3 
5670 5 0.869927 0.548021 0.146761 -2 -3 1 
6635 5 0.395243 0.553591 0.19413 -3 1 4 
8582 5 0.408514 0.610654 0.19369 0 -6 4 
5932 5 0.445404 0.611024 0.164307 0 1 4 
8939 6 0.823101 0.580035 0.146941 4 1 8 
8433 5 0.960853 0.622186 0.174014 2 0 -3 
5326 6 0.611415 0.671135 0.17676 -5 1 2 
5806 6 0.530415 0.67397 0.183068 4 3 3 
8864 5 0.724238 0.686471 0.159811 -1 0 2 
6641 6 0.255588 0.693837 0.180426 1 1 -2 
7777 5 0.284768 0.731678 0.172663 1 -4 1 
7967 6 0.692181 0.729187 0.166821 5 1 1 
8257 5 0.849342 0.722576 0.162221 -3 1 -2 
7252 6 0.778645 0.731104 0.117267 1 -1 2 
8107 6 0.785103 0.713448 0.163254 1 -3 -5 
6402 6 0.412668 0.773346 0.125598 -7 5 2 
6589 6 0.456436 0.786955 0.186227 -1 1 1 
5637 6 0.766292 0.814491 0.193969 2 -1 -5 
5191 5 0.0719971 0.779678 0.185464 1 3 4 
6701 5 0.937534 0.834632 0.194437 3 -2 8 
5377 6 0.481248 0.790417 0.174058 4 3 1 
8818 6 0.505782 0.841175 0.168674 0 0 -1 
5285 6 0.211746 0.852428 0.185096 1 5 0 
5497 5 0.559137 0.85033 0.16255 -4 -4 1 
6468 5 0.293662 0.855928 0.152623 2 5 3 
8335 5 0.595596 0.8428 0.142109 -2 -5 -2 
5565 6 0.547316 0.924264 0.180857 3 1 3 
8995 6 0.535994 0.904729 0.157415 2 2 4 
8604 5 0.0730731 0.944978 0.181414 2 2 -1 
7073 5 0.00917814 0.0242242 0.191087 -5 2 -3 
6078 6 0.28582 0.0437042 0.17081 4 -1 0 
5343 6 0.67889 0.0809724 0.189261 -3 -2 1 
6929 6 0.377673 0.0503501 0.198994 -1 -1 3 
6893 5 0.792847 0.0689721 0.203161 -3 -5 1 
6188 6 0.407883 0.126231 0.187974 2 5 -1 
8815 6 0.580754 0.132753 0.203636 -5 -1 2 
5399 5 0.113213 0.16966 0.148502 -2 0 -2 
6280 6 0.859637 0.165969 0.187539 0 -1 2 
6443 5 0.0472408 0.161674 0.160663 -5 -2 2 
8819 5 0.274194 0.159324 0.196494 3 6 5 
5722 5 0.39025 0.16879 0.190165 -7 0 -1 
5501 5 0.579356 0.1803 0.204073 -1 6 4 
7922 6 0.726954 0.161787 0.200094 1 4 3 
7976 5 0.895949 0.144141 0.203912 1 4 2 
5994 6 0.137376 0.183757 0.210221 1 2 0 
5883 6 0.184449 0.234297 0.201548 0 -2 -7 
6227 6 0.27777 0.211745 0.148364 1 -1 4 
6515 6 0.530524 0.218222 0.168624 5 -4 2 
7028 5 0.0265144 0.218068 0.187788 -2 -6 0 
8792 5 0.430772 0.243979 0.178638 0 2 3 
8958 6 0.574326 0.210485 0.168669 -1 2 0 
6715 6 0.495894 0.266533 0.224757 1 1 5 
5357 6 0.615445 0.362885 0.210012 1 5 -4 
5617 6 0.665309 0.318903 0.216977 -4 0 2 
8265 6 0.856568 0.245863 0.18924 2 0 3 
8094 6 0.00225377 0.29963 0.199179 2 1 1 
5092 5 0.671202 0.285454 0.194056 0 -1 2 
7079 6 0.741563 0.345656 0.179684 3 -1 -2 
7505 5 0.337585 0.330879 0.177942 0 4 -2 
6313 5 0.168005 0.391978 0.165971 2 -2 4 
6858 5 0.587825 0.376223 0.192529 1 1 2 
8315 6 0.829073 0.352678 0.230493 0 -1 0 
8731 6 0.938792 0.404624 0.161635 -4 5 -1 
7636 6 0.186462 0.406695 0.151351 3 -2 2 
6091 6 0.890053 0.368059 0.177245 1 -4 -1 
7901 5 0.0091246 0.421337 0.213386 1 3 -5 
5432 6 0.167583 0.409478 0.230391 -1 -3 2 
5944 5 0.484037 0.379343 0.213325 -5 8 -5 
7332 5 0.374776 0.458576 0.168878 -2 -4 -5 