ITEM: TIMESTEP
20000000
ITEM: NUMBER OF ATOMS
9000
ITEM: BOX BOUNDS pp pp pp
-75 75
-75 75
-75 75
ITEM: ATOMS id type xs ys zs ix iy iz 
5701 6 0.0967776 0.0291789 0.989697 -4 3 3 
7671 5 0.318799 0.0454663 0.0209748 7 2 2 
7139 6 0.469587 0.0132435 0.0031308 1 4 0 
7680 6 0.6988 0.985373 0.0306357 5 2 3 
6783 6 0.724406 0.0162875 0.0170144 4 -3 -1 
6078 6 0.0468705 0.0899618 0.0231315 5 7 -2 
8384 6 0.136453 0.0946932 0.0232327 1 3 0 
7542 6 0.60595 0.0606899 0.022101 2 5 -2 
7098 5 0.925217 0.0234091 0.00160513 -3 -2 5 
6094 5 0.263071 0.0722027 0.0156389 0 5 7 
5780 5 0.636355 0.119996 0.0100872 0 -5 1 
6946 6 0.736879 0.119919 0.0334472 -1 5 0 
5011 6 0.738374 0.0993732 0.0243752 3 1 4 
5665 6 0.551855 0.169058 0.0378861 1 0 5 
5723 5 0.918764 0.164204 0.990563 3 -2 5 
6552 5 0.525732 0.232265 0.97107 1 -2 0 
5132 6 0.564937 0.249772 0.00411969 -4 4 -4 
8392 6 0.679175 0.269396 0.0349254 0 -2 1 
5739 6 0.718163 0.257957 0.0245054 -1 2 1 
5460 5 0.0655448 0.257609 0.969682 0 0 3 
5799 5 0.16882 0.315033 0.991375 2 -1 -1 
6867 6 0.336721 0.285358 0.991996 -2 0 -2 
7721 5 0.939013 0.291275 0.00367225 -1 0 1 
6772 5 0.923633 0.296831 0.026826 -3 -1 4 
7501 6 0.0276817 0.306232 0.987486 -2 2 4 
8401 5 0.266664 0.328843 0.00106837 -1 -1 1 
7999 5 0.321552 0.326082 0.028047 -3 -1 -5 
6133 6 0.761519 0.330801 0.988841 -3 -1 6 
7348 6 0.982361 0.343571 0.0179394 2 1 6 
6534 6 0.917502 0.323689 0.952072 -2 1 -8 
7715 5 0.155987 0.388409 0.0137694 3 2 -3 
6922 5 0.753372 0.388659 0.0349028 -11 -2 1 
8481 5 0.909759 0.363968 0.0511585 -4 5 4 
7975 5 0.058909 0.459557 0.0255486 2 1 0 
7049 6 0.339181 0.440477 0.0124985 1 1 4 
8074 6 0.011819 0.440299 0.0184074 4 -5 -2 
5017 5 0.470283 0.45859 0.0204854 -4 3 3 
6597 5 0.1464 0.472514 0.00572367 6 -1 -4 
7262 6 0.403462 0.494213 0.991636 0 1 4 
5117 6 0.0643753 0.50752 0.00528309 0 -3 0 
8117 6 0.275394 0.55891 0.988999 -1 2 -3 
5239 6 0.560254 0.536485 0.983011 2 -7 -5 
7691 6 0.165845 0.535535 0.972742 2 -1 -6 
8943 6 0.291964 0.617716 0.970884 1 3 4 
7123 6 0.647579 0.654764 0.0327998 -2 0 0 
7522 6 0.00362864 0.70076 0.00319751 0 -2 -2 
8846 6 0.648628 0.746605 0.952775 3 -1 4 
7033 5 0.883805 0.740439 0.976078 -4 0 -2 
5461 6 0.809656 0.790306 0.992619 -3 6 -1 
5320 5 0.0407862 0.803732 0.0222532 0 -3 1 
7175 6 0.433025 0.766908 0.0273315 -2 5 0 
7932 5 0.0457523 0.888795 0.017257 3 -3 4 
7802 5 0.322824 0.852354 0.0347668 1 -2 -8 
7899 6 0.4197 0.880373 0.0334172 5 3 -3 
8388 6 0.0912078 0.866457 0.961023 2 1 0 
6955 5 0.595872 0.91276 0.98012 -1 5 0 
5772 5 0.857691 0.926319 0.0253676 -2 0 0 
7312 6 0.0247388 0.932084 0.0330841 0 0 5 
6522 5 0.058339 0.915269 0.0238256 0 2 -1 
8637 5 0.137846 0.942525 0.0125429 5 1 -5 
8493 6 0.224896 0.924989 0.0138755 -4 2 3 
5091 5 0.0547091 0.939568 0.0115729 4 -2 -1 
5951 6 0.711675 0.0369239 0.0483787 0 0 0 
8935 5 0.82483 0.0035962 0.973354 7 1 0 
7147 6 0.829498 0.997343 0.0342433 3 2 -3 
7575 5 0.0303245 0.0323822 0.014463 4 3 -2 
5355 5 0.603414 0.0046362 0.0377874 3 -3 -6 
8240 5 0.779292 0.0108612 0.00927024 -5 1 -2 
6778 6 0.0833754 0.0678876 0.0216101 5 -3 3 
6232 5 0.516185 0.0350828 0.0465325 -3 -1 -4 
7195 5 0.0514142 0.0729759 0.0291341 -2 2 3 
8528 6 0.289417 0.0488922 0.0318429 0 3 7 
5939 5 0.93542 0.0868595 0.0265435 1 -1 -2 
7925 5 0.686426 0.106407 0.00257388 -3 -3 1 
5341 6 0.706892 0.110499 0.0543908 0 0 1 
5878 5 0.795483 0.0971806 0.0112674 -2 0 2 
5482 5 0.135733 0.175515 0.0603024 4 -6 -2 
5261 5 0.461391 0.172352 0.0309226 -1 -2 -1 
7280 5 0.706794 0.142635 0.0691309 -1 3 -3 
5466 5 0.0344309 0.211364 0.0537321 1 0 4 
5906 6 0.165232 0.209028 0.043675 0 -1 1 
6573 6 0.339054 0.187962 0.0244272 -4 -4 -4 
5276 6 0.307766 0.190944 0.0471517 5 -1 3 
8360 6 0.533144 0.150324 0.0436493 1 -2 1 
7066 6 0.835209 0.211568 0.0520008 -5 7 1 
6605 5 0.582616 0.195334 0.00384179 2 -1 2 
7466 6 0.731896 0.213484 0.040452 -1 1 1 
6014 6 0.851904 0.218558 0.0461065 1 2 4 
5612 5 0.254193 0.327578 0.999799 -1 1 0 
7045 6 0.402907 0.310932 0.0209614 -3 4 -2 
5557 6 0.668512 0.355033 0.0398108 -3 -2 -6 
7627 5 0.766359 0.310107 0.0169212 -1 3 3 
7782 5 0.596777 0.320805 0.0278982 0 -3 1 
8970 6 0.544457 0.386864 0.0473402 -2 3 0 
8931 5 0.0679016 0.377915 0.998097 -1 1 -6 
8245 6 0.904594 0.358686 0.986992 -1 1 -2 
5450 6 0.0424457 0.395413 0.0806679 -3 -3 0 
6662 5 0.660688 0.393581 0.0356646 -1 5 -1 
8053 5 0.168144 0.440704 0.0609489 1 5 -3 
5250 6 0.78661 0.440825 0.021627 -1 5 2 
7268 5 0.759551 0.427008 0.0252609 2 -2 0 
5243 6 0.341956 0.485443 0.0498528 1 1 1 
8744 6 0.548391 0.458736 0.0349756 -2 4 -2 
5425 5 0.613124 0.483307 0.0399953 -3 -2 -4 
7809 6 0.208097 0.502018 0.0567076 -5 -2 2 
8817 6 0.0445478 0.476177 0.0305083 -3 4 -1 
6638 5 0.077872 0.506567 0.0190514 -3 3 -1 
7973 5 0.101245 0.540077 0.0511902 1 -2 0 
5116 5 0.670058 0.473833 0.0213988 -1 3 5 
7117 6 0.505787 0.56633 0.0538929 2 1 1 
6380 6 0.55406 0.501792 0.0360747 3 4 -3 
6423 6 0.252362 0.546339 0.0473619 0 0 1 
6905 6 0.820749 0.535972 0.0517609 4 0 4 
7988 6 0.0574258 0.597815 0.0289503 0 1 2 
5521 5 0.285889 0.549543 0.0667996 2 -3 -1 
5999 6 0.478481 0.597558 0.993664 3 1 -2 
5558 6 0.780946 0.577106 0.0548945 -2 1 -2 
6330 5 0.882624 0.613768 0.0609314 -2 0 0 
8495 6 0.089585 0.592161 0.0165489 -1 1 2 
6654 6 0.376477 0.621141 0.0363312 -2 -2 4 
5004 6 0.623947 0.639067 0.0323188 4 1 -1 
6538 6 0.640904 0.642747 0.0522711 3 -1 1 
5491 6 0.812604 0.608046 0.00349266 -3 -1 4 
7019 5 0.13778 0.62294 0.0249399 1 6 -1 
6767 6 0.423829 0.628974 0.0339428 3 -1 4 
8939 6 0.139331 0.675171 0.0557371 2 2 4 
8472 5 0.161756 0.671546 0.0381856 -4 7 0 
6309 6 0.183861 0.664995 0.0442443 0 -1 1 
5903 6 0.703389 0.692477 0.0726933 3 -1 -1 
5795 6 0.769391 0.654264 0.0214212 -2 -3 -4 
8775 5 0.948049 0.639145 0.0306534 4 -3 1 
7477 6 0.20983 0.700344 0.0390917 3 2 3 
474 1 0.516167 0.67799 0.052329 0 0 0 
915 1 0.589828 0.685527 0.0483802 0 0 0 
919 2 0.598894 0.671724 0.0397491 0 0 0 
920 2 0.600986 0.665593 0.0399586 0 0 0 
921 2 0.602958 0.659552 0.0395617 0 0 0 
918 1 0.595849 0.677337 0.0414926 0 0 0 
917 1 0.591461 0.68192 0.0418384 0 0 0 
916 1 0.591537 0.679182 0.0474669 0 0 0 
922 2 0.60856 0.657862 0.0418084 0 0 0 
5416 5 0.586894 0.665189 0.028401 4 -2 -2 
923 2 0.6106 0.657969 0.0480248 0 0 0 
924 1 0.612976 0.656791 0.0536743 0 0 0 
7065 5 0.768085 0.664308 0.040694 0 2 -1 
6857 5 0.285508 0.658427 0.0123692 -2 -2 4 
478 1 0.508784 0.683792 0.0387339 0 0 0 
477 2 0.513876 0.681772 0.0427381 0 0 0 
476 1 0.518256 0.677233 0.0448322 0 0 0 
479 1 0.507319 0.687822 0.0338637 0 0 0 
480 1 0.511737 0.689929 0.0378771 0 0 0 
481 2 0.516558 0.69389 0.0369717 0 0 0 
482 1 0.522109 0.696497 0.0383715 0 0 0 
483 1 0.527637 0.693738 0.0368469 0 0 0 
908 1 0.598724 0.697449 0.0457926 0 0 0 
906 1 0.598325 0.692668 0.0517932 0 0 0 
907 1 0.595061 0.692108 0.0461485 0 0 0 
909 1 0.602589 0.692473 0.044172 0 0 0 
905 1 0.592097 0.692017 0.0529337 0 0 0 
904 1 0.593909 0.697522 0.0561865 0 0 0 
8433 5 0.711085 0.654029 0.0402265 -1 1 -1 
493 2 0.523263 0.721091 0.057642 0 0 0 
494 1 0.520112 0.726213 0.0606184 0 0 0 
900 1 0.599949 0.707769 0.0547345 0 0 0 
902 1 0.598767 0.701318 0.0515532 0 0 0 
7622 6 0.80294 0.699045 0.0202014 0 -2 0 
6113 5 0.104541 0.760527 0.0500095 -3 0 6 
6952 5 0.337996 0.678744 0.0539138 2 -5 -1 
6996 6 0.825047 0.710371 0.020639 4 -4 -4 
8258 5 0.85641 0.745729 0.0211335 0 1 -1 
7730 5 0.968713 0.775387 0.0123867 1 2 0 
8560 6 0.499777 0.768102 0.0613806 4 1 1 
6469 5 0.582815 0.780644 0.0508775 -2 -5 -1 
1606 1 0.566966 0.795547 0.0349576 0 0 0 
1605 1 0.57233 0.79473 0.0380446 0 0 0 
4141 1 0.597157 0.79726 0.0389805 0 0 0 
1604 1 0.567588 0.789321 0.0383435 0 0 0 
1601 1 0.575746 0.782761 0.0444981 0 0 0 
1603 1 0.572131 0.789074 0.0425681 0 0 0 
1602 1 0.570144 0.7832 0.0417627 0 0 0 
1600 1 0.570871 0.782589 0.0487206 0 0 0 
4140 1 0.595245 0.796711 0.0454612 0 0 0 
4139 1 0.595845 0.790808 0.0420274 0 0 0 
4137 1 0.600403 0.79251 0.0475385 0 0 0 
4138 1 0.594445 0.790126 0.0482458 0 0 0 
5730 5 0.0412647 0.799775 0.0567077 -1 -1 3 
8069 6 0.376839 0.79804 0.0466512 -1 2 -4 
7420 6 0.549786 0.766606 0.0194488 2 -2 -4 
1609 1 0.564092 0.801829 0.030159 0 0 0 
1610 1 0.564914 0.80821 0.0303013 0 0 0 
1611 1 0.558832 0.807306 0.0310458 0 0 0 
1612 1 0.561462 0.806731 0.0367366 0 0 0 
1607 1 0.57097 0.798923 0.0315024 0 0 0 
1608 1 0.567289 0.802861 0.0351476 0 0 0 
7406 5 0.00115645 0.815368 0.0612694 9 1 2 
6427 6 0.0409707 0.806393 0.0672653 -4 0 2 
5584 6 0.769348 0.807836 0.0470757 3 -5 2 
6170 5 0.177037 0.859836 0.0415313 -4 -5 -7 
5273 6 0.400955 0.842511 0.0319433 -2 -4 -1 
7661 5 0.500387 0.895322 0.0170686 2 0 -2 
5163 6 0.136029 0.893442 0.0572018 -3 3 2 
8273 6 0.575949 0.887889 0.0771642 0 -3 4 
1521 1 0.555298 0.870231 0.0383511 0 0 0 
1520 1 0.550565 0.867095 0.0412958 0 0 0 
1519 1 0.550843 0.872864 0.0436923 0 0 0 
1518 1 0.546537 0.86964 0.046968 0 0 0 
1517 1 0.54364 0.873938 0.0428256 0 0 0 
1516 1 0.541429 0.874945 0.0488873 0 0 0 
6776 5 0.533495 0.892532 0.039809 0 -6 2 
5345 5 0.15155 0.920155 0.0195177 5 0 3 
5256 6 0.194925 0.891662 0.064764 5 -2 -3 
5028 6 0.466094 0.904548 0.0198261 -5 3 2 
1536 1 0.561724 0.89404 0.0513634 0 0 0 
1535 1 0.559475 0.889686 0.0473973 0 0 0 
1537 1 0.565395 0.893918 0.046513 0 0 0 
8316 6 0.919275 0.891489 0.0107994 -2 0 -5 
5100 6 0.325012 0.893338 0.0265557 3 0 4 
7620 6 0.347371 0.946131 0.989873 1 2 0 
6631 6 0.815593 0.891346 0.0373062 1 -1 3 
7026 5 0.504194 0.945571 0.0631148 -1 -1 0 
6058 6 0.336992 0.94296 0.0359204 -6 2 2 
6288 5 0.952258 0.927807 0.00368454 -4 -6 -4 
7310 6 0.166109 0.967315 0.0291037 4 4 5 
8238 6 0.556375 0.97755 0.0348331 0 -2 -1 
6490 6 0.651252 0.981558 0.00200807 -3 4 -4 
6042 6 0.75985 1.0002 0.0516502 -1 -4 0 
7621 5 0.771704 0.970558 0.046682 -2 2 0 
5343 6 0.488383 0.967716 0.0834722 1 6 5 
8848 5 0.0353874 0.0450141 0.0258871 -1 4 -1 
7598 6 0.100756 0.0259794 0.0628802 0 0 3 
8423 6 0.376931 0.06867 0.0419669 -1 -3 -1 
6926 5 0.638784 0.0212354 0.0344681 -3 -4 -1 
8580 6 0.703564 0.0672929 0.0359575 -2 0 2 
7593 6 0.0687826 0.0666915 0.0865646 4 3 -2 
6751 6 0.559928 0.0814891 0.0816789 -1 1 3 
6665 6 0.895047 0.0378593 0.0620649 -1 4 -1 
7136 6 0.207546 0.0716668 0.0462557 -3 -1 1 
8800 5 0.771816 0.0942543 0.0577033 3 7 0 
7614 6 0.862302 0.0597349 0.073224 0 -1 6 
5666 5 0.949305 0.0745105 0.0343279 -2 -7 1 
5702 5 0.0644514 0.101798 0.0832344 2 3 0 
6988 5 0.910527 0.112492 0.0653633 3 1 1 
7645 6 0.589661 0.133938 0.0525487 0 5 3 
7840 5 0.813841 0.113305 0.0251693 2 3 -2 
5857 5 0.553811 0.137907 0.0640053 -3 -2 1 
8735 5 0.32338 0.14999 0.0305957 0 2 -5 
7678 6 0.409658 0.139264 0.0565171 5 5 -2 
6785 6 0.869322 0.15842 0.0478369 1 -1 1 
5585 5 0.96937 0.226538 0.0748032 -1 -1 -2 
7719 5 0.250645 0.201137 0.0846136 -2 -2 1 
7705 5 0.322727 0.175489 0.0585707 0 0 5 
7931 5 0.633467 0.198 0.0597338 1 6 3 
7826 6 0.113501 0.193985 0.0238518 2 3 -1 
8969 6 0.246117 0.254773 0.0748992 -1 -2 -2 
5168 6 0.430255 0.204002 0.0774358 -1 -3 -1 
8922 5 0.539394 0.191057 0.0552543 -4 3 -3 
5872 6 0.800798 0.262376 0.0959107 -2 -1 -1 
5552 5 0.634308 0.255163 0.0744383 -1 -9 -4 
8842 6 0.405153 0.288876 0.0482518 -1 1 1 
6245 6 0.0720253 0.306473 0.0719687 3 -1 -2 
8836 6 0.104083 0.261899 0.0659056 -3 2 1 
8457 6 0.0559281 0.312816 0.0682073 0 1 3 
5881 6 0.317027 0.298453 0.0733455 -2 0 3 
7580 5 0.104835 0.352546 0.0848082 1 1 -4 
8058 5 0.940075 0.315022 0.0550564 0 -1 -1 
7874 5 0.346347 0.406073 0.110944 -1 0 0 
6615 5 0.875332 0.408952 0.0726715 -5 0 -5 
6275 5 0.135271 0.43302 0.0875464 -6 -4 -5 
7640 6 0.158513 0.393137 0.0572077 -4 2 1 
5408 6 0.262086 0.392361 0.0830911 3 4 3 
6839 5 0.342081 0.399301 0.0018333 -1 4 2 
7572 5 0.489932 0.431066 0.0811393 5 3 2 
8508 6 0.805288 0.464484 0.0709246 -2 1 -3 
7055 6 0.319159 0.464294 0.0348791 -5 2 1 
7716 5 0.223504 0.516575 0.0474146 -5 4 1 
8289 6 0.253993 0.523963 0.0572117 2 0 2 
5418 5 0.225583 0.458321 0.0721647 -2 -2 4 
8517 6 0.546252 0.532571 0.0892491 -1 0 -1 
5670 5 0.0328288 0.573768 0.0230238 4 0 -1 
6560 5 0.688595 0.571536 0.0762288 1 9 -1 
6441 5 0.711543 0.55336 0.067441 1 2 5 
8629 6 0.997517 0.564468 0.0634309 -3 -3 4 
5283 6 0.0154147 0.552559 0.0365311 2 2 1 
6326 5 0.478658 0.581768 0.050015 -2 -4 0 
6815 6 0.487183 0.593029 0.0813453 -3 -2 1 
5986 6 0.580656 0.607968 0.038827 0 3 2 
6584 5 0.804575 0.624094 0.0886218 -5 -3 4 
8011 6 0.618241 0.653586 0.999275 1 0 -3 
7947 5 0.406846 0.712549 0.0478345 -1 1 -2 
473 1 0.513603 0.673083 0.0487051 0 0 0 
472 2 0.515297 0.667436 0.0517207 0 0 0 
470 1 0.517931 0.658553 0.0583353 0 0 0 
471 2 0.514921 0.661521 0.0538441 0 0 0 
475 1 0.521366 0.674666 0.0499837 0 0 0 
467 2 0.519974 0.667627 0.0662015 0 0 0 
468 1 0.519961 0.661236 0.0649709 0 0 0 
914 1 0.592842 0.682215 0.0539844 0 0 0 
913 2 0.596636 0.680506 0.0592949 0 0 0 
912 2 0.602511 0.682453 0.0584766 0 0 0 
911 2 0.605826 0.684415 0.0533196 0 0 0 
927 1 0.61525 0.669285 0.0653193 0 0 0 
925 2 0.612128 0.658965 0.0597356 0 0 0 
926 1 0.613334 0.663672 0.0633526 0 0 0 
928 1 0.620057 0.665042 0.0657205 0 0 0 
930 1 0.626395 0.668196 0.0673016 0 0 0 
929 1 0.621966 0.670702 0.0631988 0 0 0 
931 1 0.625091 0.674459 0.0691504 0 0 0 
932 1 0.6303 0.672864 0.0718228 0 0 0 
933 1 0.631459 0.677966 0.067753 0 0 0 
6997 6 0.67109 0.630121 0.0805937 -2 5 2 
6050 5 0.187186 0.704434 0.0464957 -2 2 1 
484 1 0.5257 0.690723 0.0421933 0 0 0 
486 1 0.529953 0.691578 0.0485737 0 0 0 
487 1 0.525473 0.696071 0.0486782 0 0 0 
488 1 0.530495 0.69828 0.051541 0 0 0 
489 1 0.52559 0.702785 0.0505909 0 0 0 
490 1 0.528292 0.702978 0.0563396 0 0 0 
485 1 0.530376 0.695293 0.0433315 0 0 0 
564 1 0.55775 0.691982 0.0708109 0 0 0 
563 1 0.56097 0.687632 0.0745472 0 0 0 
1387 1 0.587239 0.696536 0.0674249 0 0 0 
1386 1 0.581537 0.693109 0.0679943 0 0 0 
1385 1 0.586639 0.690806 0.0715377 0 0 0 
1384 1 0.584011 0.695993 0.0742684 0 0 0 
910 2 0.604332 0.68716 0.047708 0 0 0 
903 1 0.593015 0.698495 0.0500714 0 0 0 
1392 1 0.61139 0.701126 0.0662774 0 0 0 
1388 2 0.593631 0.699653 0.068512 0 0 0 
1389 1 0.599652 0.697455 0.0675922 0 0 0 
1390 1 0.605236 0.697079 0.0637744 0 0 0 
1391 1 0.605955 0.700226 0.0695691 0 0 0 
1394 1 0.617703 0.703269 0.0687775 0 0 0 
1397 1 0.625469 0.709026 0.0686265 0 0 0 
4859 1 0.744541 0.693904 0.0796105 0 0 0 
4860 1 0.750793 0.695542 0.0807103 0 0 0 
4862 1 0.751161 0.703301 0.0798491 0 0 0 
4863 1 0.753445 0.704445 0.0738494 0 0 0 
492 2 0.525802 0.714972 0.05647 0 0 0 
491 1 0.525825 0.708904 0.0542473 0 0 0 
536 2 0.550934 0.709445 0.0638187 0 0 0 
537 2 0.552516 0.71468 0.0606868 0 0 0 
538 2 0.546313 0.715786 0.0593941 0 0 0 
539 2 0.542417 0.720851 0.0600569 0 0 0 
646 1 0.53534 0.710751 0.0737639 0 0 0 
645 1 0.537578 0.716681 0.0721876 0 0 0 
535 2 0.5495 0.703661 0.0661021 0 0 0 
534 2 0.547477 0.697831 0.0690498 0 0 0 
533 2 0.544933 0.69711 0.0749858 0 0 0 
901 1 0.594279 0.705752 0.0521745 0 0 0 
898 1 0.601418 0.715499 0.0554145 0 0 0 
897 1 0.597047 0.719784 0.0545144 0 0 0 
893 1 0.60404 0.719658 0.0650364 0 0 0 
899 1 0.595455 0.712621 0.0560227 0 0 0 
895 1 0.602627 0.721862 0.0589129 0 0 0 
896 1 0.597587 0.718744 0.0607021 0 0 0 
894 1 0.599958 0.724306 0.0638155 0 0 0 
892 1 0.601122 0.719556 0.0701686 0 0 0 
1399 1 0.628438 0.705085 0.0645602 0 0 0 
1401 1 0.634239 0.706803 0.0691661 0 0 0 
495 2 0.521547 0.732288 0.0615385 0 0 0 
496 2 0.520286 0.738017 0.0642116 0 0 0 
2722 1 0.545582 0.751946 0.0570161 0 0 0 
497 2 0.52272 0.738741 0.0700666 0 0 0 
498 2 0.527577 0.741183 0.073197 0 0 0 
5447 5 0.550569 0.74684 0.0544724 -1 -5 -1 
2721 1 0.546425 0.756693 0.0608389 0 0 0 
2723 1 0.551531 0.751836 0.0595247 0 0 0 
2725 1 0.556824 0.750237 0.0550876 0 0 0 
2724 1 0.55214 0.754034 0.0531366 0 0 0 
2726 1 0.558876 0.75486 0.0517548 0 0 0 
2728 1 0.565934 0.752255 0.0512617 0 0 0 
2732 1 0.571382 0.756024 0.0572284 0 0 0 
8790 6 0.780087 0.706382 0.0477542 -1 1 0 
2717 1 0.539526 0.757351 0.0689904 0 0 0 
2716 1 0.533825 0.75695 0.0719373 0 0 0 
2718 1 0.536219 0.752628 0.066521 0 0 0 
2715 1 0.537746 0.759569 0.0759518 0 0 0 
2720 1 0.543679 0.751921 0.0640052 0 0 0 
2719 1 0.539534 0.756141 0.0624037 0 0 0 
2727 1 0.563043 0.754681 0.0565866 0 0 0 
2730 1 0.572117 0.755352 0.049372 0 0 0 
2729 1 0.567557 0.758823 0.0520233 0 0 0 
1592 1 0.558122 0.766418 0.0639086 0 0 0 
1595 1 0.564544 0.769158 0.0540379 0 0 0 
1591 1 0.551992 0.766487 0.061318 0 0 0 
1590 1 0.553536 0.761938 0.0657217 0 0 0 
2731 1 0.575463 0.759057 0.0529841 0 0 0 
1597 1 0.570904 0.770364 0.0509162 0 0 0 
2733 1 0.575238 0.759413 0.0608216 0 0 0 
2734 1 0.573657 0.753977 0.0636137 0 0 0 
2735 1 0.578894 0.757131 0.066696 0 0 0 
2736 1 0.573275 0.759622 0.0678429 0 0 0 
6165 6 0.429337 0.772149 0.0472467 1 1 -2 
2817 1 0.519967 0.790282 0.0616303 0 0 0 
2819 1 0.521155 0.790058 0.0694013 0 0 0 
2814 1 0.510806 0.790833 0.0662045 0 0 0 
2818 1 0.524539 0.792893 0.0645662 0 0 0 
2821 1 0.527555 0.788123 0.072606 0 0 0 
2823 1 0.522998 0.785504 0.078569 0 0 0 
2824 1 0.527462 0.781848 0.076333 0 0 0 
2822 1 0.522347 0.784284 0.0724306 0 0 0 
2820 1 0.525327 0.785932 0.0664248 0 0 0 
1593 1 0.558781 0.767543 0.0577128 0 0 0 
1594 1 0.564779 0.767417 0.0600146 0 0 0 
1598 1 0.568681 0.776195 0.0515444 0 0 0 
1599 1 0.573766 0.776629 0.0478655 0 0 0 
1596 1 0.569797 0.771796 0.056976 0 0 0 
4126 1 0.580953 0.784386 0.0568468 0 0 0 
4127 1 0.581448 0.777974 0.0577977 0 0 0 
6383 5 0.573801 0.783931 0.0552144 -2 2 0 
4125 1 0.579227 0.783595 0.063189 0 0 0 
4128 1 0.587359 0.780613 0.0566609 0 0 0 
4129 1 0.586433 0.774723 0.054164 0 0 0 
4136 1 0.59961 0.791312 0.0534852 0 0 0 
4135 1 0.600294 0.785801 0.0501413 0 0 0 
4130 1 0.589532 0.778559 0.0499964 0 0 0 
4132 1 0.596606 0.77999 0.0495615 0 0 0 
4134 1 0.595835 0.785136 0.05458 0 0 0 
4133 1 0.599815 0.780558 0.055604 0 0 0 
4131 1 0.59363 0.777303 0.0544559 0 0 0 
4142 1 0.591049 0.798801 0.039137 0 0 0 
2815 1 0.512979 0.792423 0.0604891 0 0 0 
2813 1 0.507347 0.795459 0.0632929 0 0 0 
2811 1 0.504638 0.800088 0.0683478 0 0 0 
2816 1 0.517421 0.794978 0.064842 0 0 0 
8608 5 0.530292 0.821879 0.0783938 1 -3 -3 
1613 1 0.556023 0.803639 0.0368288 0 0 0 
1615 1 0.557562 0.797648 0.0403305 0 0 0 
1614 1 0.558836 0.803129 0.0430295 0 0 0 
1617 1 0.561553 0.797394 0.0470533 0 0 0 
1616 1 0.554974 0.7974 0.0460322 0 0 0 
1618 1 0.559377 0.791671 0.0490014 0 0 0 
1623 1 0.561945 0.802157 0.058926 0 0 0 
1621 1 0.561558 0.794867 0.0612054 0 0 0 
1622 1 0.56608 0.797133 0.057223 0 0 0 
4143 1 0.593382 0.798991 0.0334924 0 0 0 
1619 1 0.55885 0.795466 0.0541031 0 0 0 
1620 1 0.563004 0.790674 0.0562241 0 0 0 
1624 1 0.566478 0.803846 0.0550187 0 0 0 
1625 1 0.567345 0.807578 0.0599233 0 0 0 
1626 1 0.572834 0.808097 0.0566491 0 0 0 
1627 1 0.572607 0.803623 0.0613523 0 0 0 
1628 1 0.578318 0.803288 0.0587568 0 0 0 
1564 2 0.583828 0.820144 0.0639416 0 0 0 
1629 1 0.578971 0.799587 0.0637045 0 0 0 
1565 1 0.580852 0.824094 0.0601486 0 0 0 
1632 1 0.591235 0.79597 0.0606924 0 0 0 
1566 1 0.577072 0.828661 0.0581681 0 0 0 
7130 5 0.599179 0.802991 0.0435263 -1 -2 -4 
1630 1 0.585333 0.800698 0.0614224 0 0 0 
4144 1 0.594937 0.804435 0.0366621 0 0 0 
4145 1 0.596685 0.80549 0.0306048 0 0 0 
4146 1 0.601239 0.802219 0.033502 0 0 0 
4147 1 0.600672 0.807797 0.0365482 0 0 0 
4149 1 0.604892 0.809035 0.0429786 0 0 0 
4150 1 0.609414 0.804993 0.0450426 0 0 0 
4148 1 0.605103 0.803867 0.0392104 0 0 0 
1631 1 0.584658 0.794711 0.0625132 0 0 0 
4151 1 0.611052 0.810587 0.046618 0 0 0 
4152 1 0.612533 0.807255 0.0516701 0 0 0 
4154 1 0.614954 0.811039 0.0578874 0 0 0 
4153 1 0.617006 0.812005 0.0518435 0 0 0 
4155 1 0.621052 0.809568 0.0575831 0 0 0 
6478 6 0.144061 0.874388 0.0802068 -4 1 1 
5891 6 0.17661 0.810359 0.060575 -3 -3 0 
5900 5 0.180396 0.843816 0.082254 0 2 2 
7781 6 0.557026 0.811253 0.05559 1 4 1 
1568 2 0.573192 0.822038 0.0678482 0 0 0 
1567 1 0.573831 0.825212 0.062426 0 0 0 
4157 1 0.624536 0.816221 0.055739 0 0 0 
4158 1 0.627945 0.816302 0.0608715 0 0 0 
4159 1 0.63186 0.816955 0.0557099 0 0 0 
4161 1 0.634933 0.82151 0.0608897 0 0 0 
4156 1 0.62076 0.814956 0.0606716 0 0 0 
4163 1 0.636117 0.822508 0.0681321 0 0 0 
4165 1 0.642663 0.82539 0.0665273 0 0 0 
7324 6 0.709704 0.825886 0.0533264 -3 2 4 
1514 1 0.545378 0.880798 0.0468038 0 0 0 
1513 1 0.541644 0.885993 0.0469532 0 0 0 
1512 1 0.543149 0.883061 0.0524215 0 0 0 
1522 1 0.557211 0.870533 0.0445498 0 0 0 
1515 1 0.539227 0.879616 0.0456735 0 0 0 
1530 1 0.559609 0.87614 0.0593926 0 0 0 
7847 5 0.548842 0.875329 0.0507696 5 1 2 
1529 1 0.565267 0.876309 0.0573941 0 0 0 
1528 1 0.562915 0.870179 0.0566933 0 0 0 
1511 1 0.547273 0.888216 0.0509494 0 0 0 
1523 1 0.561849 0.872412 0.03978 0 0 0 
1526 1 0.564195 0.867337 0.0502522 0 0 0 
1527 1 0.568511 0.870874 0.0529262 0 0 0 
1525 1 0.566038 0.871832 0.0457596 0 0 0 
1524 1 0.562959 0.867031 0.0425825 0 0 0 
8752 6 0.9985 0.899583 0.0340801 -3 2 3 
8855 6 0.379698 0.879477 0.0576107 -1 -3 2 
7690 6 0.352405 0.909559 0.0335002 -3 -2 1 
1510 1 0.544751 0.888593 0.0567122 0 0 0 
1506 1 0.535753 0.895237 0.0579979 0 0 0 
1507 1 0.538537 0.899285 0.0540896 0 0 0 
1509 1 0.540646 0.891889 0.0524248 0 0 0 
1505 1 0.535003 0.9012 0.060032 0 0 0 
1504 1 0.538528 0.897621 0.0641894 0 0 0 
1538 1 0.567303 0.899303 0.04979 0 0 0 
1532 1 0.556009 0.88094 0.0551217 0 0 0 
1508 1 0.542788 0.895305 0.0574055 0 0 0 
1534 1 0.556423 0.888016 0.0528416 0 0 0 
1533 1 0.559265 0.883054 0.0495805 0 0 0 
1531 1 0.559586 0.876254 0.0530368 0 0 0 
1539 1 0.568289 0.894352 0.0533634 0 0 0 
1546 1 0.569667 0.882842 0.0606393 0 0 0 
1540 1 0.573494 0.897853 0.052473 0 0 0 
1542 1 0.574464 0.894908 0.0589063 0 0 0 
1541 1 0.570232 0.899396 0.0577954 0 0 0 
1543 1 0.569087 0.892742 0.0613269 0 0 0 
1545 1 0.569932 0.887624 0.0563666 0 0 0 
1544 1 0.573867 0.888333 0.0619641 0 0 0 
8071 6 0.0902257 0.941774 0.0584207 3 -1 10 
6733 6 0.107201 0.927569 0.0498681 -1 -7 -4 
7788 5 0.281067 0.90906 0.0417791 0 -1 1 
8234 5 0.792494 0.921689 0.0815769 4 -2 -3 
7161 5 0.854056 0.968712 0.0733358 -1 -6 0 
5568 6 0.721327 0.99782 0.0890124 -4 1 3 
8663 6 0.161404 0.0386893 0.0987304 4 -1 -1 
5869 5 0.562556 0.0635236 0.124144 3 2 2 
6655 6 0.631333 0.0490272 0.0789635 -2 1 2 
7993 6 0.723021 0.00827799 0.066881 -1 -3 1 
6325 6 0.890064 0.0482166 0.0956144 -1 6 -2 
8662 5 0.217145 0.0762616 0.0546796 -1 1 3 
5846 5 0.367781 0.0828963 0.103764 4 -3 1 
5366 6 0.641948 0.0889537 0.0825224 5 2 -1 
8489 6 0.0458442 0.0603461 0.0847993 2 2 -3 
6739 6 0.668437 0.108089 0.0768008 3 4 2 
8368 6 0.0835192 0.142934 0.028345 2 1 -2 
5451 6 0.149886 0.137491 0.0508999 1 4 3 
7952 6 0.805203 0.136732 0.0888005 0 4 -2 
5682 5 0.517948 0.105615 0.068437 1 -2 -3 
7900 5 0.394852 0.186033 0.0288042 -1 1 -3 
8073 5 0.443837 0.144327 0.0887608 4 7 0 
8802 5 0.901429 0.179144 0.0660101 -1 0 5 
6607 5 0.6022 0.17126 0.0439152 2 12 0 
5909 5 0.457781 0.201961 0.083767 -3 0 2 
6919 5 0.302181 0.276908 0.0391 1 1 1 
5077 5 0.592874 0.195086 0.058495 -4 3 1 
5046 5 0.0504711 0.30978 0.103679 2 2 5 
7737 6 0.3718 0.259087 0.0599994 6 2 -2 
5424 5 0.723152 0.253522 0.0531255 0 0 -3 
5864 5 0.2766 0.290432 0.0973219 0 -6 -1 
5478 6 0.313991 0.310875 0.0891222 0 -7 0 
7748 5 0.530557 0.338362 0.0858521 -3 -1 0 
8774 5 0.882024 0.339296 0.0864499 3 0 1 
7991 6 0.091167 0.346711 0.0377007 -1 -2 1 
6742 6 0.137623 0.345788 0.0416618 -1 0 -5 
8633 5 0.679448 0.365226 0.0586696 -1 1 1 
6344 6 0.0922867 0.373649 0.0872352 0 -1 -1 
6594 5 0.145288 0.409876 0.0838469 0 5 2 
6333 5 0.726115 0.352015 0.0703151 -3 3 1 
7676 5 0.588564 0.423855 0.0852738 -4 0 -3 
7402 5 0.681266 0.442565 0.0759715 0 0 -4 
7370 5 0.108493 0.464473 0.0591026 -1 3 3 
7814 6 0.694096 0.469299 0.0845983 1 4 0 
5411 5 0.927684 0.505407 0.0532607 2 5 -2 
7907 6 0.221849 0.539706 0.0837356 2 -1 -1 
7096 6 0.364535 0.533012 0.130684 0 0 0 
7273 5 0.928058 0.527276 0.0684803 1 -4 -1 
5931 5 0.0105438 0.601341 0.0265329 3 -4 -3 
8897 6 0.0504087 0.613854 0.0989485 1 -2 -1 
7367 5 0.501173 0.591766 0.105317 -1 -4 -2 
6821 6 0.48051 0.584499 0.0753583 1 -1 2 
6861 6 0.655041 0.651012 0.0964745 -1 2 2 
6749 5 0.265953 0.658205 0.0731451 -3 1 -3 
463 1 0.507957 0.672212 0.0756215 0 0 0 
465 1 0.513819 0.676294 0.0736574 0 0 0 
464 1 0.5139 0.67011 0.0760608 0 0 0 
469 1 0.520807 0.654836 0.0633544 0 0 0 
466 1 0.517145 0.672306 0.0699552 0 0 0 
461 1 0.505591 0.671345 0.0826919 0 0 0 
460 1 0.503566 0.676348 0.0796418 0 0 0 
588 1 0.550215 0.67443 0.0838286 0 0 0 
590 1 0.557397 0.676281 0.0838596 0 0 0 
589 1 0.552938 0.677919 0.0798033 0 0 0 
591 1 0.559994 0.681141 0.0807855 0 0 0 
587 1 0.55346 0.670425 0.0797621 0 0 0 
586 1 0.548413 0.667216 0.0827541 0 0 0 
934 1 0.628571 0.679698 0.0729742 0 0 0 
935 2 0.629042 0.684126 0.0776486 0 0 0 
936 2 0.631508 0.688201 0.0818056 0 0 0 
8430 6 0.645629 0.663662 0.0975464 0 0 3 
7366 5 0.108195 0.656115 0.113059 1 2 1 
7030 5 0.164074 0.73399 0.0920171 3 -1 -3 
462 1 0.511027 0.674307 0.0813752 0 0 0 
459 2 0.506045 0.681975 0.0809593 0 0 0 
458 2 0.505345 0.688391 0.0812469 0 0 0 
5547 5 0.494251 0.690723 0.0860491 0 -6 1 
679 2 0.51869 0.693194 0.0761618 0 0 0 
678 2 0.522357 0.689449 0.0796145 0 0 0 
680 1 0.515875 0.696542 0.081043 0 0 0 
454 1 0.501917 0.703394 0.0913913 0 0 0 
677 2 0.527904 0.690737 0.0830569 0 0 0 
681 2 0.519795 0.701104 0.0838917 0 0 0 
567 1 0.553673 0.68728 0.0787187 0 0 0 
568 1 0.547255 0.687074 0.0786488 0 0 0 
566 1 0.551588 0.691912 0.0743975 0 0 0 
670 1 0.530127 0.695062 0.0894953 0 0 0 
669 1 0.533247 0.697651 0.0944382 0 0 0 
668 1 0.537316 0.697548 0.0891404 0 0 0 
572 1 0.549483 0.6847 0.0924363 0 0 0 
676 1 0.532601 0.68744 0.0866113 0 0 0 
571 1 0.554033 0.686391 0.0878303 0 0 0 
592 1 0.564499 0.677398 0.0836011 0 0 0 
594 1 0.569577 0.679929 0.0882214 0 0 0 
593 1 0.565614 0.683792 0.0844768 0 0 0 
570 1 0.548798 0.685027 0.0850965 0 0 0 
569 1 0.55061 0.690675 0.0838214 0 0 0 
596 1 0.564949 0.685611 0.0906846 0 0 0 
562 1 0.564246 0.693106 0.0744036 0 0 0 
561 1 0.559629 0.693286 0.078698 0 0 0 
565 1 0.554315 0.686722 0.0715376 0 0 0 
560 2 0.556307 0.694635 0.0838743 0 0 0 
559 1 0.552551 0.697389 0.0884784 0 0 0 
558 1 0.551382 0.703919 0.0899271 0 0 0 
595 1 0.57089 0.686217 0.0890126 0 0 0 
598 1 0.560312 0.690685 0.093306 0 0 0 
597 1 0.566726 0.691546 0.0927709 0 0 0 
1381 1 0.593753 0.690156 0.0773867 0 0 0 
1383 1 0.587203 0.693285 0.0790046 0 0 0 
1380 1 0.59783 0.694783 0.0791316 0 0 0 
1382 1 0.591634 0.695689 0.0753497 0 0 0 
1379 1 0.597594 0.694479 0.0728753 0 0 0 
1378 1 0.603644 0.696132 0.0748879 0 0 0 
988 2 0.576071 0.69586 0.0827635 0 0 0 
1377 1 0.602501 0.690229 0.0765404 0 0 0 
1393 1 0.612311 0.704065 0.0719061 0 0 0 
1376 1 0.602727 0.690362 0.0700659 0 0 0 
1374 1 0.61033 0.690889 0.0698821 0 0 0 
1370 1 0.62228 0.697757 0.0752672 0 0 0 
5485 5 0.610673 0.696929 0.0743047 0 0 1 
1375 1 0.607173 0.686209 0.0726376 0 0 0 
1373 1 0.614009 0.688626 0.0752968 0 0 0 
1371 1 0.620598 0.691827 0.076993 0 0 0 
1372 1 0.616858 0.693463 0.0718184 0 0 0 
1367 1 0.618967 0.700631 0.087531 0 0 0 
7706 5 0.597131 0.70215 0.0751643 0 0 3 
1396 1 0.619354 0.710132 0.0664434 0 0 0 
1395 1 0.618472 0.708683 0.0725943 0 0 0 
1368 1 0.622705 0.702393 0.0819183 0 0 0 
1366 1 0.625087 0.70159 0.0893997 0 0 0 
1365 1 0.621137 0.702305 0.0945472 0 0 0 
1369 1 0.618068 0.698014 0.0800417 0 0 0 
937 2 0.631254 0.694444 0.0827623 0 0 0 
938 2 0.634842 0.699722 0.08175 0 0 0 
939 2 0.633767 0.70628 0.0822529 0 0 0 
940 2 0.629903 0.707697 0.0868478 0 0 0 
4858 1 0.746037 0.691294 0.0851574 0 0 0 
4857 1 0.741356 0.687791 0.0832024 0 0 0 
4856 1 0.746603 0.684315 0.0834087 0 0 0 
4861 1 0.749028 0.698454 0.0753907 0 0 0 
4855 1 0.741711 0.680524 0.0849986 0 0 0 
4854 1 0.743086 0.683845 0.0903887 0 0 0 
4851 1 0.737735 0.681293 0.098243 0 0 0 
4853 1 0.738563 0.679681 0.0919272 0 0 0 
4852 1 0.743457 0.678595 0.0958778 0 0 0 
4865 1 0.760925 0.705901 0.0725196 0 0 0 
4869 1 0.765615 0.70343 0.0850637 0 0 0 
4864 1 0.758151 0.703112 0.0779393 0 0 0 
4867 1 0.765958 0.7056 0.0774607 0 0 0 
4870 1 0.761843 0.707198 0.0883216 0 0 0 
651 1 0.516973 0.721021 0.0805747 0 0 0 
653 1 0.517782 0.728557 0.0811369 0 0 0 
652 1 0.521224 0.724413 0.0769339 0 0 0 
650 1 0.522765 0.720069 0.0828315 0 0 0 
649 1 0.518732 0.714159 0.0824977 0 0 0 
654 1 0.521835 0.731835 0.0770724 0 0 0 
647 2 0.530398 0.710925 0.0781655 0 0 0 
540 2 0.540306 0.726703 0.0623595 0 0 0 
648 1 0.524594 0.713678 0.0796297 0 0 0 
683 1 0.524365 0.712344 0.0869999 0 0 0 
667 1 0.532425 0.701788 0.0887689 0 0 0 
665 1 0.534618 0.708467 0.0889306 0 0 0 
682 1 0.523814 0.705877 0.0855491 0 0 0 
664 1 0.539178 0.711739 0.0859142 0 0 0 
666 1 0.537289 0.70404 0.0853276 0 0 0 
662 1 0.536162 0.718985 0.085563 0 0 0 
660 1 0.529307 0.721745 0.0844642 0 0 0 
7058 5 0.52556 0.701369 0.0924271 -1 1 3 
7302 5 0.539963 0.722324 0.090994 1 -1 -4 
644 1 0.542138 0.713691 0.0751201 0 0 0 
657 1 0.526502 0.731655 0.0857235 0 0 0 
658 1 0.529355 0.728031 0.0813664 0 0 0 
659 1 0.532633 0.72658 0.0870559 0 0 0 
502 2 0.544618 0.730302 0.0830494 0 0 0 
656 1 0.526833 0.735675 0.0807449 0 0 0 
532 2 0.546973 0.699768 0.080389 0 0 0 
643 1 0.545288 0.717428 0.0711849 0 0 0 
640 2 0.552012 0.720054 0.0873978 0 0 0 
530 2 0.547355 0.709742 0.0865178 0 0 0 
531 2 0.546299 0.70375 0.0850476 0 0 0 
641 2 0.550307 0.717312 0.0817505 0 0 0 
642 1 0.549735 0.71558 0.0754912 0 0 0 
986 2 0.575461 0.700972 0.0723154 0 0 0 
8738 5 0.548309 0.724413 0.083698 -2 -2 0 
545 2 0.559113 0.722939 0.0867046 0 0 0 
546 2 0.561207 0.719023 0.0912329 0 0 0 
987 2 0.574255 0.696414 0.0765669 0 0 0 
557 1 0.556674 0.701692 0.0930368 0 0 0 
556 2 0.558557 0.707396 0.0958602 0 0 0 
985 2 0.574217 0.705354 0.076513 0 0 0 
981 1 0.587096 0.713996 0.0845177 0 0 0 
984 1 0.579839 0.707125 0.078471 0 0 0 
983 1 0.586303 0.708336 0.080766 0 0 0 
891 1 0.602972 0.713402 0.0690888 0 0 0 