ITEM: TIMESTEP
20000000
ITEM: NUMBER OF ATOMS
9000
ITEM: BOX BOUNDS pp pp pp
-75 75
-75 75
-75 75
ITEM: ATOMS id type xs ys zs ix iy iz 
8121 5 0.131673 0.978225 0.995685 -1 0 -6 
7829 6 0.204176 0.997998 0.982979 1 1 -8 
6690 5 0.357214 0.0325601 0.0372538 -1 -3 2 
8413 5 0.311912 0.0546164 0.987967 0 2 -1 
7770 6 0.156809 0.0457778 0.9732 4 -1 1 
8626 5 0.279816 0.0384237 0.0564824 4 -3 -1 
7366 6 0.358647 0.0946531 0.0407178 4 0 -2 
8155 5 0.257198 0.0715393 -7.92733e-05 1 0 3 
8239 6 0.427467 0.0753353 0.00101106 -5 0 0 
5699 6 0.44052 0.122449 0.955002 -1 -1 -3 
6136 6 0.671373 0.0862597 0.0560265 -1 3 0 
5253 6 0.14604 0.098456 0.0129174 6 2 3 
5002 6 0.426483 0.115784 0.0399916 -4 1 2 
6095 6 0.75157 0.1355 0.974951 -4 -2 -5 
6936 5 0.930148 0.147836 0.991607 -1 -3 8 
5046 5 0.537953 0.11522 0.0294402 0 -1 3 
5024 6 0.289677 0.149102 0.994257 -1 3 -2 
8781 5 0.0437665 0.195764 0.0353457 -1 -4 5 
8733 6 0.170972 0.195561 0.998423 1 -3 0 
8504 6 0.159123 0.168626 0.995731 -1 -4 -1 
7638 5 0.506062 0.217207 0.00621463 -4 -5 1 
6663 6 0.672002 0.21089 0.999016 6 0 -3 
8768 6 0.110221 0.258434 0.00103447 3 -6 -5 
8909 6 0.866871 0.253147 0.0216232 0 -2 2 
8088 6 0.871658 0.267571 0.992602 -4 2 7 
5823 5 0.173956 0.298335 0.0364088 0 -1 3 
5767 6 0.362576 0.29448 0.966474 -2 0 -5 
5202 6 0.148599 0.320224 0.9895 5 -4 1 
6470 5 0.273831 0.305297 0.0236579 -1 -1 1 
6656 5 0.721595 0.350959 0.0154031 -1 0 5 
6772 6 0.982433 0.305841 0.0306656 -4 0 0 
5061 6 0.558639 0.305724 0.0270806 -3 -3 2 
5009 6 0.752605 0.371516 0.0210967 -3 1 1 
6557 5 0.978526 0.360103 0.0515532 0 -3 -2 
7112 6 0.330963 0.410717 0.018002 -2 -3 7 
6596 6 0.514599 0.394857 0.989967 6 -1 0 
5574 6 0.919185 0.412307 0.0299121 4 -1 3 
8161 6 0.604026 0.454875 0.0446551 -1 -2 -5 
7507 5 0.808006 0.435588 0.00419953 3 -2 -1 
7646 5 0.935552 0.393005 0.0559075 1 -3 -4 
5408 6 0.0783718 0.459737 0.00447448 5 1 2 
6836 6 0.238568 0.472216 0.977325 -9 -6 0 
5327 5 0.372691 0.430855 0.031178 1 -2 2 
6427 5 0.75297 0.450718 0.0240998 5 -2 4 
6983 6 0.0122828 0.467526 0.990774 -3 1 0 
8190 5 0.330875 0.536159 0.982139 1 -5 1 
7208 5 0.408226 0.498979 0.0505168 -1 6 -1 
7324 5 0.510269 0.501119 0.983742 3 1 3 
8815 6 0.273487 0.518898 0.980287 0 2 0 
5776 5 0.298128 0.508894 0.985535 0 2 0 
8469 6 0.891873 0.553176 0.0308579 -2 0 4 
7675 5 0.433297 0.512038 0.0357204 -2 0 1 
7746 6 0.729327 0.537245 0.993867 6 -3 0 
8465 6 0.159394 0.50507 0.0192689 3 -2 0 
6150 6 0.554341 0.552079 0.990263 -6 -3 1 
7497 6 0.647311 0.588384 0.0014946 1 2 8 
4556 1 0.433448 0.583121 0.998245 0 0 0 
4557 1 0.43618 0.585658 0.993397 0 0 0 
4558 1 0.438125 0.579377 0.994035 0 0 0 
4559 1 0.439755 0.581991 0.988631 0 0 0 
4560 1 0.438112 0.57613 0.986769 0 0 0 
4555 1 0.434156 0.589408 0.99918 0 0 0 
4681 1 0.450412 0.615728 0.00845269 0 0 1 
4678 1 0.439812 0.611046 0.00794882 0 0 1 
4680 1 0.44443 0.616397 0.00974268 0 0 1 
4679 1 0.444876 0.613344 0.00423808 0 0 1 
7725 5 0.684178 0.565705 0.0134769 -3 -2 1 
8455 5 0.0449518 0.623762 0.0376702 -1 0 2 
4677 1 0.437795 0.613353 0.00218907 0 0 1 
4675 1 0.430231 0.615621 0.00151362 0 0 1 
4674 1 0.435115 0.619801 0.00260587 0 0 1 
4676 1 0.433256 0.613654 0.00639657 0 0 1 
4672 1 0.432115 0.62076 0.99629 0 0 0 
4673 1 0.429504 0.622585 0.00150238 0 0 1 
4671 1 0.428512 0.625578 0.994462 0 0 0 
6589 6 0.513866 0.599951 0.0206405 -2 0 -3 
6334 6 0.577417 0.6301 0.0253047 0 3 1 
7890 5 0.755918 0.625973 0.994088 1 -1 5 
1797 1 0.234721 0.643905 0.00608208 0 0 1 
1796 1 0.239953 0.642827 0.00932347 0 0 1 
1793 1 0.247354 0.647133 0.00339715 0 0 1 
1795 1 0.241012 0.643152 0.00279741 0 0 1 
1794 1 0.245924 0.640588 0.00593266 0 0 1 
1798 1 0.239101 0.64879 0.00567198 0 0 1 
1799 1 0.235302 0.648132 1.00062 0 0 0 
1800 1 0.239469 0.652879 0.999258 0 0 0 
8249 5 0.236672 0.64937 0.991411 -3 -2 -2 
1792 1 0.248767 0.642451 0.999341 0 0 0 
6308 5 0.360035 0.645381 0.00791059 3 -7 -2 
5454 6 0.513732 0.662047 0.0130654 1 2 -1 
6812 6 0.847813 0.628101 0.992699 2 -2 -2 
5464 5 0.2097 0.682092 0.0328975 0 1 0 
1809 1 0.224096 0.675351 0.00646678 0 0 1 
1810 1 0.223669 0.675267 0.000246539 0 0 1 
1807 1 0.228332 0.669555 0.00833074 0 0 1 
1805 1 0.23435 0.666483 0.00630117 0 0 1 
1808 1 0.223222 0.669135 0.0045101 0 0 1 
1806 1 0.229665 0.667806 0.00207824 0 0 1 
1804 1 0.237243 0.666598 1.00065 0 0 0 
1803 1 0.233564 0.661258 0.00178417 0 0 1 
1801 1 0.23364 0.654819 0.997945 0 0 0 
1802 1 0.238087 0.659734 0.997436 0 0 0 
5048 5 0.896363 0.650262 0.022924 -2 3 -1 
1811 1 0.222051 0.681114 0.00279467 0 0 1 
1812 1 0.223612 0.682759 0.996913 0 0 0 
1813 1 0.221141 0.687555 0.999987 0 0 0 
5242 6 0.192754 0.698173 0.0530401 -4 -5 -3 
8163 6 0.561135 0.709295 0.0340131 4 -3 2 
7201 5 0.850154 0.695922 0.014433 1 -4 -4 
7171 5 0.612706 0.748094 0.0145244 1 0 -2 
6487 5 0.910867 0.774637 0.00553435 -2 -5 -2 
6344 6 0.0449207 0.825268 0.012045 0 0 1 
5407 6 0.656334 0.762721 0.0416292 5 2 1 
6817 5 0.398922 0.820587 0.0347863 0 -1 0 
5393 6 0.688708 0.792 0.985884 2 2 0 
8517 6 0.250293 0.771999 0.9924 4 1 -1 
6937 5 0.735759 0.835208 0.0443539 5 2 -4 
8887 5 0.778712 0.850751 0.981933 0 4 -1 
6169 5 0.846625 0.83343 0.990424 0 -3 2 
5688 6 0.962404 0.835555 0.982165 0 -1 1 
8775 5 0.474906 0.847167 0.0334933 -7 -1 2 
7150 5 0.713044 0.83729 0.0189604 4 -5 2 
6987 6 0.977617 0.855454 0.990278 6 0 1 
6267 6 0.635655 0.937362 0.024645 1 -3 1 
6248 5 0.283766 0.922787 0.0208611 0 -2 -2 
8816 6 0.485012 0.936774 0.986847 2 -2 -2 
5971 6 0.557128 0.917723 0.0465973 -3 -1 -1 
7250 6 0.882784 0.973902 0.979698 5 -1 4 
5229 6 0.461204 0.962069 0.00249054 0 2 1 
6291 5 0.625421 0.970871 0.00854469 2 -1 3 
7409 6 0.650732 0.991742 0.0324068 3 2 1 
6627 6 0.76172 0.00295551 0.0621705 3 0 4 
5713 5 0.258628 0.0356799 0.0553957 -1 2 -4 
8295 6 0.452352 0.0288057 0.0669162 -2 1 8 
6114 6 0.774558 0.0285575 0.0450787 -1 1 2 
5831 5 0.799219 0.0222782 0.0368866 1 1 -2 
8486 5 0.919577 0.065013 0.043815 -1 0 2 
5319 6 0.580795 0.088776 0.022986 3 -3 8 
8409 6 0.894702 0.0780442 0.994669 -1 2 -3 
7163 5 0.477032 0.0885351 0.0458941 2 3 0 
7332 6 0.630804 0.0969293 0.0444915 -3 8 3 
5841 6 0.878429 0.0627208 0.0431176 -1 2 -1 
6430 5 0.19024 0.102544 0.0419757 0 -2 2 
5532 6 0.202559 0.139969 0.0352075 0 2 -5 
6536 6 0.225541 0.149574 0.0194743 3 2 2 
7278 6 0.689217 0.172073 0.038514 -3 -1 2 
5993 6 0.132201 0.192667 0.0310685 4 -3 0 
8182 6 0.383088 0.247149 0.0233533 3 1 -2 
7435 5 0.403407 0.215488 0.0253869 -3 -2 5 
7534 6 0.663134 0.156512 0.0138157 -2 1 0 
7101 5 0.814811 0.217932 0.00291766 1 -2 -3 
8845 5 0.860203 0.240849 0.0443373 -3 -3 0 
8840 5 0.449603 0.256179 0.0441867 -1 -5 1 
7257 6 0.209992 0.263963 0.0139346 0 2 -2 
7513 5 0.213112 0.244189 0.0668785 3 0 4 
7979 5 0.0890991 0.270464 0.0466764 -2 -4 0 
8050 6 0.157011 0.264584 0.0301279 -4 2 2 
5520 5 0.458425 0.308596 0.0752502 0 2 3 
6329 6 0.770192 0.266264 0.0635004 3 -1 1 
5770 5 0.810023 0.302871 0.0161689 1 1 0 
8435 5 0.416505 0.341501 0.041932 0 1 -3 
6130 5 0.430553 0.361497 0.0228924 -2 0 5 
8975 5 0.450081 0.325469 0.0876595 -2 0 -4 
5184 5 0.131363 0.368016 0.0329317 2 -1 -5 
7952 5 0.248258 0.353258 0.0219893 0 -3 1 
5939 5 0.471438 0.370724 0.0325418 -3 -4 -7 
6999 6 0.561281 0.346752 0.0327391 -3 3 3 
5987 6 0.825189 0.369433 0.998326 0 -3 -1 
6615 5 0.887078 0.351902 0.0103772 2 -1 1 
7861 5 0.349413 0.332257 0.0253963 4 4 3 
7973 6 0.495587 0.367322 0.0400731 -2 -2 2 
5902 5 0.0417412 0.379424 0.0524994 1 1 -2 
5057 5 0.0154297 0.393217 0.0230027 8 -2 4 
6122 6 0.477336 0.440329 0.0164849 -3 1 1 
8943 6 0.0458237 0.460751 0.0447199 0 1 -3 
7214 5 0.552566 0.472338 0.0647142 0 2 0 
6409 5 0.334202 0.512338 0.0238214 6 2 -3 
6180 6 0.453518 0.525536 0.0391492 1 -4 -4 
8761 5 0.592912 0.511511 0.0226056 -2 2 1 
8538 6 0.869123 0.510421 0.0581945 -2 -4 1 
8691 6 0.303892 0.547194 0.0645049 1 2 4 
5808 6 0.597851 0.552811 0.988893 -1 -5 -5 
7692 6 0.659583 0.544113 0.0248485 -3 3 0 
8832 6 0.902268 0.561624 0.0352165 4 -4 0 
6920 6 0.970385 0.579483 0.0518418 -1 2 6 
5924 6 0.323329 0.577519 0.0267903 4 2 5 
5400 6 0.60977 0.576104 0.00603692 3 -2 1 
8597 6 0.0440009 0.600081 0.00959839 -3 1 2 
7944 5 0.592789 0.648708 0.0696561 -2 0 -2 
6877 5 0.0814933 0.690402 0.0323517 2 3 -7 
8872 5 0.468268 0.662944 0.996239 3 -4 -2 
7573 6 0.670213 0.691961 0.019772 -5 1 1 
8977 6 0.553881 0.710533 0.0136614 3 -1 4 
6932 6 0.596424 0.681671 0.0631374 -5 3 0 
6687 5 0.0780964 0.720482 0.00761214 1 4 -4 
5934 5 0.294977 0.720074 0.00679413 -2 4 -1 
5070 5 0.344426 0.73484 0.0232887 0 -2 3 
7826 6 0.145435 0.760253 0.0392325 -1 3 -1 
8225 5 0.669448 0.754958 0.106369 3 2 0 
6312 6 0.761672 0.695656 0.0618995 1 -3 2 
5476 6 0.407455 0.737931 0.0607144 -3 -1 1 
6971 6 0.975529 0.781057 0.0292907 -3 1 -8 
7391 5 0.393157 0.774904 0.0322771 -3 -1 -5 
7535 5 0.617808 0.809159 0.0634348 6 0 2 
7585 6 0.363687 0.799408 0.074692 1 -2 -3 
8827 5 0.67637 0.825503 0.0441173 1 -4 2 
6706 6 0.9091 0.767013 0.066144 -6 -3 -1 
6373 6 0.979821 0.784044 0.980847 6 1 -3 
5630 6 0.260627 0.844395 0.0448956 -1 -2 0 
5775 6 0.127064 0.866249 0.0259736 3 0 -2 
6551 5 0.695167 0.832757 0.0658194 1 -3 9 
7413 5 0.96215 0.882029 0.0193648 -2 1 5 
5909 5 0.347605 0.856567 0.0749653 -1 -3 4 
7304 6 0.501329 0.875795 0.099896 2 0 -2 
7800 6 0.191079 0.921848 0.0692887 1 1 2 
5715 6 0.649299 0.942798 0.0133756 0 3 1 
5452 5 0.73688 0.937458 0.0437954 1 -2 -4 
5838 5 0.635835 0.973107 0.0117674 1 -3 -2 
7584 6 0.873551 0.972817 0.0328827 3 1 0 
8551 5 0.930454 0.00824793 0.0476654 4 0 3 
5911 6 0.964656 0.99732 0.0111421 2 -4 -2 
6075 5 0.344778 0.00800628 0.043476 -1 -3 0 
5305 5 0.398738 0.975555 0.0478541 0 3 -1 
7004 5 0.949955 0.972127 0.0471375 -2 -1 4 
8548 6 0.0371203 1.00021 0.0557226 2 -4 -1 
8518 6 0.124573 0.0301674 0.0459601 -3 1 4 
7355 5 0.246027 0.0138332 0.0422778 3 2 -5 
6221 6 0.644014 0.000149745 0.0881326 1 -2 -4 
6728 6 0.250896 0.0752596 0.0525553 -2 4 0 
7035 5 0.840795 0.0585627 1.00061 0 1 1 
5877 6 0.220517 0.0465623 0.0984553 5 -1 2 
7346 6 0.883528 0.0627684 0.0647993 2 -2 -1 
5886 5 0.118876 0.101169 0.0814142 -2 1 6 
8451 6 0.0551437 0.118548 0.0631922 5 0 3 
8233 6 0.344804 0.121278 0.0475611 3 -1 3 
8243 6 0.0409793 0.131387 0.0668188 9 -1 -1 
5346 6 0.433115 0.164211 0.0688821 5 1 -3 
6210 5 0.0872463 0.252102 0.0647715 0 -4 1 
8398 5 0.134728 0.216248 0.0574906 -3 -1 -1 
7583 6 0.237616 0.195852 0.105399 0 -2 -3 
6753 5 0.251131 0.193937 0.0147028 8 2 3 
6209 6 0.431506 0.200553 0.0311211 -1 -1 -1 
5610 6 0.475094 0.207102 0.0303138 -2 -3 1 
6178 5 0.628798 0.272165 0.035952 2 -2 2 
5084 6 0.755166 0.308345 0.0932619 2 2 2 
7633 6 0.383657 0.285607 0.0521788 3 2 3 
7719 5 0.594693 0.297411 0.0224812 2 -4 0 
5272 6 0.589492 0.339443 0.032007 -4 1 1 
7191 6 0.731387 0.305008 0.0554268 3 0 2 
5168 6 0.609991 0.285141 0.024002 1 -2 3 
5081 5 0.136 0.381429 0.052256 7 4 -1 
6838 5 0.661125 0.321651 0.0812523 -4 4 4 
6837 6 0.703068 0.311469 0.060532 2 6 -2 
8908 5 0.0422098 0.368589 0.0450301 -3 3 5 
5596 6 0.280781 0.391553 0.0630654 1 0 3 
5133 5 0.8864 0.412066 0.0706012 -2 -5 -4 
6125 5 0.947411 0.390355 0.0243031 1 -1 3 
5010 6 0.538847 0.387456 0.0981596 2 -2 5 
5226 6 0.00276348 0.406325 0.0707074 0 -3 -4 
7451 6 0.615326 0.443034 0.0383451 4 -1 -1 
7499 6 0.80742 0.437855 0.0744475 1 1 0 
8501 5 0.217346 0.465849 0.0882313 0 1 3 
7919 6 0.369385 0.443163 0.0761811 -1 1 -4 
6457 5 0.355995 0.506567 0.0686321 1 0 0 
7307 6 0.771645 0.502287 0.0172735 -1 -3 0 
8705 5 0.994404 0.52315 0.0252869 2 -2 2 
6243 6 0.344019 0.477866 0.0623804 2 5 1 
8459 6 0.905313 0.47918 0.0480993 -1 -4 -1 
5107 5 0.522314 0.520477 0.0665768 1 -1 8 
8114 6 0.259918 0.525473 0.0805262 3 0 -4 
5276 6 0.0657851 0.579681 0.0582824 0 1 4 
8299 5 0.352504 0.569388 0.0635655 5 -3 1 
6583 6 0.35663 0.584874 0.0471784 -2 -3 2 
5652 6 0.796204 0.548804 0.0478649 -2 0 -1 
6214 6 0.820361 0.592592 0.0661472 3 1 3 
6263 6 0.981789 0.574991 0.0440102 2 2 -1 
8347 5 0.607407 0.60626 0.0533454 3 5 -2 
5296 6 0.938865 0.637255 0.0514996 -2 -2 -2 
8929 6 0.0179209 0.663249 0.0598655 -3 3 0 
6157 6 0.0870232 0.687194 0.0624958 6 3 -1 
8974 5 0.414926 0.670555 0.059644 2 7 2 
7751 6 0.499817 0.651293 0.0527121 -4 3 -4 
6053 5 0.533984 0.633114 0.0474216 -2 3 -1 
5016 6 0.435023 0.684989 0.0623695 1 -6 2 
7241 5 0.539215 0.659318 0.0493507 1 0 2 
7574 6 0.0628593 0.672167 0.00451257 0 1 2 
8652 5 0.0221929 0.716359 0.0189131 1 4 -3 
8122 5 0.108174 0.721324 0.0870143 1 -3 -4 
6553 6 0.42965 0.712138 0.0633658 0 5 1 
8403 5 0.530829 0.709239 0.0258595 -3 2 1 
5205 6 0.504508 0.757276 0.0684415 -2 0 0 
6516 6 0.578145 0.724261 0.0436168 0 -3 -3 
6228 5 0.879146 0.745661 0.0801772 3 -1 -9 
8936 6 0.970536 0.770902 0.0430612 0 5 2 
8195 6 0.374478 0.752561 0.0690504 -4 -3 5 
7117 5 0.223807 0.817565 0.0486788 4 -6 0 
8460 6 0.678199 0.7916 0.0573978 2 0 -1 
8645 6 0.670124 0.80608 0.00908494 -5 -1 1 
7545 6 0.541765 0.850894 0.0572874 -4 -2 -5 
5161 6 0.660195 0.852538 0.0864497 -1 1 5 
5826 6 0.891138 0.844652 0.0359731 0 2 2 
7357 5 0.619927 0.900265 0.0892788 -3 3 1 
6292 6 0.681357 0.853756 0.058268 1 1 2 
7727 6 0.632626 0.906944 0.0742323 1 1 -4 
7907 6 0.753965 0.878933 0.0564059 2 -1 1 
8537 6 0.200713 0.878278 0.0465294 -1 4 -3 
6631 5 0.788813 0.911106 0.027927 2 1 -6 
8760 6 0.110727 0.929692 0.097658 0 -1 1 
6152 5 0.28321 0.906677 0.0337416 -1 8 4 
6004 6 0.208819 0.973594 0.0764675 -2 1 0 
8301 6 0.295862 0.958081 0.0268728 4 4 0 
8888 5 0.523521 0.973185 0.0588399 -1 1 -1 
7042 5 0.269659 0.964717 0.0541727 0 5 -5 
6084 6 0.613281 0.965318 0.045441 0 -2 2 
8868 6 0.841173 0.972442 0.0525751 5 1 2 
7119 5 0.0921351 0.998208 0.0706721 2 -4 -6 
5528 6 0.266956 0.00287342 0.109431 5 0 0 
8011 6 0.713452 0.0510585 0.0580583 -3 -3 0 
7626 5 0.851762 0.0184072 0.100359 -1 2 -1 
5833 6 0.00241073 0.106316 0.0638736 6 -1 1 
7543 6 0.548119 0.082743 0.0819932 -2 -4 0 
8487 6 0.257171 0.0930415 0.0833776 0 1 0 
6259 6 0.353824 0.11184 0.0454666 -3 -1 2 
8508 5 0.441055 0.129448 0.0551768 1 -4 0 
6120 6 0.762468 0.122217 0.0372048 1 -1 1 
5888 5 0.830278 0.118818 0.109439 -2 0 -1 
8313 5 0.152024 0.106241 0.096023 -3 0 -3 
5717 6 0.782824 0.161567 0.107847 4 4 3 
7819 5 0.214629 0.234102 0.0771551 2 0 3 
6234 6 0.204915 0.167373 0.0881279 0 -3 -3 
6619 6 0.616262 0.225777 0.0595509 5 0 -1 
5611 5 0.982706 0.200096 0.0937797 2 2 3 
5659 5 0.0714865 0.254763 0.0900198 -1 -2 4 
6448 6 0.190572 0.259755 0.0678822 0 -2 2 
8307 5 0.327213 0.270545 0.0933922 -2 2 5 
6147 5 0.798748 0.277758 0.0768749 -4 0 0 
5362 6 0.150608 0.284728 0.0800267 -3 3 -2 
5970 5 0.337708 0.260004 0.110123 -2 1 -4 
5999 6 0.739695 0.253705 0.0684637 -1 -1 1 
7160 5 0.911583 0.280488 0.0428366 -2 2 0 
7071 6 0.518037 0.295015 0.0753686 2 3 -4 
8219 6 0.25171 0.339928 0.0669766 -2 2 0 
8839 5 0.359237 0.333393 0.0785129 -1 6 4 
6531 6 0.852555 0.351016 0.105063 -1 3 -2 
7808 5 0.233726 0.357305 0.103792 5 1 1 
6515 5 0.164833 0.3903 0.0654277 2 1 -1 
5267 5 0.986331 0.391794 0.107655 -1 4 -1 
5005 6 0.177078 0.400188 0.0677697 -3 3 2 
7997 6 0.962844 0.405847 0.0531082 0 2 -1 
7636 5 0.0259051 0.444794 0.0625578 -2 1 -3 
6522 6 0.2702 0.453822 0.0689791 3 3 -4 
8709 6 0.257255 0.478554 0.06227 0 3 -2 
7682 6 0.383148 0.494208 0.0880056 -4 0 0 
6154 6 0.167062 0.517839 0.0785862 -2 1 -2 
6257 5 0.806832 0.491373 0.117878 0 0 -2 
6738 6 0.0863142 0.537283 0.119507 4 -4 -2 
6764 6 0.508461 0.584745 0.0969843 -6 -1 -3 
5873 5 0.820988 0.532862 0.0433664 -5 2 0 
5863 6 0.959144 0.522371 0.103982 -1 1 0 
7815 5 0.0153769 0.556239 0.0954273 1 1 -2 
5983 6 0.427703 0.587433 0.0968193 3 -3 5 
7449 6 0.928237 0.58661 0.0816561 3 2 4 
5664 6 0.899836 0.60072 0.0547703 -3 -3 6 
7957 6 0.114764 0.635799 0.0667662 -1 1 2 
7247 6 0.292549 0.606885 0.0977559 3 -2 -3 
7881 5 0.43478 0.608433 0.08098 -2 2 2 
6828 5 0.606913 0.696976 0.0657549 -2 2 4 
5182 5 0.144368 0.658331 0.0802112 -5 -1 0 
8615 5 0.499733 0.642633 0.0849484 -2 4 3 
5556 6 0.163868 0.728508 0.074573 4 -2 3 
5604 5 0.132768 0.681073 0.0969499 6 -1 1 
5729 5 0.398639 0.694366 0.086902 -1 2 3 
7060 6 0.976897 0.700791 0.0235782 0 -1 -4 
6397 6 0.845516 0.6799 0.0719835 1 -2 0 
6858 5 0.423936 0.72727 0.10701 2 0 5 
7811 6 0.887441 0.724864 0.0898639 -3 3 0 
8646 6 0.00465141 0.71754 0.0623946 -1 -1 4 
6450 6 0.188978 0.749393 0.0766269 -5 1 -3 
6493 6 0.884328 0.764653 0.0694145 1 -4 -2 
5181 5 0.911511 0.760007 0.0870679 2 -4 2 
6269 6 0.185118 0.814214 0.0856771 -1 -5 -5 
7671 6 0.260507 0.759303 0.0420384 3 1 -1 
7116 6 0.693545 0.74995 0.0730417 -3 3 1 
7184 6 0.79577 0.791574 0.103265 2 -1 2 
5130 5 0.72342 0.81011 0.069139 3 1 -5 
7220 5 0.812295 0.797635 0.0835091 -3 0 2 
7567 5 0.214953 0.806427 0.0813673 4 -5 5 
6845 6 0.54142 0.856376 0.0978628 1 -2 0 
8228 6 0.780469 0.863136 0.066104 -2 -2 5 
8859 6 0.0783909 0.886362 0.0985773 -4 1 0 
8531 5 0.509562 0.853625 0.120991 3 -1 3 
5235 6 0.557118 0.878577 0.0976088 -1 -3 8 
5871 6 0.202407 0.887404 0.0728754 -2 -1 -2 
6028 5 0.830237 0.887552 0.115969 2 -2 3 
5427 5 0.567856 0.878789 0.0748505 1 -1 -6 
7330 5 0.0791855 0.953192 0.0801615 1 2 1 
6534 6 0.152143 0.991617 0.0286605 1 -5 -4 
7232 6 0.39594 0.0163545 0.0923118 0 -2 2 
5540 6 0.197097 0.986907 0.0572348 4 -1 2 
7360 5 0.211139 0.0315531 0.108865 -1 -7 4 
8113 6 0.74166 0.060599 0.0893672 -1 2 0 
7687 5 0.15064 0.0720777 0.123885 1 1 1 
5874 6 0.437345 0.0651375 0.107946 0 -6 5 
5406 6 0.726606 0.0743129 0.115265 -1 2 1 
8423 6 0.332792 0.1555 0.133498 -1 1 3 
5264 6 0.541428 0.102135 0.0979575 2 4 -3 
8424 6 0.647711 0.171909 0.0932116 3 1 -3 
6012 5 0.00300542 0.126704 0.132257 1 -1 7 
6668 6 0.983648 0.120392 0.109293 -1 3 3 
5928 5 0.0899561 0.139005 0.0782516 2 0 -1 
5960 6 0.243102 0.178114 0.10176 -4 -3 -6 
8165 5 0.318303 0.190141 0.0882624 0 2 -2 
5994 6 0.171135 0.230165 0.113723 -1 -1 -4 
6806 5 0.347097 0.199974 0.100325 -2 -1 4 
7476 6 0.940483 0.195087 0.106641 -1 0 -1 
8325 5 0.974529 0.216175 0.072896 -4 4 4 
7873 5 0.153461 0.24071 0.103686 -1 -5 7 
6833 6 0.317419 0.242287 0.123676 0 -3 -3 
5209 5 0.414165 0.242518 0.0956116 3 0 0 
5218 5 0.478267 0.258055 0.137099 1 -5 1 
7411 5 0.598565 0.230589 0.0677252 -2 -2 -8 
5251 6 0.895527 0.238348 0.0616851 6 0 0 
8802 6 0.13939 0.269922 0.148279 1 -2 3 
7013 5 0.947209 0.267463 0.101934 5 3 1 
8927 6 0.983304 0.328855 0.128092 1 -3 -2 
6175 5 0.230212 0.276205 0.0733994 -3 -1 0 
5336 5 0.656942 0.263011 0.113874 -2 0 2 
5329 5 0.732318 0.33376 0.0932974 2 4 2 
6993 5 0.989282 0.356469 0.114376 4 4 2 
7902 5 0.289393 0.350906 0.0909047 -1 1 1 
7143 6 0.00223343 0.414033 0.0895855 5 -2 5 
6472 6 0.136399 0.403394 0.0918595 -5 2 -4 
7258 5 0.473036 0.406325 0.108461 -2 3 -2 
5653 6 0.530486 0.413408 0.0797242 0 0 4 
8262 5 0.376508 0.484715 0.104284 0 2 7 
5822 5 0.0662048 0.522782 0.0793351 -2 0 2 
8935 6 0.360458 0.497041 0.134512 1 -2 1 
5337 5 0.0186788 0.496263 0.112046 5 -1 -2 
6192 5 0.533065 0.548366 0.0703078 2 -1 3 
5056 5 0.583927 0.537734 0.104157 -1 1 -3 
6953 5 0.661386 0.513933 0.123069 1 1 1 
7323 6 0.684164 0.511405 0.0672644 0 2 -3 
7091 6 0.718166 0.51489 0.072063 -5 -2 -6 
5619 6 0.257098 0.549821 0.132615 4 -1 2 
5718 5 0.569588 0.558086 0.103057 -3 2 -1 
6533 6 0.928023 0.578341 0.124764 -2 2 0 
5340 6 0.947835 0.632434 0.0910426 -1 3 0 
8231 5 0.867854 0.609775 0.0902594 1 3 2 
5734 6 0.922408 0.567145 0.0690385 0 2 1 
8166 6 0.238979 0.612276 0.0929943 -2 1 -3 
8539 6 0.436872 0.66742 0.106041 -1 2 3 
8444 6 0.522066 0.619292 0.122188 -4 4 -2 
8625 6 0.61719 0.658416 0.0827803 -1 -4 -4 
5126 6 0.281716 0.692154 0.116521 -1 -1 -2 
5791 6 0.893704 0.671048 0.0712585 -2 3 -3 
8309 5 0.00626354 0.671462 0.107865 -1 -2 -2 
5511 6 0.525697 0.699513 0.117701 -3 2 2 
7446 6 0.657735 0.715021 0.10986 -4 2 -2 
8276 6 0.330059 0.743197 0.0829279 3 -6 2 
5159 5 0.88256 0.715454 0.0911154 2 2 -4 
7653 6 0.911962 0.728 0.104174 -5 -4 0 
5156 5 0.952952 0.733607 0.104225 0 1 5 
6142 6 0.00594436 0.777118 0.11571 8 3 -4 
6712 6 0.249519 0.74764 0.0742998 0 -1 4 
6240 6 0.740314 0.732568 0.0984381 3 4 4 
5896 6 0.581666 0.77142 0.101261 -1 0 2 
8982 6 0.0462016 0.838289 0.0802208 5 0 3 
7619 6 0.589153 0.826928 0.070153 0 2 1 
6582 6 0.0447774 0.837776 0.117597 1 -1 -1 
8004 5 0.255769 0.812269 0.0614634 -2 -2 0 
8147 6 0.258433 0.886429 0.115393 1 -2 3 
8912 6 0.0148828 0.89044 0.120247 0 0 1 
5208 6 0.617016 0.937285 0.0809786 4 7 1 
6703 5 0.664933 0.944991 0.0741549 -1 6 4 
8744 5 0.00541744 0.979845 0.0833136 4 1 2 
5428 5 0.247578 0.0146515 0.126035 -1 1 -1 
6559 6 0.802279 0.980973 0.127277 -2 2 1 
7075 6 0.165295 0.994935 0.143289 -3 0 0 
8314 5 0.84104 0.0308479 0.0890709 3 -2 -3 
8431 6 0.171722 0.0480341 0.140553 2 6 4 
8283 6 0.135365 0.101461 0.108663 4 -8 -1 
7440 5 0.560251 0.0792589 0.127872 -2 -2 6 
8688 6 0.336842 0.0999859 0.123924 -2 2 4 
7238 6 0.404673 0.119514 0.122198 3 1 -3 
7486 5 0.432661 0.116922 0.105678 3 4 -2 
5925 6 0.756273 0.11207 0.134968 0 -1 -2 
7895 5 0.9675 0.144369 0.163382 0 3 3 
8954 5 0.523632 0.124011 0.134762 0 -1 -1 
6904 5 0.873071 0.109427 0.0692761 -1 -4 -1 
5102 5 0.982944 0.176252 0.125075 -3 5 1 
7743 5 0.472612 0.178645 0.077 1 1 3 
7926 5 0.777915 0.144227 0.131283 0 0 2 
8918 6 0.0635988 0.199512 0.122753 0 -2 -4 
5761 6 0.814733 0.20023 0.156201 -4 1 -1 
5439 6 0.575329 0.186719 0.136118 2 1 0 
5109 5 0.978361 0.243089 0.0909019 -5 2 -3 
8640 6 0.469983 0.274236 0.13465 3 -1 2 
7823 6 0.556195 0.278914 0.111221 0 2 -2 
5042 5 0.504244 0.288489 0.1176 -5 -5 0 
8449 6 0.00273825 0.33191 0.142259 0 -3 0 
8926 5 0.358698 0.3329 0.12864 1 3 -2 
5063 5 0.267798 0.344924 0.149984 -3 2 0 
7110 6 0.636079 0.316981 0.127605 -4 -2 1 
8412 6 0.205548 0.399164 0.15309 3 2 0 
7161 5 0.253121 0.365897 0.105897 1 -6 -2 
8359 6 0.410293 0.361501 0.137737 -1 4 -1 
5783 6 0.695952 0.348837 0.115926 1 -2 1 
8439 5 0.872494 0.356841 0.12328 -1 1 0 
7412 6 0.0962177 0.385271 0.144519 -3 -1 2 
8592 5 0.16729 0.4126 0.122996 3 1 7 
8047 6 0.361871 0.422423 0.169982 -3 -2 -5 
5167 5 0.437601 0.460699 0.136224 -1 2 -3 
7924 6 0.569621 0.421558 0.157684 -1 2 1 
7876 5 0.627962 0.437381 0.104447 5 -1 0 
7742 6 0.0608512 0.467978 0.132199 2 0 3 
7994 6 0.234615 0.425497 0.162578 3 -2 2 
6664 6 0.484021 0.418343 0.119237 1 4 -1 
7948 6 0.722251 0.506207 0.13398 -1 -2 6 
5665 5 0.834662 0.454263 0.145827 -2 3 -1 
6096 6 0.90873 0.458458 0.157482 -2 3 -4 
8978 6 0.226642 0.519245 0.153738 -3 -1 2 
8681 5 0.265345 0.484472 0.112427 4 1 -1 
6597 5 0.711342 0.474376 0.110203 -1 7 -2 
5441 6 0.29975 0.481371 0.120842 4 -2 5 
5628 6 0.41324 0.517707 0.144432 -3 -5 0 
7239 5 0.877288 0.488722 0.13125 1 -1 0 
8317 5 0.581423 0.520099 0.112152 -1 2 2 
7855 5 0.425597 0.549239 0.140305 1 1 1 
8599 6 0.90121 0.578337 0.129204 -1 -3 4 
5566 5 0.0625496 0.630141 0.106162 3 -7 1 
5687 5 0.293977 0.598964 0.0827179 -5 2 0 
8355 6 0.0375601 0.610984 0.105871 -1 -4 4 
8091 6 0.0516934 0.619022 0.111502 -1 -1 1 
8708 6 0.817315 0.656539 0.100289 3 4 -4 
6991 6 0.845503 0.658885 0.140162 1 3 -1 
5486 5 0.944325 0.614551 0.164116 -6 4 -3 
6549 5 0.971049 0.700301 0.138364 -1 -2 -1 
6424 6 0.194247 0.733359 0.106005 -1 9 3 
7115 5 0.241367 0.767825 0.125231 -1 -2 3 
7752 5 0.952079 0.799064 0.115303 -1 -1 8 
5261 6 0.975818 0.744909 0.164321 -4 2 1 
6400 6 0.911814 0.762742 0.118656 0 -2 1 
8312 6 0.978314 0.798361 0.143954 -3 -5 -2 
6356 6 0.0768227 0.855904 0.078673 -3 1 -1 
7290 5 0.206647 0.82734 0.0941063 -3 2 -6 
8488 6 0.781999 0.855964 0.141559 -1 0 -2 
6808 5 0.422171 0.86686 0.121991 0 0 1 
6359 6 0.733939 0.882862 0.169995 -6 0 0 
7915 5 0.726032 0.885939 0.115173 -1 1 -6 
8983 6 0.0517744 0.930012 0.12206 5 -4 2 
8496 6 0.181738 0.933297 0.068758 0 -2 0 
7438 5 0.694698 0.918052 0.135121 -1 4 1 
6141 5 0.0163178 0.940777 0.092604 -3 0 -2 
6692 6 0.603628 0.980292 0.107815 1 -5 4 
5693 5 0.224268 0.992723 0.130273 1 -2 1 
7991 6 0.332655 0.964388 0.108955 4 -1 3 
6097 5 0.280166 0.956588 0.0745271 1 -6 -4 
8098 6 0.982381 0.988096 0.166774 -2 -7 1 
6530 5 0.264368 0.0230347 0.16045 4 1 0 
5297 5 0.12086 0.0398663 0.149246 1 0 3 
7183 6 0.427422 0.0251938 0.134718 3 4 1 
7956 6 0.470379 0.0459925 0.160587 -5 1 0 
7382 6 0.926067 0.0716227 0.14164 2 -3 2 
8819 5 0.462199 0.0466456 0.121909 -4 -4 -3 
5468 5 0.584078 0.0562411 0.167739 -2 3 2 
5262 5 0.0726888 0.0950069 0.168763 0 -1 1 
5589 6 0.693022 0.0711416 0.132253 1 3 2 
7397 6 0.878456 0.0880434 0.132739 -2 2 0 
7328 6 0.224032 0.10495 0.146817 -3 9 3 
5344 6 0.886176 0.119446 0.194824 1 -3 0 
8426 6 0.916926 0.0850708 0.149597 2 4 0 
6033 6 0.0204905 0.133662 0.179492 0 3 3 
7437 6 0.397836 0.180974 0.149913 -1 7 7 
7674 5 0.370445 0.174149 0.176663 2 -5 0 
6173 6 0.886677 0.16165 0.19137 -5 -3 4 
7849 6 0.949138 0.227428 0.109468 2 1 -2 
7336 5 0.261682 0.210477 0.153371 -2 -1 -3 
8023 6 0.476067 0.244773 0.160412 5 1 -2 
6107 5 0.0580331 0.280047 0.136921 -3 -3 0 
8034 5 0.654937 0.290643 0.143417 -2 -2 2 
7489 6 0.0231793 0.24802 0.198754 1 -2 1 
7501 6 0.376629 0.252827 0.185214 -1 0 2 
8373 6 0.680058 0.272575 0.111862 0 -1 4 
7305 5 0.763248 0.310622 0.155596 -3 0 3 
6797 5 0.622057 0.283845 0.188001 -6 3 -2 
5620 5 0.666349 0.317769 0.169677 1 -2 7 
5028 5 0.540286 0.330027 0.164719 -5 5 -1 
7597 6 0.179862 0.361521 0.141217 -3 3 0 
7002 6 0.16474 0.391037 0.161971 1 4 -1 
5875 6 0.825631 0.384705 0.127344 1 -4 -2 
5607 6 0.798947 0.424662 0.16338 -1 3 -2 
7415 6 0.00181059 0.428456 0.177273 -7 -3 0 
8256 6 0.0287393 0.414908 0.158139 2 6 5 
7706 5 0.109006 0.454899 0.171681 0 -2 6 
5615 5 0.436478 0.517691 0.139818 3 -3 1 
5478 5 0.143398 0.487554 0.13368 0 -2 -3 
8134 6 0.288725 0.477993 0.147974 1 -5 4 
8964 6 0.449036 0.476679 0.156213 -1 -5 -5 
8675 6 0.989553 0.516577 0.141905 0 1 -2 
5367 6 0.39175 0.557778 0.117131 -4 6 2 
6638 5 0.631259 0.573239 0.151822 1 1 -1 
5482 6 0.815115 0.549135 0.130924 0 -1 3 
6341 6 0.0505528 0.573054 0.161467 0 0 0 
8250 6 0.126368 0.566588 0.150735 -5 1 0 
8085 6 0.331495 0.603141 0.172841 -1 4 4 
5485 6 0.877213 0.568578 0.156881 0 -1 -2 
7631 6 0.93367 0.575425 0.137955 3 5 -2 
5365 5 0.818627 0.580338 0.181221 -1 2 5 
6718 6 0.340144 0.643415 0.112919 -2 -3 2 
5116 6 0.571379 0.620602 0.12718 2 0 -5 
5230 6 0.545557 0.667197 0.174068 -1 -3 2 
6002 5 0.0580617 0.631844 0.149415 2 0 4 
6508 5 0.474016 0.669814 0.111306 4 3 -1 
8302 6 0.792524 0.664842 0.143555 -1 2 3 
5191 5 0.653286 0.681211 0.136271 -2 -4 2 
7246 5 0.953478 0.690669 0.148191 3 0 2 
7958 5 0.234717 0.734421 0.170423 3 0 -1 
6061 5 0.703819 0.740015 0.172713 2 0 2 
5807 5 0.00407996 0.723917 0.138524 1 -1 3 
8822 6 0.206148 0.744506 0.141056 2 2 3 
6232 6 0.393982 0.728718 0.131165 1 0 -1 
7937 6 0.926496 0.780609 0.181158 0 5 1 
6310 6 0.298946 0.783391 0.126841 3 2 1 
7039 5 0.44909 0.792453 0.132651 -2 -4 1 
6705 6 0.532401 0.77606 0.130527 1 -1 -4 
6264 5 0.391844 0.804998 0.14616 5 1 0 
5391 5 0.403671 0.80215 0.164323 7 2 2 
7755 6 0.260488 0.879552 0.110533 4 2 1 
7236 5 0.778445 0.814897 0.162906 -1 4 5 
6376 6 0.858747 0.851002 0.156251 -1 2 -2 
7083 6 0.890155 0.803946 0.181599 1 6 -2 
8072 5 0.96847 0.866594 0.173278 -1 -2 0 
8237 5 0.712281 0.912436 0.118226 -1 3 -1 
6835 6 0.0624211 0.97063 0.165907 2 -4 0 
7569 6 0.223091 0.946256 0.181027 -7 -3 -2 
8140 5 0.670338 0.920363 0.170835 -2 -2 1 
5450 6 0.31321 0.92042 0.166531 2 -5 -2 
8372 5 0.453681 1.00123 0.169609 2 -4 -1 
8992 5 0.386083 0.923681 0.124987 -2 0 -7 
7863 6 0.766419 0.988524 0.13782 5 4 3 
5788 6 0.830856 0.971796 0.116608 -4 6 -1 
7500 6 0.168982 0.99163 0.162259 -4 -3 1 
8980 6 0.433305 0.00782142 0.134624 0 3 0 
8255 5 0.0241403 0.000621286 0.190106 2 0 4 
7162 5 0.0960363 0.997682 0.141587 1 2 2 
7729 6 0.966959 0.0057322 0.171074 -3 1 1 
8417 5 0.454968 0.00445188 0.195446 0 -1 3 
8961 6 0.391089 0.0722439 0.137248 0 -1 2 
8297 6 0.665114 0.0397217 0.171606 -1 0 4 
6057 6 0.400302 0.145416 0.171423 4 0 0 
8619 6 0.481408 0.0998388 0.14835 -3 -1 2 
8631 6 0.627182 0.113852 0.159269 5 -8 5 
6606 6 0.837976 0.117883 0.187541 -2 -1 -1 
6643 5 0.351245 0.129521 0.167186 -7 0 2 
6462 6 0.41116 0.168235 0.171526 -2 -2 -1 
6270 5 0.819951 0.203975 0.158358 -2 0 -3 
8108 6 0.89398 0.231946 0.215987 -1 6 -2 
5940 5 0.327662 0.298514 0.122678 -3 -5 -2 
8489 6 0.0265452 0.279437 0.183655 -1 -5 -3 
7381 5 0.343689 0.313712 0.165382 -1 4 -4 
8170 5 0.637433 0.309149 0.15328 0 -1 0 
5692 5 0.748255 0.334396 0.15243 1 1 0 
5650 6 0.795583 0.392582 0.210896 3 -4 1 
5203 6 0.435249 0.391075 0.144127 4 5 -5 
6171 6 0.724925 0.324125 0.165504 -3 1 3 
7064 6 0.0910408 0.407031 0.147766 1 -1 5 
5559 5 0.219968 0.384643 0.168908 -1 0 0 
6588 6 0.55508 0.417602 0.158739 2 -2 -1 
7537 6 0.295856 0.394771 0.212261 -2 2 5 
6458 6 0.399789 0.396267 0.156234 -4 -1 0 
8212 5 0.348678 0.433887 0.184262 2 -2 -2 
7987 6 0.503188 0.404833 0.166228 -1 -4 6 
6972 6 0.76368 0.413144 0.141769 -1 -2 0 
5477 6 0.310351 0.464325 0.1618 0 6 -4 
5302 6 0.679919 0.467678 0.188707 -3 5 -6 
5087 5 0.183948 0.477017 0.128396 1 3 2 
8466 6 0.412499 0.443585 0.163646 -2 2 3 
7190 6 0.911915 0.481995 0.176298 -5 2 -1 
5108 5 0.281135 0.469769 0.183353 3 -2 3 
5639 6 0.54918 0.51054 0.168941 -2 2 1 
8740 6 0.705567 0.499343 0.128424 -4 0 0 
7503 5 0.967849 0.491242 0.167563 4 2 2 
7686 5 0.216418 0.53654 0.151238 5 2 4 
8026 5 0.575124 0.559027 0.149343 -2 -1 -2 
6715 6 0.514267 0.587827 0.163146 0 3 0 
5240 5 0.785273 0.606813 0.141368 0 -4 2 
7854 5 0.614465 0.600478 0.122448 4 2 -1 
5800 6 0.844059 0.608604 0.162116 1 -4 2 
5626 5 0.821018 0.653769 0.188902 -3 0 2 
6686 6 0.108569 0.681007 0.174989 0 0 1 
5426 5 0.672658 0.677387 0.184362 4 6 -3 
5037 5 0.733487 0.671443 0.161128 0 0 -3 
7564 5 0.24077 0.680118 0.151167 3 0 2 
6546 6 0.51274 0.687529 0.1737 -4 1 1 
8594 5 0.127071 0.707579 0.161799 2 -3 -3 
8850 5 0.881267 0.732058 0.193959 0 -1 -2 
7705 5 0.943943 0.726949 0.162536 1 -1 -7 
5516 5 0.269797 0.729371 0.181125 0 0 -6 
5234 6 0.771451 0.728075 0.161983 -3 0 2 