ITEM: TIMESTEP
20000000
ITEM: NUMBER OF ATOMS
9000
ITEM: BOX BOUNDS pp pp pp
-75 75
-75 75
-75 75
ITEM: ATOMS id type xs ys zs ix iy iz 
5725 5 0.0110267 0.991361 0.0106481 3 1 3 
5972 6 0.201499 0.0487645 0.0397145 1 2 -4 
5769 6 0.0159888 0.0656918 0.0126175 0 1 4 
5407 5 0.0917003 0.1057 0.977684 2 0 6 
8425 6 0.340128 0.074752 0.0595184 -4 0 -2 
6999 5 0.939705 0.100157 0.99151 0 -1 1 
7747 5 0.51846 0.120853 0.0225303 -2 0 -2 
6501 6 0.866232 0.0969323 0.979407 -4 6 -5 
8089 6 0.937898 0.118898 0.0322147 -2 -4 -5 
8491 6 0.881091 0.101764 0.00612003 -2 3 -7 
7552 5 0.0726313 0.14196 0.00340205 0 -1 -4 
5430 5 0.229056 0.116291 0.00474451 0 3 1 
6179 6 0.352359 0.109813 0.997079 5 -1 0 
7029 6 0.660654 0.106887 0.00858301 0 -1 -5 
7186 5 0.973756 0.0873705 0.00705932 3 -2 -4 
5853 5 0.0641585 0.188683 0.00522251 -2 4 1 
6228 6 0.521473 0.215783 0.0074598 0 -1 4 
8664 5 0.721852 0.1961 0.00204615 0 -8 -6 
8370 6 0.522478 0.257696 0.00875528 1 2 1 
7801 6 0.624511 0.217988 0.989715 0 -1 -2 
8136 6 0.0600011 0.2316 0.00176716 2 5 -1 
5792 5 0.959211 0.188108 0.00882304 1 -2 0 
6462 6 0.643589 0.251379 0.0012518 -3 0 7 
5929 6 0.680453 0.297771 0.0134246 -3 -5 -4 
5330 5 0.269594 0.288439 0.0527513 3 2 2 
7329 5 0.837041 0.302918 0.996164 3 -1 -2 
8365 6 0.545003 0.292028 0.0250314 -3 -1 4 
6070 6 0.205336 0.351402 -0.00213341 -2 1 -5 
7583 6 0.302169 0.309304 0.995817 -2 -3 -4 
8422 5 0.573768 0.361648 0.0135216 -5 3 3 
6340 6 0.209302 0.382425 0.00471777 0 4 -2 
8639 5 0.521529 0.391878 0.97891 -1 -1 -2 
6964 5 0.654338 0.358004 0.0131197 0 -4 -2 
6351 6 0.94597 0.389693 0.0224913 2 3 6 
8050 6 0.544483 0.407932 0.997279 -1 4 1 
7810 6 0.924116 0.377707 0.017983 -4 2 5 
5740 6 0.183368 0.449774 0.0237783 -3 -1 -4 
7804 5 0.441666 0.404147 0.045799 -1 3 3 
7320 6 0.435439 0.415946 0.0103954 0 4 -1 
7230 6 0.623448 0.406749 0.997059 0 1 -1 
8087 6 0.248098 0.450081 0.000575035 -2 2 4 
7918 6 0.286249 0.436686 0.980606 0 1 2 
6795 5 0.448722 0.457573 0.00908452 4 -3 3 
8073 6 0.465689 0.426099 0.0229523 0 -5 -1 
7833 6 0.659937 0.462375 0.00414133 4 0 1 
8898 6 0.773356 0.443309 0.00723338 6 -1 3 
5822 5 0.0570363 0.533281 0.986691 -3 3 0 
8597 5 0.18498 0.545192 0.0130856 0 5 -1 
6451 5 0.427385 0.527317 0.0222478 2 -1 1 
7832 5 0.476158 0.576553 0.0155011 0 3 4 
6491 6 0.893095 0.553997 0.995252 -5 -1 -1 
6548 5 0.0362151 0.536008 0.0291893 -1 -3 6 
7732 5 0.415456 0.502039 0.0217272 4 -1 2 
6254 6 0.280202 0.599091 0.0217999 4 -1 0 
5715 6 0.379728 0.588657 0.00380266 -3 -3 2 
6383 6 0.67674 0.66945 0.0290196 -1 0 -3 
8813 5 0.501096 0.689394 0.0343237 -1 -2 1 
5331 5 0.776645 0.617367 0.0268289 -1 3 -2 
5251 6 0.269654 0.689133 0.968362 -1 3 6 
7363 5 0.0610886 0.669683 0.998408 2 1 -4 
7755 5 0.285381 0.687498 0.0347267 -6 -1 -4 
5744 5 0.349588 0.732135 0.00720445 -6 1 0 
5596 6 0.548923 0.725862 0.0363514 6 -3 0 
7299 6 0.557858 0.709172 0.00593779 0 -4 -1 
5768 6 0.102328 0.750982 0.0336948 0 -1 0 
6387 6 0.453764 0.731106 0.00885069 2 -6 2 
6826 6 0.19174 0.787365 0.00239808 1 -2 0 
7931 5 0.281711 0.781829 0.999672 2 3 -4 
8737 5 0.944878 0.752227 0.997171 -3 -2 -2 
7567 5 0.528669 0.763249 0.0392265 4 2 2 
6530 5 0.710591 0.8084 0.977718 0 1 1 
7566 5 0.0336961 0.838815 0.0209302 0 3 -1 
8871 6 0.332793 0.832248 0.954257 -4 1 1 
5040 5 0.447959 0.820531 0.990642 2 1 -4 
7377 6 0.814035 0.813331 0.973025 0 -4 1 
6968 6 0.710856 0.863572 0.0262388 2 -1 -5 
7324 6 0.930083 0.87463 0.0207353 3 3 3 
8544 6 0.993178 0.865185 0.0365032 -3 -3 -4 
8055 5 0.839482 0.851973 0.974027 -2 -3 0 
8018 6 0.498765 0.899043 0.0309812 3 -6 6 
5351 6 0.806008 0.89585 0.011288 -5 -3 -1 
6577 5 0.80188 0.982286 0.988456 -2 3 -2 
6248 6 0.0167884 0.921821 0.0409274 1 -2 0 
5952 6 0.967538 0.956894 0.0271217 -2 -1 -1 
5793 6 0.0903246 0.945335 0.00673473 2 -2 2 
8383 5 0.181759 0.982971 0.00947071 0 -2 -5 
7288 6 0.251656 0.992727 0.015595 2 -2 -3 
8119 5 0.619396 0.970943 0.982292 0 1 5 
8885 6 0.816691 0.960788 0.999524 4 0 -7 
7424 6 0.249332 0.0510438 0.0400011 2 -2 2 
7181 5 0.466339 0.969567 0.0588028 -4 3 1 
7411 6 0.513968 0.0259499 0.0394955 0 0 1 
6759 6 0.621737 0.0363575 0.0284561 1 1 -5 
6805 5 0.703664 0.0426768 0.0197014 -2 4 7 
7404 6 0.778774 0.0460346 0.0321044 0 5 -1 
8629 5 0.257493 0.069065 0.000485697 -1 4 -1 
8633 6 0.482536 0.11501 0.0769883 -2 1 1 
5252 5 0.169384 0.0649334 0.0517273 0 -2 -1 
8402 6 0.321936 0.100518 0.053574 1 -1 -4 
7192 6 0.586019 0.161348 0.0379455 -1 1 -3 
5958 6 0.172384 0.135053 0.0472705 1 -2 2 
7947 6 0.485876 0.151689 0.00595122 0 0 -1 
6822 5 0.5764 0.220254 0.0821678 1 -5 2 
5905 6 0.878374 0.181954 0.993569 -1 1 -3 
6199 5 0.100741 0.209531 0.040054 1 -1 0 
7354 6 0.211086 0.220552 0.0072545 2 3 -1 
6146 5 0.195564 0.244539 0.0440958 1 6 -1 
6740 5 0.743284 0.251036 0.0231387 2 -4 3 
8850 5 0.802287 0.30239 0.0415885 -1 1 -2 
6518 6 0.835131 0.272379 0.0310977 -2 -4 -1 
5422 6 0.69151 0.289024 0.0451116 0 -4 -1 
6570 6 0.757976 0.264602 0.0224121 0 0 -3 
6879 6 0.760704 0.325364 0.0603574 0 2 0 
6833 5 0.303793 0.339609 0.0806509 -5 -3 5 
8670 6 0.41319 0.360216 0.0114017 -4 -2 1 
6166 6 0.854513 0.303182 0.0581747 2 1 5 
8060 5 0.547352 0.333565 0.00296391 -1 1 -2 
6121 5 0.568245 0.348098 0.013147 0 0 2 
6529 6 0.090731 0.335889 0.0283768 1 -3 -1 
5237 5 0.165012 0.362443 0.0544559 -5 -1 1 
6038 6 0.124385 0.356255 0.0329073 0 2 -4 
7305 6 0.281796 0.335107 0.0464419 1 1 3 
7619 5 0.43481 0.370599 0.0305497 2 -2 -2 
7366 5 0.939198 0.373773 0.0501447 3 -7 -5 
5245 6 0.312788 0.369427 0.0454125 0 3 1 
6375 5 0.460968 0.444568 0.0182817 0 -1 3 
5699 5 0.905172 0.36861 0.986429 2 -2 -8 
5434 5 0.419736 0.445202 0.0384749 -2 -1 7 
8310 5 0.556066 0.434319 0.0300148 -4 -2 -2 
7815 6 0.700912 0.47056 0.0358372 1 -5 7 
5324 5 0.0259601 0.434089 0.00218878 1 0 2 
6172 5 0.0994912 0.460823 0.0369829 1 1 -1 
5756 6 0.649776 0.500345 0.0189207 -3 5 -2 
5058 6 0.755152 0.538057 0.0210016 0 4 1 
5214 6 0.882393 0.460512 0.0224426 -2 6 4 
8666 5 0.202683 0.533257 0.0348832 1 1 0 
8689 6 0.286029 0.513142 0.0268003 -2 -1 -5 
6952 5 0.916482 0.52192 0.0386759 2 4 1 
5776 5 0.473736 0.532209 0.0248011 -4 0 -1 
6652 5 0.679407 0.567945 0.00743642 -4 -4 5 
5729 5 0.899612 0.512515 0.034905 0 -2 1 
6971 5 0.0417444 0.557903 0.0242108 2 -1 1 
6312 6 0.184867 0.591433 0.00828233 3 1 5 
5380 5 0.617141 0.552578 0.0447612 -1 1 2 
6923 6 0.727636 0.580009 0.00695572 3 0 -2 
5499 6 0.868169 0.51697 0.0696459 3 -5 1 
6714 6 0.403494 0.575543 0.00548512 -5 -6 3 
8647 5 0.584655 0.553209 0.043541 -1 -1 1 
7657 6 0.0257113 0.613367 0.0557281 1 0 -4 
8701 6 0.595364 0.58329 0.995756 7 -3 3 
5089 5 0.932774 0.582948 0.0241614 1 2 6 
5265 6 0.0855849 0.651908 0.00857761 0 -2 0 
7613 6 0.236858 0.643524 0.0230987 -1 4 0 
6841 6 0.270448 0.589688 0.0161974 3 -4 -2 
5767 6 0.919275 0.646943 0.0499478 0 0 1 
8530 5 0.682813 0.649125 0.995474 3 2 -3 
6862 6 0.105952 0.670154 0.0166711 3 5 -3 
8452 5 0.466471 0.678885 0.0697148 -1 3 0 
5386 6 0.617118 0.683033 0.0350517 3 2 0 
8991 6 0.511773 0.688304 0.0329464 0 -1 0 
6555 6 0.72879 0.690915 0.0544987 3 -2 0 
7149 6 0.375735 0.741909 0.0383562 1 2 1 
5794 6 0.960426 0.720407 0.0222528 -1 4 1 
7516 6 0.751979 0.751746 0.0440468 9 2 -4 
7313 6 0.0840114 0.745008 0.0535466 1 0 0 
6114 5 0.208594 0.758131 0.0408191 0 1 2 
7409 5 0.845519 0.747848 0.0242721 0 2 1 
6415 6 0.83307 0.7857 0.00407663 -4 2 6 
8507 6 0.604933 0.814792 0.0597093 3 -1 1 
5782 5 0.834461 0.812063 0.075911 1 -1 1 
6404 5 0.870083 0.782998 0.0394468 -4 0 0 
8132 5 0.0185374 0.840438 0.0503431 0 -5 -4 
8462 5 0.105474 0.850381 0.0362372 0 -4 -3 
7175 6 0.339272 0.883303 0.987126 -6 -1 0 
8407 5 0.526362 0.817779 0.0346986 -4 1 4 
7696 6 0.973436 0.889882 0.0347981 0 1 1 
7698 5 0.0267007 0.860918 0.982735 2 -1 -5 
8953 6 0.227961 0.874 0.00564373 1 6 0 
7027 6 0.398718 0.885166 0.999077 3 2 4 
6205 5 0.92073 0.882466 0.0515767 0 -1 -2 
7899 6 0.947935 0.882167 0.0428005 1 -2 -3 
8223 5 0.778058 0.910298 0.0483066 -2 -2 6 
8942 5 0.94461 0.956751 0.0517234 -2 3 -4 
7744 6 0.0410762 0.96334 0.0446547 -4 -2 -1 
6009 6 0.326515 0.965782 0.0377954 -2 -1 2 
7202 5 0.829442 0.958884 0.0638691 0 -3 4 
8975 5 0.837499 0.945152 0.981769 1 3 1 
8524 6 0.917216 0.906898 0.0352106 -7 -5 -3 
8311 6 0.811765 0.970807 0.0225198 3 4 0 
8322 6 0.453896 0.989973 0.0605066 0 -1 -1 
6039 6 0.701607 0.0219791 0.982566 -3 2 2 
5777 5 0.358454 0.0181191 0.0282735 -1 3 0 
6563 6 0.357312 0.136771 0.0369361 -5 1 1 
5117 5 0.391865 0.0896145 0.0703428 -5 0 -1 
5024 5 0.581122 0.147105 0.0450091 -2 -1 1 
7584 6 0.623639 0.103467 0.0773242 0 2 3 
6758 6 0.79057 0.0659535 0.0671723 -5 3 1 
5269 5 0.00970495 0.131374 0.0614917 3 1 7 
5174 5 0.0891101 0.123012 0.080424 -1 -3 2 
6677 6 0.792206 0.137068 0.0525858 -2 1 0 
5901 6 0.381995 0.14698 0.0386797 0 1 2 
8634 5 0.535759 0.147371 0.045426 -3 2 4 
6493 5 0.165609 0.11599 0.103624 1 0 4 
7692 6 0.533328 0.23056 0.0435527 2 -4 -1 
8045 5 0.528662 0.20245 0.0354679 1 6 2 
5665 6 0.195227 0.250343 0.040211 -4 -8 -4 
5060 5 0.400705 0.255753 0.052093 0 0 -2 
6438 6 0.438772 0.261507 0.0728636 -5 -2 -3 
5505 6 0.550066 0.233601 0.0459579 2 -3 -2 
5310 5 0.5542 0.284075 0.0818592 -3 2 6 
5864 6 0.426432 0.300749 0.0647637 3 0 -5 
7737 5 0.452749 0.274112 0.067639 2 -2 4 
8792 5 0.860897 0.273916 0.104217 2 0 -2 
8418 5 0.15581 0.315075 0.0483316 1 4 0 
8433 6 0.512477 0.297592 0.0704529 1 2 -1 
8609 5 0.662933 0.306265 0.0488999 1 0 -5 
7710 5 0.867167 0.339216 0.0680212 2 -4 1 
8855 5 0.971566 0.325051 0.0740526 -2 -1 0 
8463 6 0.849651 0.371925 0.044793 -1 -6 1 
8823 6 0.912542 0.371837 0.0663435 1 3 0 
7088 5 0.294405 0.407062 0.0592913 -1 0 5 
6126 6 0.735404 0.388641 0.0589425 -1 0 1 
6034 6 0.510616 0.414676 0.0836476 -3 -7 1 
6414 5 0.508783 0.434358 0.0332988 -4 1 -2 
7200 5 0.430735 0.454826 0.0424039 -4 0 4 
5870 5 0.476285 0.466504 0.0362414 -6 0 7 
7590 6 0.620054 0.473992 0.0918125 2 -3 4 
5164 6 0.756231 0.443123 0.0487057 -2 -1 -2 
8805 5 0.3835 0.506342 0.0414133 -1 -1 0 
7323 5 0.143575 0.566853 0.0516705 3 3 0 
8296 5 0.857501 0.534923 0.0548726 -7 -1 -4 
7467 6 0.663675 0.57256 0.0591885 -1 -5 6 
5746 6 0.737921 0.541345 0.0496774 1 6 1 
5127 5 0.0146226 0.564865 0.0535316 0 -2 4 
7012 6 0.120375 0.576634 0.0451401 5 1 5 
8822 5 0.685199 0.564455 0.0624149 -2 1 6 
5666 5 0.918887 0.573004 0.036999 1 -4 0 
6425 5 0.0378065 0.613106 0.0662003 3 -3 2 
6623 6 0.421142 0.604028 0.0536674 4 4 -1 
7379 6 0.194017 0.630854 0.0149945 0 -2 2 
6468 5 0.162623 0.650429 0.0831405 2 -3 -1 
8345 6 0.844708 0.635117 0.0289898 6 -2 4 
8757 5 0.0254688 0.65941 0.0635169 -1 -4 -1 
7989 6 0.153556 0.682826 0.0564035 -1 -4 5 
5302 6 0.204332 0.661937 0.0414048 -1 -1 -1 
7418 6 0.267477 0.697872 0.083821 2 0 3 
6966 6 0.991454 0.664009 0.0210212 -2 3 -3 
5875 6 0.23922 0.695814 0.0573339 -2 -5 4 
8099 6 0.397856 0.718819 0.0455607 3 0 4 
5150 5 0.827024 0.709642 0.0705522 0 1 -3 
5609 6 0.177408 0.70678 0.0309817 2 -3 2 
6177 6 0.397418 0.723704 0.0576447 1 -6 4 
7234 6 0.549613 0.734051 0.0823712 -3 -3 3 
5747 6 0.196545 0.755252 0.0918387 6 5 1 
6366 6 0.225202 0.753002 0.0727075 0 0 1 
5937 6 0.454465 0.719876 0.068053 4 0 -3 
5656 5 0.857054 0.766144 0.0232354 -1 -4 2 
5157 5 0.490464 0.785075 0.0564984 3 -1 -2 
5200 5 0.58378 0.7827 0.0551467 -3 3 -4 
6961 6 0.718214 0.755002 0.101903 -1 1 -2 
5575 5 0.811498 0.741938 0.061052 0 0 1 
5772 6 0.80949 0.743541 0.0768115 -7 -2 1 
6249 5 0.871298 0.764444 0.0832604 -3 2 1 
5813 6 0.618464 0.808448 0.040888 6 3 0 
6997 6 0.842727 0.78927 0.0525116 5 0 0 
7767 6 0.0130376 0.81533 0.0364054 -3 2 1 
6777 6 0.35437 0.812155 0.0805073 -3 1 -4 
5644 6 0.46644 0.826286 0.073023 0 -3 -3 
7970 6 0.562307 0.79459 0.0762422 4 -1 -1 
5541 6 0.188013 0.853195 0.0622309 4 1 4 
8538 5 0.868583 0.86608 0.0634717 -2 -1 -2 
5497 5 0.2848 0.825197 0.0797809 -2 1 -1 
6679 5 0.931534 0.875608 0.0972619 3 2 4 
6821 6 0.113995 0.895752 0.044227 3 5 -1 
6565 6 0.844294 0.92244 0.0698879 -3 -3 1 
8321 5 0.237003 0.958145 0.0917409 6 3 4 
5583 6 0.293072 0.934774 0.0713627 4 -5 -5 
8973 5 0.68671 0.963901 0.0733569 -2 -3 -1 
5780 5 0.586566 0.978429 0.0674388 0 0 1 
8966 5 0.684316 0.934752 0.0775641 -2 3 4 
6500 5 0.251157 0.960284 0.0425721 -3 2 0 
7733 5 0.700751 0.989709 0.0728214 -4 0 1 
5804 5 0.619244 0.0172516 0.0558154 -1 1 3 
7958 6 0.719979 0.0696349 0.0875418 4 1 -1 
8207 5 0.168728 0.0931272 0.0684056 0 -2 6 
8833 5 0.608037 0.065613 0.0696989 -2 -2 3 
6131 6 0.735318 0.0759877 0.0308617 -3 1 -3 
8467 5 0.155189 0.114965 0.0992439 6 3 -3 
7883 6 0.339992 0.0648854 0.0788072 3 -2 2 
8372 6 0.757493 0.0959773 0.0790995 1 1 -3 
5904 5 0.227377 0.0939768 0.0654006 -1 -3 -4 
8713 5 0.783633 0.158638 0.090965 -3 0 1 
8075 5 0.165182 0.151342 0.0984713 4 1 1 
5361 5 0.691576 0.1717 0.0778018 -3 5 6 
6183 5 0.879872 0.129053 0.0624134 -3 2 -3 
6306 5 0.53835 0.166392 0.0590527 4 -1 3 
7297 6 0.637599 0.222085 0.0661607 -3 2 -1 
6091 6 0.734955 0.161247 0.0987046 4 2 1 
7494 6 0.815088 0.265676 0.0808601 -4 -6 -3 
7888 6 0.458353 0.321325 0.103948 -1 -2 -1 
8529 6 0.785311 0.28963 0.0828367 3 -3 0 
7139 5 0.826178 0.280651 0.0936052 0 -1 3 
5347 6 0.17184 0.330067 0.102752 2 0 2 
5175 5 0.217635 0.326729 0.0659546 -3 -1 3 
8333 5 0.477483 0.304593 0.0941938 3 4 2 
6696 6 0.647242 0.355148 0.080854 0 -3 -1 
5018 6 0.813473 0.331427 0.0818623 2 0 5 
6345 5 0.00753668 0.372614 0.108027 4 0 -1 
7450 5 0.931506 0.384438 0.0777871 0 2 0 
5663 6 0.543163 0.373181 0.088039 -3 -4 0 
6998 5 0.789166 0.410419 0.0791211 1 4 0 
8917 6 0.790485 0.411328 0.0575425 2 -2 0 
6732 5 0.848954 0.385315 0.108597 1 -1 -2 
7879 6 0.915334 0.358021 0.059114 0 -3 1 
6423 6 0.912835 0.348953 0.0484004 -1 3 2 
6153 5 0.700168 0.417268 0.0726323 3 2 -2 
7030 6 0.751609 0.406991 0.0793415 -4 2 3 
5162 6 0.714808 0.426503 0.0755544 -5 -1 -2 
5564 5 0.935426 0.453581 0.0686867 2 -3 -1 
5408 6 0.232037 0.448497 0.0375765 3 2 -1 
7564 6 0.913067 0.454087 0.100112 0 6 -2 
7731 6 0.801426 0.526673 0.0596492 0 1 1 
6031 6 0.845752 0.490663 0.0677158 2 -1 2 
6775 6 0.641264 0.504742 0.083471 -2 -1 -2 
8602 5 0.0678258 0.577975 0.0757394 2 -2 -3 
6562 6 0.313812 0.490709 0.0857007 -4 -1 2 
6857 5 0.525746 0.516188 0.0973676 2 3 -1 
7789 5 0.66111 0.512234 0.0782011 -1 1 -1 
7652 6 0.692165 0.537622 0.112692 -2 -2 -2 
5080 5 0.368715 0.577912 0.0476248 6 0 2 
5317 5 0.614935 0.558948 0.0387647 0 -4 4 
7660 5 0.391646 0.584286 0.0845768 1 1 -1 
7618 6 0.437432 0.673663 0.0717778 -1 1 1 
7317 5 0.912327 0.676595 0.0584001 -7 -4 -3 
6865 5 0.0422585 0.694799 0.0731841 6 -1 -3 
5381 6 0.240337 0.660092 0.0928091 4 1 3 
5420 6 0.751387 0.664303 0.0927286 -4 -3 4 
7422 5 0.380152 0.726126 0.0310901 2 -3 1 
7122 6 0.520441 0.677076 0.0592638 -4 -2 -2 
6536 5 0.641544 0.764194 0.0920721 1 -1 2 
6958 5 0.928746 0.744375 0.0601408 -1 -1 -1 
5572 6 0.186377 0.739906 0.0796345 1 0 2 
5862 5 0.636853 0.776995 0.0934728 2 -4 0 
8032 6 0.941421 0.77768 0.08319 -1 1 0 
7093 6 0.373915 0.820854 0.0847004 6 -4 6 
8170 5 0.643205 0.815105 0.0774114 2 2 5 
6737 5 0.911972 0.810728 0.0767119 -5 -7 2 
6888 6 0.714439 0.811074 0.0600958 -5 0 3 
5186 5 0.866309 0.850389 0.101865 3 1 6 
6381 5 0.977882 0.824468 0.0817103 -3 -2 -1 
6342 5 0.367055 0.848058 0.100362 0 -4 0 
6504 5 0.641492 0.879927 0.0536068 1 -7 3 
5272 6 0.488011 0.885237 0.0906182 1 1 3 
7285 6 0.97714 0.812992 0.0626491 -2 -3 -3 
8064 6 0.256798 0.907923 0.058631 -1 0 5 
5574 6 0.647843 0.875521 0.0905712 6 -3 5 
8887 5 0.990189 0.922668 0.0674921 2 -2 3 
6847 5 0.361979 0.908377 0.105629 -6 0 0 
5743 6 0.43569 0.952289 0.100266 -4 -5 4 
5650 6 0.062083 0.984416 0.0643919 -2 -1 2 
5133 5 0.661947 0.929372 0.0758925 0 -6 2 
8236 6 0.723351 0.942973 0.074693 -1 -1 2 
8918 6 0.124687 0.03834 0.119422 2 -1 -5 
5544 6 0.179317 0.0200479 0.121188 -1 6 5 
5122 6 0.312951 0.0164142 0.11 -1 1 -2 
5023 5 0.64622 0.00431467 0.119016 -4 4 3 
8253 5 0.96929 0.0162223 0.0963065 7 2 -2 
6365 5 0.751841 0.0566135 0.0940419 2 5 -3 
5462 6 0.803109 0.0735616 0.0629061 1 -3 6 
6435 6 0.916261 0.167705 0.126287 -1 -3 -1 
7439 6 0.0901045 0.191328 0.0794829 0 1 0 
5856 5 0.624533 0.117421 0.0575298 -1 5 0 
6120 6 0.791093 0.14481 0.0848937 -2 -2 -6 
8676 5 0.0292253 0.215472 0.136588 -2 -4 1 
5441 6 0.415762 0.202851 0.120535 -4 1 6 
5050 6 0.569256 0.179604 0.0931776 -1 -4 0 
5052 5 0.702326 0.180175 0.071146 3 4 6 
7860 5 0.0909579 0.193837 0.108488 -3 -2 -1 
5761 5 0.298182 0.256353 0.110138 -1 -2 -1 
5639 6 0.449844 0.257631 0.0576373 3 2 2 
8983 6 0.478044 0.268873 0.118704 2 7 -3 
6338 6 0.93916 0.271244 0.125094 -1 0 6 
6873 6 0.324815 0.248 0.0924942 1 4 4 
5872 5 0.333977 0.282157 0.135009 -1 1 1 
8052 6 0.996358 0.327569 0.1535 -1 -1 4 
6000 5 0.488607 0.317961 0.0915349 2 4 -1 
6060 6 0.146541 0.340039 0.0787188 1 4 1 
5765 5 0.569209 0.324105 0.102772 7 2 -1 
8475 5 0.54001 0.370128 0.0699065 -3 -1 2 
7648 6 0.79629 0.341254 0.0963303 7 -6 5 
6095 6 0.960662 0.324951 0.0999079 2 1 2 
5948 6 0.437175 0.384171 0.110538 2 -5 1 
5418 5 0.476179 0.375894 0.0666273 -3 1 2 
7131 5 0.532656 0.339571 0.123927 -1 3 4 
5159 6 0.901775 0.368694 0.0791849 3 0 0 
8292 5 0.0600305 0.410034 0.137552 5 1 -3 
5865 5 0.150763 0.407136 0.113611 4 4 -6 
6839 6 0.354138 0.404774 0.133133 -3 0 0 
8490 5 0.717588 0.419359 0.101837 1 -4 -2 
5312 6 0.202016 0.429755 0.0875606 -4 0 2 
5588 6 0.478493 0.395667 0.0967705 -1 -3 -1 
6410 6 0.787183 0.418703 0.13026 3 4 2 
8875 6 0.825725 0.464343 0.130382 1 -1 -1 
6396 6 0.927953 0.404536 0.068983 -6 1 3 
6868 6 0.957581 0.44116 0.119575 -5 8 1 
6261 5 0.930435 0.425176 0.0928175 2 2 -1 
6115 6 0.373062 0.467651 0.118635 -1 -3 -2 
7940 5 0.700325 0.433656 0.109251 -2 -2 6 
7768 5 0.715876 0.464281 0.108759 1 -4 -1 
8680 6 0.808759 0.477253 0.0860377 0 -3 -4 
8579 6 0.202955 0.490507 0.12728 -2 -7 -3 
6892 6 0.296595 0.471013 0.11176 -1 -1 1 
5267 6 0.727193 0.497309 0.0902408 -2 -2 1 
8339 5 0.533216 0.501079 0.148912 -2 2 0 
5968 5 0.646792 0.511077 0.0861824 -6 1 -2 
6320 6 0.341539 0.549755 0.121783 2 1 -4 
7151 6 0.45504 0.576239 0.116488 0 1 1 
7675 6 0.812397 0.617946 0.107997 1 -1 -1 
5119 5 0.10203 0.636736 0.129312 -2 -3 -5 
8012 6 0.479607 0.643777 0.121641 -1 2 2 
6667 5 0.776744 0.645653 0.128505 2 2 3 
5802 5 0.00269189 0.636572 0.128335 1 2 1 
7026 5 0.743109 0.667679 0.0825172 0 -6 2 
6656 6 0.107174 0.67115 0.121131 2 -5 4 
8985 6 0.337904 0.71338 0.106162 -3 2 2 
7092 5 0.580889 0.702179 0.112334 -2 -3 7 
5088 6 0.997872 0.65833 0.133022 -7 1 2 
5998 6 0.591702 0.779898 0.124119 -5 1 -3 
8294 5 0.376337 0.754663 0.13803 2 0 -3 
8258 6 0.254215 0.787801 0.091971 -3 -1 -1 
6772 6 0.78614 0.804535 0.108575 0 -4 0 
5065 5 0.331618 0.860458 0.118548 0 0 4 
6986 6 0.482067 0.86232 0.105353 2 5 3 
5838 5 0.567818 0.85034 0.105756 4 1 0 
5144 6 0.957078 0.853209 0.126177 0 -2 0 
5981 5 0.390484 0.889569 0.120056 1 1 -1 
8910 6 0.274346 0.885849 0.1239 2 -5 -3 
6067 6 0.239788 0.8959 0.105988 4 -1 -5 
8773 5 0.677477 0.923935 0.0756765 -5 3 3 
7965 6 0.0733834 0.994204 0.11376 -5 1 -2 
8794 6 0.852069 0.958817 0.133549 2 -1 -3 
8051 6 0.0176587 0.0239556 0.142611 2 6 4 
6466 5 0.220648 0.0721042 0.128518 -4 1 6 
7158 6 0.319993 0.0834867 0.113422 -2 -3 -2 
6513 5 0.673487 0.0625045 0.164114 4 2 1 
7466 5 0.702135 0.0974598 0.103496 6 4 -3 
7160 6 0.462206 0.13324 0.135702 -2 -1 -1 
5584 6 0.774596 0.092681 0.107684 -4 -8 0 
7683 6 0.874425 0.151936 0.101683 -2 -2 5 
7588 6 0.924512 0.108682 0.0955359 4 -2 0 
5611 6 0.075453 0.123085 0.107394 -4 5 3 
6269 5 0.405426 0.158431 0.13829 3 0 1 
8283 6 0.754937 0.15083 0.134187 -6 1 1 
7934 6 0.00522779 0.103508 0.104796 1 6 -2 
5945 6 0.191765 0.144529 0.111418 -3 5 -3 
6946 5 0.922115 0.184295 0.130137 0 -4 0 
6673 5 0.460882 0.203484 0.161634 3 -5 2 
7435 5 0.513603 0.196298 0.12442 6 -4 1 
6962 5 0.63178 0.211364 0.153519 -2 1 1 
7233 6 0.224748 0.236693 0.10186 0 2 7 
5152 5 0.917201 0.231854 0.133187 -1 5 -5 
8173 5 0.289286 0.279769 0.106957 -5 3 -2 
5950 6 0.799739 0.27322 0.167945 3 -7 -6 
8568 6 0.804094 0.293413 0.105769 0 -3 -5 
7178 6 0.268268 0.290134 0.155179 2 2 -1 
6264 5 0.0656879 0.368786 0.143311 3 0 -1 
7112 6 0.961903 0.358948 0.0988319 -2 1 0 
6376 6 0.0927184 0.381154 0.145144 -3 0 0 
7007 5 0.223118 0.347092 0.123359 3 0 3 
6666 5 0.287312 0.332102 0.0662594 0 5 5 
6540 6 0.671777 0.342757 0.11045 -6 1 -3 
6708 6 0.327054 0.366164 0.12327 2 -2 -1 
8364 6 0.949883 0.356616 0.116622 4 3 0 
7846 6 0.933205 0.400695 0.133708 1 -2 1 
7878 6 0.141973 0.400541 0.1442 -1 6 1 
8162 6 0.171911 0.420043 0.129615 2 2 3 
5801 5 0.577202 0.361569 0.121643 3 -1 1 
7870 5 0.879512 0.423668 0.126405 0 0 -1 
6360 6 0.237526 0.42698 0.134986 0 -5 -1 
6670 5 0.995493 0.48572 0.149046 -2 -1 -1 
7118 6 0.0396086 0.431417 0.126843 0 1 0 
8677 6 0.571116 0.449961 0.119831 2 6 -1 
5661 5 0.931336 0.458299 0.104402 -1 -5 1 
6363 6 0.0134756 0.514487 0.0738747 -1 2 2 
7495 5 0.676535 0.470072 0.112716 -1 2 1 
5297 5 0.779494 0.551805 0.122665 0 1 7 
8028 6 0.22667 0.562887 0.145286 -5 0 -2 
7206 6 0.67832 0.566582 0.122252 -2 5 -3 
6692 5 0.815338 0.554997 0.105478 -2 1 -2 
8211 5 0.144399 0.596507 0.134036 -3 1 3 
5281 5 0.0163365 0.6073 0.123335 -1 -1 3 
7644 6 0.650333 0.644088 0.122268 -4 -2 1 
5722 5 0.454115 0.619007 0.143887 -5 3 -2 
8901 5 0.0925636 0.687316 0.140146 -5 -5 -1 
5293 6 0.111805 0.737893 0.156456 -2 1 -1 
7512 5 0.433294 0.716346 0.0719562 -3 -1 1 
7544 5 0.667227 0.72693 0.106241 3 0 -4 
6978 5 0.638458 0.736799 0.151462 3 -6 6 
6157 6 0.988393 0.707511 0.154057 -1 -4 -4 
8815 5 0.114719 0.799581 0.146689 1 -1 5 
5587 5 0.615802 0.75461 0.140088 3 -3 -3 
8904 5 0.725071 0.747101 0.159383 -6 -1 0 
7805 5 0.219007 0.780929 0.0651192 5 3 -1 
6245 6 0.365266 0.787978 0.113008 -1 7 2 
5004 6 0.437641 0.772116 0.0986694 1 -6 5 
7788 5 0.648358 0.74399 0.146927 -2 -2 3 
7908 6 0.745756 0.804499 0.0851495 -6 -1 -3 
6751 6 0.560597 0.823997 0.12565 5 -3 -1 
7179 6 0.482519 0.830002 0.112693 -5 0 3 
8981 6 0.452396 0.821278 0.136226 1 5 1 
8137 5 0.0892646 0.897559 0.137485 -2 -1 0 
5475 5 0.736954 0.905523 0.130453 2 -1 -1 
7708 6 0.795094 0.927598 0.171873 1 -1 -1 
6041 6 0.705894 0.95857 0.137362 2 -6 3 
5924 5 0.73694 0.975831 0.13871 -1 0 5 
6630 6 0.774654 0.958472 0.10094 0 2 2 
6786 5 0.837846 0.956524 0.11747 5 -1 0 
7687 5 0.510227 0.976576 0.134058 -3 0 1 
6838 5 0.665027 0.974435 0.0970062 1 -3 -2 
7927 5 0.463714 0.0405157 0.130598 0 2 2 
7496 6 0.909467 0.0108084 0.126803 4 -2 1 
6921 5 0.0726342 0.066481 0.167055 0 -2 -7 
5947 6 0.238718 0.0180822 0.128019 0 4 3 
6401 5 0.590261 0.0424164 0.16006 1 4 1 
5764 6 0.696097 0.0118834 0.162579 -2 3 -5 
8968 6 0.783337 0.0553711 0.169265 3 -1 5 
8779 5 0.911944 0.0984202 0.143878 -4 -6 0 
5559 5 0.556213 0.115482 0.140195 3 2 -3 
5918 6 0.0410145 0.125783 0.132787 2 0 0 
8324 5 0.129047 0.109204 0.171847 1 -4 -5 
5223 5 0.896564 0.105253 0.15906 1 -1 -1 
5413 5 0.248935 0.161704 0.178236 6 3 -1 
8996 5 0.293727 0.186638 0.150948 1 0 -2 
6083 5 0.589603 0.156848 0.113065 -6 3 -3 
7526 5 0.103547 0.208287 0.141611 -2 4 -1 
7083 5 0.318063 0.239075 0.157814 1 0 1 
5488 6 0.339484 0.211906 0.142266 3 0 0 
6137 5 0.88012 0.244573 0.125416 -2 -3 4 
8366 5 0.989394 0.241966 0.139657 0 2 -1 
8706 5 0.570179 0.247512 0.134922 1 -3 -3 
6592 5 0.121148 0.274583 0.16842 -1 -1 1 
5090 6 0.675587 0.275822 0.149896 -2 4 -1 
8620 5 0.9249 0.272889 0.147737 2 0 -1 
7265 6 0.198752 0.260792 0.167349 1 4 5 
8595 5 0.66837 0.275122 0.140608 1 -4 -1 
5613 5 0.859218 0.311738 0.197637 5 -1 3 
8839 5 0.887324 0.271622 0.152939 -1 -2 4 
6814 6 0.10553 0.326871 0.129742 -1 -2 -2 
8858 6 0.768127 0.358 0.179743 2 5 -3 
7798 6 0.530695 0.355452 0.102189 0 -1 2 
6996 6 0.766065 0.338854 0.124185 3 3 0 
8958 6 0.867191 0.351656 0.149425 -3 -1 0 
7085 6 0.065052 0.368456 0.150512 5 0 1 
8014 6 0.344196 0.382246 0.148912 -2 0 4 
8320 5 0.556287 0.398336 0.156911 -3 2 -1 
5878 5 0.72942 0.352437 0.153604 3 -5 5 
6988 6 0.861442 0.339579 0.156792 -5 0 3 
8678 5 0.927152 0.407763 0.114443 -4 1 -1 
6963 6 0.191968 0.398051 0.145859 -1 1 1 
6251 5 0.0270678 0.421133 0.172559 5 -5 2 
8413 6 0.0783735 0.459971 0.129437 2 1 0 
6318 6 0.334152 0.514612 0.188973 2 0 6 
8138 6 0.657913 0.480127 0.137577 -2 -2 2 
7473 6 0.7807 0.442742 0.134203 -3 0 -3 
7920 5 0.108124 0.519159 0.140083 -3 -1 -1 
8945 5 0.255496 0.48555 0.156049 -3 1 -4 
7076 5 0.55797 0.462277 0.117888 -1 -1 1 
8146 5 0.917336 0.466543 0.111182 -3 5 -1 
5889 6 0.220189 0.530833 0.160432 1 0 1 
7384 5 0.482914 0.511325 0.133615 1 4 2 
6434 5 0.592014 0.535298 0.132181 -5 5 -1 
6182 5 0.434256 0.532761 0.139849 0 -2 0 
7910 5 0.0153998 0.600482 0.116286 -2 3 1 
8774 5 0.703096 0.603517 0.140818 -1 3 6 
5598 5 0.243986 0.602537 0.154455 -3 0 3 
5803 6 0.529803 0.639518 0.158639 1 -2 3 
7905 5 0.608926 0.630468 0.116271 -2 -3 3 
7858 6 0.725529 0.687628 0.153503 -1 -1 0 
7486 6 0.259583 0.67154 0.138046 -4 0 -1 
8865 6 0.65864 0.651288 0.142817 2 -1 1 
5401 6 0.216209 0.647354 0.197137 3 3 -5 
7073 6 0.604023 0.668697 0.144182 -3 1 2 
8503 6 0.831505 0.698413 0.11695 2 6 -1 
5733 6 0.968926 0.672352 0.150987 -2 3 0 
8026 5 0.369133 0.684754 0.140906 3 -1 0 
7972 6 0.560297 0.724578 0.160519 0 4 1 
8450 6 0.0504493 0.732237 0.134023 -2 -4 0 
5356 6 0.0894676 0.780617 0.128529 -4 3 2 
5532 5 0.348864 0.758066 0.164411 2 0 5 
8460 5 0.735752 0.725086 0.15597 1 1 5 
5226 6 0.110942 0.777032 0.141603 -2 -3 1 
7098 5 0.306897 0.820325 0.135492 1 1 0 
5674 5 0.509703 0.79155 0.136004 -4 -3 0 
6523 6 0.557642 0.827427 0.145587 4 -1 2 
8387 5 0.586535 0.85769 0.147608 3 3 -1 
7055 6 0.47949 0.885712 0.118716 -3 -2 0 
5073 6 0.654101 0.835615 0.144235 1 -1 0 
8349 6 0.522783 0.854029 0.106546 -5 -2 2 
5208 6 0.27242 0.905506 0.162262 5 -5 -2 
8569 6 0.605043 0.901905 0.17921 2 -1 0 
5615 6 0.860672 0.920444 0.16483 1 -1 -2 
8062 6 0.926016 0.894506 0.153537 2 -3 4 
7120 6 0.162025 0.907618 0.153879 -1 2 -2 
6417 6 0.37711 0.943139 0.132175 -3 -5 -1 
7836 6 0.457852 0.907043 0.150853 1 -2 4 
7266 6 0.765061 0.90929 0.199083 0 -1 -3 
8235 6 0.730105 0.935267 0.138668 -5 2 5 
5230 5 0.438533 0.932988 0.170655 -5 3 3 
7953 5 0.283082 0.968832 0.207786 -3 1 2 
6133 5 0.48947 0.0458056 0.156275 -1 4 1 
5984 6 0.567747 0.983766 0.207809 -6 5 1 
8672 6 0.901995 0.0181158 0.147221 1 -2 4 
5624 6 0.395 0.0332213 0.189543 -1 1 3 
6695 6 0.571264 0.0419857 0.178003 -1 3 0 
5453 5 0.016904 0.0771269 0.214826 -4 0 2 
6912 5 0.925818 0.0278522 0.176886 -2 2 3 
6522 5 0.233257 0.0724566 0.186245 5 -2 2 
7661 5 0.393443 0.0698774 0.17358 4 3 -1 
5569 6 0.561217 0.09476 0.131264 1 0 1 
6924 5 0.716217 0.0808081 0.165509 0 4 0 
8638 6 0.711248 0.0865455 0.158044 1 -1 4 
5716 5 0.892202 0.08027 0.170597 0 3 2 
7082 6 0.145821 0.154271 0.13869 -2 1 0 
8630 5 0.233974 0.0840916 0.172288 4 0 4 
7441 5 0.716731 0.138734 0.16808 -1 3 0 
7147 5 0.540606 0.121209 0.146133 -2 4 -5 
5257 6 0.845104 0.128037 0.178922 -5 -4 -4 
7612 5 0.93338 0.126476 0.210292 2 0 -1 
6280 6 0.0238799 0.125161 0.139505 -5 0 -3 
5508 6 0.346755 0.132888 0.174257 -1 -1 0 
5431 6 0.468509 0.141124 0.178918 1 3 -1 
8684 6 0.710179 0.158331 0.172026 3 -1 -2 
6487 5 0.823887 0.119671 0.178793 3 6 0 
8111 6 0.0552398 0.203384 0.155963 2 0 -5 
5898 5 0.656949 0.163511 0.205587 2 5 2 
7570 6 0.884471 0.162436 0.173436 -1 -3 1 
7251 5 0.634473 0.225723 0.20383 -2 -1 5 
7002 5 0.846216 0.256364 0.197423 -3 7 4 
8659 6 0.801564 0.286784 0.185213 3 1 0 
5301 6 0.925426 0.283967 0.208069 -1 -3 1 
8343 6 0.142816 0.283911 0.16766 2 -1 -3 
6609 6 0.547703 0.286596 0.163308 1 1 -1 
7697 6 0.0610675 0.328834 0.180377 3 3 0 
7848 5 0.246725 0.370061 0.183756 -3 4 -2 
8454 6 0.326291 0.342856 0.150344 -1 -1 3 
8965 6 0.356803 0.364562 0.158048 -3 -1 2 
6029 6 0.574493 0.340072 0.156509 2 -4 1 
7250 6 0.625812 0.315242 0.126246 -1 -1 1 
7275 5 0.619428 0.336007 0.159032 -2 4 -6 
5435 5 0.776908 0.362147 0.183656 -2 -3 2 
5775 5 0.0475995 0.3624 0.182732 2 1 4 
7909 6 0.837959 0.356191 0.170303 1 2 0 
5397 5 0.990753 0.389861 0.170379 -1 0 2 
5523 5 0.549529 0.423835 0.162817 -1 0 1 
6428 6 0.725274 0.441083 0.154272 -1 1 3 
6136 5 0.857467 0.400976 0.139948 -4 6 8 
7561 5 0.201159 0.438368 0.173189 1 -3 -1 
8950 6 0.959607 0.463132 0.185897 3 1 0 
6016 6 0.328212 0.479491 0.171169 -2 8 5 
8492 5 0.360179 0.519441 0.222786 -4 1 1 
5680 6 0.753973 0.511316 0.158419 -2 1 -5 
7593 6 0.484284 0.532473 0.176193 -2 1 3 
7630 5 0.762658 0.519673 0.165239 3 -1 4 
7669 6 0.758313 0.551848 0.170859 2 -2 3 
8877 6 0.928964 0.55862 0.214287 1 -1 0 
5041 6 0.264485 0.588123 0.168813 -4 1 2 
8914 6 0.998094 0.612605 0.214523 -5 0 1 
7703 6 0.207753 0.619231 0.168119 3 4 10 
8441 5 0.673442 0.600749 0.183255 0 -1 -1 
7622 6 0.841055 0.593111 0.15892 5 -3 1 
8511 6 0.228362 0.621394 0.142235 -3 -5 1 
8775 6 0.215526 0.635657 0.200985 -2 5 -1 
6950 5 0.718404 0.600282 0.187569 -1 -6 -4 
8801 5 0.0181295 0.631873 0.2113 -2 1 2 
7253 5 0.388544 0.66023 0.186515 -3 4 5 
7557 5 0.552987 0.680879 0.165627 2 1 5 
5690 5 0.59594 0.69944 0.120267 -1 3 1 
6024 5 0.244167 0.694178 0.190308 -2 -9 -2 
6143 6 0.926637 0.728847 0.168424 -4 1 2 
5173 6 0.0833396 0.759819 0.211765 -1 1 2 
7673 6 0.409141 0.741287 0.178753 -1 0 5 
5778 6 0.57105 0.756355 0.169422 0 -1 2 
8068 6 0.736215 0.749589 0.189243 2 -4 -1 
8613 5 0.553151 0.799202 0.145401 1 -2 1 
6979 5 0.6197 0.795601 0.161721 5 1 1 
7646 6 0.893606 0.855886 0.181382 -3 -3 4 
6382 5 0.922065 0.871723 0.157935 -1 1 -3 
6374 5 0.0235381 0.914566 0.202427 0 -1 1 
5063 5 0.346578 0.867434 0.173023 1 1 0 
5679 6 0.242563 0.92633 0.170072 -2 -5 7 
5209 5 0.378488 0.879641 0.153894 1 -1 1 
6014 6 0.684951 0.877962 0.160646 1 5 0 
8857 5 0.842061 0.861835 0.157364 2 0 -1 
5261 6 0.0878702 0.917967 0.18435 6 -1 -2 
8361 5 0.836831 0.982398 0.177209 0 0 6 
6534 6 0.699692 0.923909 0.16899 3 6 4 
5585 6 0.737019 0.941437 0.209516 1 -6 4 
6717 6 0.75156 0.952501 0.177469 -3 1 0 
5490 5 0.290367 0.951673 0.172467 -2 -3 -3 
7509 6 0.434138 0.967855 0.130264 -3 1 1 