ITEM: TIMESTEP
20000000
ITEM: NUMBER OF ATOMS
9000
ITEM: BOX BOUNDS pp pp pp
-75 75
-75 75
-75 75
ITEM: ATOMS id type xs ys zs ix iy iz 
6033 5 0.735556 0.991864 0.983262 -2 -1 -3 
7491 6 0.113701 0.995439 0.0488761 0 2 -2 
6249 6 0.577576 0.00993634 0.976946 0 -3 -3 
8987 6 0.79229 0.0125831 0.0181982 1 -1 1 
6030 6 0.962555 0.0215593 0.0160241 4 4 0 
5009 6 0.120107 0.0230683 0.0575314 2 -4 0 
8384 5 0.479465 0.0866804 0.0484408 -2 1 -1 
5903 5 0.718515 0.0692625 0.00577382 -1 2 -2 
6007 6 0.196999 0.0788133 0.987323 0 1 -5 
5587 5 0.422911 0.0558247 0.0347735 0 -6 1 
8412 5 0.131992 0.128875 0.0243774 7 1 4 
8235 6 0.446699 0.133135 0.0268669 -3 -2 2 
7910 6 0.804856 0.100157 0.990375 0 -3 -3 
8945 6 0.500629 0.13673 0.995841 1 3 5 
6708 5 0.873913 0.112393 0.988242 -3 5 -3 
5181 5 0.235577 0.194995 1.00081 -5 6 2 
6609 6 0.758251 0.167165 0.0195675 1 0 6 
6163 5 0.961801 0.187987 0.990215 -5 1 -7 
8236 6 0.42493 0.125354 0.971818 4 0 5 
8467 5 0.734649 0.205068 0.995677 3 -2 -3 
5668 6 0.839012 0.230747 0.995601 -1 1 1 
8926 5 0.210548 0.201784 -0.00586449 7 -4 -2 
7544 5 0.19025 0.244347 0.0335737 -2 1 0 
1257 1 0.615982 0.248885 0.0331614 0 0 0 
1259 1 0.608859 0.248516 0.0307633 0 0 0 
1258 1 0.613249 0.246854 0.0269566 0 0 0 
1256 1 0.615795 0.254057 0.0292179 0 0 0 
1255 2 0.617099 0.260082 0.0272323 0 0 0 
6387 6 0.998828 0.308443 0.00396686 -6 2 7 
8922 5 0.115271 0.279551 0.988923 2 0 0 
1763 1 0.53615 0.271739 0.0270965 0 0 0 
1765 1 0.540385 0.276006 0.022449 0 0 0 
7739 6 0.575474 0.310614 0.975393 -2 -3 5 
1767 1 0.547329 0.279178 0.0218834 0 0 0 
1769 1 0.550427 0.276118 0.0285385 0 0 0 
1766 1 0.545975 0.273166 0.0233142 0 0 0 
1768 1 0.553015 0.276129 0.0223296 0 0 0 
1770 1 0.556735 0.275727 0.0287009 0 0 0 
1254 1 0.61518 0.264677 0.0228146 0 0 0 
1253 1 0.613554 0.269019 0.0172978 0 0 0 
1249 1 0.62077 0.281714 0.0191083 0 0 0 
6326 5 0.900763 0.285593 0.024251 -3 3 -2 
8881 5 0.384797 0.304421 0.0347729 3 -4 -3 
6368 6 0.973994 0.296849 0.98675 1 0 -1 
8411 6 0.540478 0.357728 0.97617 0 0 -3 
5992 6 0.365609 0.37676 0.0233002 3 -2 -2 
6022 6 0.775008 0.363504 0.99522 4 0 -3 
5923 5 0.258637 0.405127 0.0288745 2 1 3 
6490 5 0.637023 0.406844 0.992044 3 -2 2 
8696 5 0.720125 0.39862 0.0171822 -4 0 2 
6337 6 0.389636 0.426011 0.0272826 5 -5 5 
5407 6 0.402517 0.440173 0.0264895 -3 -1 2 
7000 6 0.586938 0.427493 0.0228753 -3 2 -1 
7761 6 0.19856 0.467889 0.00343659 1 2 0 
6225 5 0.468697 0.470641 0.0245526 -6 2 -1 
7567 5 0.985545 0.464883 0.98878 1 2 0 
6466 6 0.557464 0.438658 0.0155942 -1 -4 0 
7728 5 0.705587 0.468289 0.014995 -3 -1 -1 
5849 6 0.802856 0.437523 0.956267 1 2 1 
5132 5 0.198913 0.448849 0.0196328 1 3 -4 
8835 6 0.155806 0.551612 0.0113874 -5 2 5 
6810 6 0.343094 0.507943 0.0274328 0 0 2 
7474 6 0.553134 0.536883 0.998005 4 -3 -3 
7439 6 0.097217 0.543029 0.0244156 4 -6 1 
5110 6 0.0661891 0.536398 0.00951617 2 3 -2 
7879 6 0.625763 0.554946 0.0254611 4 0 2 
5800 5 0.429332 0.615985 0.955967 2 3 1 
7657 5 0.811309 0.604933 -0.00203486 2 4 -2 
6722 6 0.420455 0.59485 0.0214006 2 0 -2 
5052 5 0.457661 0.582206 0.0248584 0 -4 0 
8508 6 0.726392 0.571786 0.015342 1 2 1 
5007 6 0.868127 0.601152 0.952968 3 0 3 
5730 5 0.671383 0.631121 0.019549 6 0 -3 
5916 6 0.822075 0.645472 0.00186254 -4 -7 -2 
6954 5 0.11884 0.671054 0.994019 1 0 3 
6921 6 0.44163 0.698057 0.95824 0 -2 -4 
6203 6 0.507209 0.661164 0.975424 0 0 -2 
6359 6 0.964355 0.711344 0.976491 1 3 0 
8207 5 0.967356 0.74413 0.00150626 1 -2 -4 
7638 6 0.541794 0.7164 0.969716 0 -6 0 
5841 5 0.583454 0.75693 0.983996 -4 8 0 
6867 6 0.371284 0.769551 0.0129249 8 2 1 
6925 6 0.454154 0.752708 0.998689 8 3 -4 
5779 6 0.825146 0.778868 0.0220972 1 4 6 
5983 5 0.951168 0.744893 0.987868 2 0 -1 
8791 5 0.231958 0.79148 0.0311296 2 -4 7 
8965 6 0.0496557 0.818918 0.0218955 -4 0 3 
8654 5 0.447118 0.845314 0.0365044 3 2 2 
7389 6 0.718563 0.874633 0.0289603 2 -4 4 
7236 5 0.82666 0.845425 0.999402 -1 4 2 
7108 6 0.386116 0.853536 0.99307 0 -1 1 
7080 6 0.925805 0.883796 1.00295 1 0 7 
8724 6 0.234703 0.912806 0.0268636 -3 -2 -3 
7817 6 0.423512 0.935153 0.966971 -4 2 1 
7298 6 0.857125 0.923328 0.0581561 2 3 1 
5109 6 0.121079 0.966531 0.00356772 -4 -4 -1 
7775 6 0.3608 0.930581 0.997586 -1 -2 -4 
5683 5 0.417767 0.937822 0.0404408 -1 1 -5 
5344 5 0.0252129 0.977381 0.973644 3 4 -2 
7747 5 0.682904 0.992431 0.0182279 -1 1 3 
5429 5 0.402571 0.0199909 0.0126701 1 0 0 
8904 5 0.951816 0.989543 0.0170218 -2 -3 -1 
8765 6 0.424159 0.0212876 0.0268394 -1 -1 2 
7569 5 0.444057 0.0357898 0.0172601 0 0 0 
7371 5 0.705855 0.130684 0.0437118 -1 -5 -2 
6056 6 0.137739 0.11286 0.0342349 2 -2 -1 
6685 5 0.0525122 0.23115 0.0186428 0 1 1 
8156 6 0.179239 0.224014 0.0619988 4 -1 -3 
5844 5 0.604101 0.199367 0.0598746 -4 4 2 
6845 6 0.777951 0.218679 0.000814202 1 0 2 
6989 6 0.825255 0.168555 0.0103606 -3 4 0 
7636 6 0.953165 0.197008 0.0239305 -3 -3 -3 
8073 6 0.610498 0.198757 0.0396079 -2 5 2 
5049 6 0.647325 0.138768 0.00521213 -1 -4 -4 
8486 5 0.790409 0.225799 0.0164669 -3 1 4 
8703 5 0.812765 0.204032 0.0297572 -1 -1 7 
8472 6 0.202317 0.189856 0.9951 -3 0 1 
5605 6 0.392437 0.229768 0.0346581 -3 -2 -4 
1303 1 0.520629 0.256876 0.0483294 0 0 0 
1305 1 0.51971 0.251482 0.0542742 0 0 0 
5627 6 0.852169 0.257008 0.0318966 -1 2 0 
1304 1 0.518644 0.250333 0.0479475 0 0 0 
1302 1 0.524397 0.253722 0.0444318 0 0 0 
1300 1 0.53195 0.252982 0.0457725 0 0 0 
1301 1 0.527701 0.254622 0.0500114 0 0 0 
1298 1 0.528913 0.259228 0.0435312 0 0 0 
1297 1 0.534697 0.259162 0.0411817 0 0 0 
1296 1 0.531858 0.26465 0.0397237 0 0 0 
1294 1 0.533588 0.271231 0.0432315 0 0 0 
8114 5 0.535819 0.269626 0.036111 -2 -2 -3 
1762 1 0.533695 0.277446 0.027462 0 0 0 
1759 1 0.527235 0.278926 0.0381019 0 0 0 
1299 1 0.533793 0.259151 0.048126 0 0 0 
1295 1 0.537655 0.266076 0.0415452 0 0 0 
1293 1 0.538949 0.271612 0.046981 0 0 0 
1260 2 0.604563 0.251256 0.0344558 0 0 0 
1261 2 0.600602 0.253277 0.038807 0 0 0 
1262 1 0.599144 0.255886 0.0443617 0 0 0 
1264 1 0.592992 0.257406 0.0476286 0 0 0 
1263 1 0.59917 0.259239 0.0497988 0 0 0 
8653 6 0.79717 0.246543 0.0358579 0 5 2 
6854 6 0.93524 0.256956 0.99911 -5 -1 1 
1764 1 0.541112 0.275094 0.0285797 0 0 0 
1761 1 0.532817 0.276107 0.033442 0 0 0 
1758 1 0.524795 0.284705 0.0372583 0 0 0 
1757 1 0.52659 0.283396 0.0438337 0 0 0 
1756 1 0.524867 0.289671 0.0432987 0 0 0 
1760 1 0.529629 0.281227 0.0326275 0 0 0 
1777 1 0.544294 0.297315 0.0317363 0 0 0 
1778 1 0.546323 0.29463 0.0369887 0 0 0 
1779 1 0.540076 0.295544 0.0383457 0 0 0 
1755 1 0.526011 0.28865 0.0495881 0 0 0 
1771 1 0.554344 0.281829 0.0268309 0 0 0 
1772 1 0.553294 0.280524 0.0329041 0 0 0 
1774 1 0.551845 0.287357 0.0299802 0 0 0 
1776 1 0.55048 0.294735 0.0310156 0 0 0 
1775 1 0.545916 0.289973 0.0306595 0 0 0 
1773 1 0.54771 0.282475 0.0305553 0 0 0 
1252 1 0.619277 0.269587 0.0195934 0 0 0 
1251 1 0.617711 0.275091 0.0172279 0 0 0 
1250 1 0.623339 0.276103 0.0200975 0 0 0 
1248 1 0.624748 0.282214 0.0248709 0 0 0 
1245 1 0.627583 0.291093 0.0280066 0 0 0 
1247 1 0.622022 0.288016 0.0237866 0 0 0 
1244 1 0.634155 0.290567 0.0270369 0 0 0 
1246 1 0.628213 0.288958 0.022192 0 0 0 
1242 1 0.636078 0.289241 0.0342436 0 0 0 
1243 1 0.633536 0.294542 0.0320139 0 0 0 
1241 1 0.638202 0.294388 0.0375199 0 0 0 
1238 1 0.640786 0.291672 0.0441917 0 0 0 
1240 1 0.633881 0.291485 0.0409856 0 0 0 
1239 1 0.636527 0.296194 0.0442304 0 0 0 
1234 1 0.654316 0.293784 0.0409071 0 0 0 
1235 1 0.650683 0.293612 0.0460755 0 0 0 
1237 1 0.644203 0.297202 0.0452065 0 0 0 
1236 1 0.646817 0.293618 0.0407197 0 0 0 
1233 1 0.657738 0.29262 0.0464576 0 0 0 
8176 5 0.997593 0.335692 0.029638 -5 6 -3 
5495 6 0.485164 0.277197 0.0241017 0 2 6 
6824 5 0.541815 0.323112 0.0344492 3 0 -2 
1783 1 0.544952 0.306924 0.041914 0 0 0 
1785 1 0.541118 0.310866 0.0370103 0 0 0 
1782 1 0.538397 0.304679 0.0430887 0 0 0 
1784 1 0.540842 0.311424 0.0433213 0 0 0 
1781 1 0.541845 0.302376 0.0373497 0 0 0 
1780 1 0.543762 0.298854 0.0425052 0 0 0 
7473 5 0.520415 0.308931 0.0212619 -1 2 3 
1786 1 0.543209 0.316809 0.0379165 0 0 0 
1789 1 0.547744 0.317788 0.0287947 0 0 0 
1787 1 0.541511 0.315778 0.0316778 0 0 0 
1788 1 0.547558 0.313329 0.0330712 0 0 0 
5862 5 0.705566 0.280729 0.0560202 1 3 1 
8175 6 0.765581 0.281659 0.0398203 3 1 1 
7173 6 0.293756 0.328281 0.00761751 -4 -4 -4 
1793 1 0.547863 0.327453 0.0281959 0 0 0 
1799 1 0.533969 0.34319 0.0298076 0 0 0 
1922 1 0.535799 0.320208 0.0455666 0 0 0 
1798 1 0.538853 0.34179 0.0334311 0 0 0 
1921 1 0.534182 0.321186 0.0515166 0 0 0 
1918 1 0.54431 0.315539 0.0518006 0 0 0 
1801 1 0.536881 0.349277 0.0256091 0 0 0 
1926 1 0.546261 0.324559 0.041157 0 0 0 
1920 1 0.53655 0.315179 0.0509018 0 0 0 
1927 2 0.551146 0.328478 0.0396435 0 0 0 
1791 1 0.553314 0.322828 0.0281984 0 0 0 
1797 1 0.538033 0.337469 0.0291298 0 0 0 
1790 1 0.55374 0.317449 0.0315925 0 0 0 
1792 1 0.549084 0.323079 0.0331264 0 0 0 
1795 1 0.541467 0.33145 0.0299027 0 0 0 
1794 1 0.54613 0.33019 0.0340353 0 0 0 
1796 1 0.539468 0.334507 0.0349556 0 0 0 
1931 1 0.565816 0.329588 0.0384806 0 0 0 
1928 1 0.556994 0.327997 0.0364299 0 0 0 
7070 6 0.897987 0.314391 0.0196491 1 -2 -1 
7237 5 0.0848018 0.320747 0.0166419 2 -2 -1 
1807 1 0.530777 0.355313 0.043215 0 0 0 
1809 1 0.535698 0.358798 0.0474241 0 0 0 
1808 1 0.536211 0.35299 0.0455695 0 0 0 
1811 1 0.54305 0.35811 0.0453316 0 0 0 
1800 1 0.539548 0.343632 0.0262356 0 0 0 
1803 1 0.536699 0.354902 0.0303898 0 0 0 
1804 1 0.532915 0.350363 0.0322558 0 0 0 
1805 1 0.532338 0.355581 0.0358366 0 0 0 
1802 1 0.540029 0.34972 0.0312518 0 0 0 
1806 1 0.532577 0.349955 0.0398065 0 0 0 
1810 1 0.537841 0.359511 0.0414352 0 0 0 
1929 1 0.562014 0.327412 0.032331 0 0 0 
8905 5 0.65426 0.374057 0.00272599 1 -1 -3 
1814 1 0.536807 0.367268 0.0426488 0 0 0 
1812 1 0.543462 0.363074 0.04152 0 0 0 
1816 1 0.537099 0.375116 0.04193 0 0 0 
1813 1 0.54056 0.364832 0.0472644 0 0 0 
1815 1 0.537791 0.37168 0.0471144 0 0 0 
8414 6 0.128781 0.42908 0.0124128 1 -2 -2 
6179 5 0.436985 0.400999 0.0455682 1 2 -3 
6184 5 0.463717 0.381339 0.0344662 -1 0 5 
5951 5 0.420192 0.409945 0.0312144 -2 2 -4 
8840 5 0.635553 0.417662 0.0539613 -7 -3 -1 
6649 5 0.655773 0.377899 0.0295823 0 1 1 
6893 5 0.579533 0.411378 0.0250141 0 0 -2 
5345 6 0.214497 0.462285 0.0387791 -4 -1 0 
8944 6 0.635413 0.482298 0.060152 -2 0 2 
6698 6 0.687738 0.480225 0.0260839 -1 3 -1 
6526 6 0.605133 0.510666 0.039232 -2 3 -4 
6600 5 0.225463 0.531396 0.0704237 1 0 -2 
5435 5 0.342377 0.528546 0.026681 4 -6 1 
5877 6 0.545972 0.532821 0.0633791 -2 0 0 
8594 6 0.94882 0.534327 0.0468333 -1 0 0 
5944 6 0.575691 0.518351 0.0754057 -4 3 -2 
5290 5 0.745668 0.582878 0.0459006 7 -2 2 
5285 6 0.922493 0.577123 0.0219794 -3 -2 -1 
7127 6 0.53509 0.572644 0.0758263 1 3 -1 
6140 5 0.86267 0.600309 0.0367419 -2 -1 1 
6303 6 0.15003 0.580354 0.0424713 -1 -1 -2 
7006 5 0.678501 0.59045 -0.00252733 0 0 0 
7367 5 0.194743 0.614723 0.998581 2 -1 5 
7435 5 0.574331 0.652523 0.0705068 -7 -3 0 
6432 5 0.910174 0.640132 0.0675225 -6 3 -5 
8712 5 0.392784 0.694086 0.0183751 1 1 -3 
6668 5 0.658764 0.702811 0.0542679 2 3 -3 
7780 5 0.775005 0.697331 0.0221189 -2 1 -5 
7595 6 0.561645 0.713588 0.0513567 0 3 -1 
7530 6 0.858354 0.709833 0.0464173 3 2 1 
8601 5 0.836099 0.703507 0.0633834 3 -2 1 
5569 6 0.0743519 0.756419 0.0357754 2 2 -1 
6529 5 0.621889 0.767244 0.035718 -2 4 -2 
6801 5 0.943486 0.788319 0.00594944 0 -1 4 
8121 6 0.207128 0.817135 0.0405177 2 1 0 
5249 5 0.383285 0.856242 0.0519078 -2 -1 -4 
6635 5 0.461905 0.86816 0.00168094 -2 6 4 
6213 6 0.265491 0.828397 0.0254414 2 -2 -3 
6032 5 0.604537 0.899796 0.0654922 -6 2 -2 
8142 5 0.148604 0.922495 0.0144697 0 2 -5 
7184 5 0.717747 0.923651 -0.000541063 0 1 4 
8058 6 0.730836 0.898036 0.0494038 1 0 4 
7333 6 0.755471 0.893399 0.0177094 1 4 -1 
7825 6 0.809812 0.921727 0.0121065 5 -3 1 
7217 6 0.751568 0.923905 0.0143437 4 -6 1 
5464 6 0.880044 0.94634 0.0459772 0 0 4 
8185 6 0.15805 0.0166148 0.060954 2 -1 0 
8388 6 0.575621 0.999089 0.0472984 -2 -4 -1 
6027 6 0.775162 0.994608 0.0770392 -4 -2 1 
8532 5 0.968856 0.0340431 0.0818354 1 3 0 
8834 6 0.73953 0.0209257 0.0404259 -2 -3 0 
6369 6 0.705465 0.0579511 0.0201426 -2 1 0 
5042 6 0.696593 0.0423043 0.0978973 -7 -5 3 
5885 5 0.794299 0.0590748 0.0801284 4 -1 -1 
8297 5 0.663147 0.0392481 0.0614069 0 2 -1 
7975 6 0.396848 0.0719103 0.0671157 4 -1 0 
5784 5 0.169933 0.147462 0.0743012 2 2 9 
6988 5 0.325487 0.0709504 0.0598704 3 0 1 
5696 5 0.529242 0.092907 0.105823 1 -1 2 
8627 5 0.868304 0.146494 0.0475827 -2 0 -2 
6549 6 0.890573 0.136357 0.0706852 0 3 4 
6510 6 0.940622 0.128431 0.0438317 -1 -1 -4 
8600 6 0.238281 0.14861 0.0101274 2 -1 6 
6469 5 0.668818 0.173436 0.0295462 -1 -1 2 
7172 6 0.750785 0.19848 0.0303167 -1 -3 2 
5735 5 0.89335 0.214003 0.0710516 -3 2 0 
7239 5 0.238915 0.218423 0.979756 3 3 -6 
5025 5 0.236575 0.206208 0.0442632 -2 3 3 
6370 5 0.850536 0.201181 0.0791127 0 -3 -3 
1306 1 0.513265 0.250997 0.0538341 0 0 0 
7882 5 0.39866 0.277248 0.0291449 2 -1 0 
1309 1 0.495823 0.260095 0.0552154 0 0 0 
1308 2 0.501597 0.258564 0.0530621 0 0 0 
1307 2 0.508334 0.255863 0.0535941 0 0 0 
1310 2 0.493168 0.262561 0.0609857 0 0 0 
1311 1 0.49521 0.266253 0.0658987 0 0 0 
1288 1 0.554864 0.274917 0.0678885 0 0 0 
7319 5 0.55137 0.265866 0.0730906 -4 2 2 
1265 1 0.593019 0.263227 0.0497702 0 0 0 
1267 1 0.588845 0.264608 0.0551223 0 0 0 
1273 1 0.595517 0.274961 0.0674626 0 0 0 
1268 1 0.591741 0.26271 0.0606907 0 0 0 
1266 1 0.592651 0.259282 0.0546433 0 0 0 
1270 1 0.592759 0.270237 0.0623998 0 0 0 
1269 1 0.587163 0.267082 0.0620561 0 0 0 
1271 1 0.590085 0.269611 0.0680598 0 0 0 
8238 6 0.905301 0.209135 0.0104507 1 -3 3 
6569 5 0.136946 0.294072 0.0338976 0 -3 4 
5288 5 0.538772 0.284183 0.0550913 -3 -3 2 
1754 1 0.531506 0.290463 0.0465093 0 0 0 
1753 1 0.532857 0.289138 0.052749 0 0 0 
1752 1 0.537765 0.287713 0.0490743 0 0 0 
1750 1 0.544955 0.289607 0.0510072 0 0 0 
1749 1 0.54656 0.294479 0.0544779 0 0 0 
1748 1 0.551674 0.29074 0.0537834 0 0 0 
1751 1 0.539674 0.291091 0.053848 0 0 0 
1747 1 0.547258 0.288049 0.0574966 0 0 0 
1746 1 0.551786 0.290652 0.061419 0 0 0 
1292 2 0.543086 0.269127 0.0517759 0 0 0 
1291 2 0.546354 0.272256 0.0571932 0 0 0 
1289 1 0.55158 0.28042 0.0664833 0 0 0 
1290 1 0.54999 0.275241 0.0618127 0 0 0 
1231 1 0.655517 0.296639 0.0525828 0 0 0 
1232 1 0.656379 0.298588 0.045967 0 0 0 
1230 1 0.650968 0.300605 0.050658 0 0 0 
1229 1 0.648358 0.294283 0.0522148 0 0 0 
1228 1 0.64805 0.299087 0.0567879 0 0 0 
1226 1 0.647166 0.292311 0.0599824 0 0 0 
1227 1 0.642393 0.296324 0.0571477 0 0 0 
6087 6 0.130561 0.29916 0.0458741 -1 -1 1 
5010 5 0.376137 0.269463 0.0383229 0 3 8 
7331 6 0.376392 0.313129 0.0485102 -1 2 -1 
1720 1 0.534977 0.326019 0.0595027 0 0 0 
1722 1 0.537682 0.323104 0.0649935 0 0 0 
1917 1 0.546534 0.32097 0.0550172 0 0 0 
1732 1 0.551446 0.302846 0.0688703 0 0 0 
1734 1 0.554154 0.302595 0.0754565 0 0 0 
1731 1 0.555169 0.307613 0.0686535 0 0 0 
1729 1 0.554556 0.308661 0.0616808 0 0 0 
1728 1 0.552452 0.31468 0.0615131 0 0 0 
1727 2 0.552768 0.320665 0.0636504 0 0 0 
1730 1 0.549412 0.309056 0.0658974 0 0 0 
8415 5 0.650279 0.286788 0.0552826 1 -2 -4 
1223 1 0.64405 0.296485 0.0687423 0 0 0 
1225 1 0.641032 0.293551 0.0632989 0 0 0 
1224 1 0.645551 0.291028 0.0667925 0 0 0 
1222 1 0.650459 0.296477 0.0683291 0 0 0 
1220 1 0.653394 0.302557 0.0698058 0 0 0 
1221 1 0.648997 0.301894 0.0653104 0 0 0 
1219 1 0.654665 0.307071 0.0650955 0 0 0 
1218 1 0.652783 0.310136 0.0710429 0 0 0 
8513 6 0.964965 0.31059 0.0669299 1 -3 3 
1883 1 0.500507 0.339647 0.0699469 0 0 0 
1919 1 0.539948 0.318459 0.0555011 0 0 0 
1724 1 0.543995 0.323382 0.0691326 0 0 0 
1723 1 0.543725 0.325423 0.0633784 0 0 0 
1923 1 0.540758 0.323334 0.0483426 0 0 0 
1924 1 0.539472 0.325844 0.0425025 0 0 0 
1925 1 0.544281 0.328543 0.045837 0 0 0 
1719 1 0.531239 0.330875 0.0616363 0 0 0 
1721 1 0.537439 0.329356 0.0643967 0 0 0 
1916 1 0.54954 0.319433 0.049582 0 0 0 
1915 1 0.553972 0.322383 0.0527198 0 0 0 
1908 1 0.557299 0.344179 0.0451032 0 0 0 
1910 1 0.556214 0.33805 0.0489329 0 0 0 
1909 1 0.556344 0.338334 0.0425053 0 0 0 
1914 1 0.55289 0.326108 0.0477502 0 0 0 
1912 1 0.550981 0.333031 0.048464 0 0 0 
1913 1 0.554305 0.33004 0.0530749 0 0 0 
1911 1 0.557135 0.332196 0.0465772 0 0 0 
1936 1 0.568981 0.324763 0.055535 0 0 0 
1938 1 0.566295 0.326293 0.0619853 0 0 0 
1939 1 0.564105 0.332592 0.0628915 0 0 0 
1940 1 0.566859 0.329978 0.068398 0 0 0 
1933 1 0.568793 0.329575 0.045283 0 0 0 
1934 1 0.568716 0.32412 0.0485953 0 0 0 
1935 1 0.572741 0.327955 0.0515223 0 0 0 
1930 1 0.562361 0.324006 0.0382737 0 0 0 
1726 1 0.550587 0.325255 0.0675879 0 0 0 
1725 1 0.546206 0.329758 0.0685709 0 0 0 
1937 1 0.569316 0.330619 0.0578503 0 0 0 
1573 2 0.588131 0.352274 0.053834 0 0 0 
1572 2 0.590376 0.348887 0.0587619 0 0 0 
1571 2 0.592217 0.346803 0.0643108 0 0 0 
7453 5 0.660533 0.30395 0.0664744 2 0 -2 
1887 1 0.510309 0.33807 0.0599335 0 0 0 
1884 1 0.499021 0.337951 0.0638842 0 0 0 
1882 1 0.49406 0.338467 0.0698177 0 0 0 
1889 1 0.513172 0.34441 0.0626739 0 0 0 
1894 1 0.523627 0.354995 0.065135 0 0 0 
1895 1 0.527891 0.355716 0.0606482 0 0 0 
1890 1 0.511915 0.350753 0.06244 0 0 0 
1891 1 0.51773 0.35045 0.0660236 0 0 0 
1896 1 0.530881 0.353881 0.0661249 0 0 0 
1893 1 0.521264 0.353177 0.0597991 0 0 0 
1892 1 0.517181 0.356687 0.0634678 0 0 0 
1886 1 0.503855 0.338296 0.0585848 0 0 0 
1888 1 0.508503 0.344047 0.0586457 0 0 0 
1904 1 0.545612 0.346538 0.0551777 0 0 0 
1897 1 0.534719 0.356826 0.0611961 0 0 0 
1903 1 0.545644 0.352089 0.0527095 0 0 0 
1898 1 0.538332 0.356284 0.0664596 0 0 0 
1899 1 0.53843 0.350576 0.0636074 0 0 0 
1900 1 0.544548 0.352547 0.0644465 0 0 0 
1902 1 0.548056 0.352565 0.0583715 0 0 0 
1901 1 0.54204 0.354166 0.0583867 0 0 0 
1642 1 0.547359 0.365116 0.0725504 0 0 0 
1644 1 0.550476 0.35883 0.0751753 0 0 0 
1906 1 0.551788 0.344729 0.0506364 0 0 0 
1905 1 0.54588 0.346565 0.0487879 0 0 0 
1907 1 0.550842 0.343978 0.0444441 0 0 0 
1932 1 0.5627 0.328294 0.0442152 0 0 0 
1646 1 0.548911 0.351747 0.074586 0 0 0 
1645 1 0.544526 0.356409 0.0760884 0 0 0 
1575 2 0.577778 0.354425 0.053379 0 0 0 
1576 2 0.574227 0.352361 0.0589137 0 0 0 
1574 2 0.583504 0.355646 0.0509021 0 0 0 
776 1 0.594835 0.362787 0.0625215 0 0 0 
785 1 0.618208 0.350568 0.0617267 0 0 0 
781 1 0.605087 0.353621 0.0583654 0 0 0 
783 1 0.611989 0.349866 0.0599124 0 0 0 
777 1 0.599056 0.365096 0.0580983 0 0 0 
779 1 0.602141 0.359841 0.0541337 0 0 0 
778 1 0.60138 0.35948 0.0605276 0 0 0 
784 1 0.613475 0.350591 0.0658986 0 0 0 
780 1 0.607647 0.359026 0.0566596 0 0 0 
782 1 0.610274 0.355581 0.0619201 0 0 0 
787 1 0.619798 0.34339 0.0597332 0 0 0 
6199 5 0.64998 0.360627 0.0517889 -1 1 3 
6864 5 0.340242 0.36539 0.0682122 0 1 0 
1823 1 0.528898 0.375526 0.0578917 0 0 0 
1821 1 0.533898 0.379755 0.0547099 0 0 0 
1820 1 0.533391 0.378338 0.0483897 0 0 0 
7864 5 0.523887 0.368911 0.0575981 0 -3 1 
1824 1 0.522667 0.375353 0.0556428 0 0 0 
1828 1 0.518597 0.371867 0.0626598 0 0 0 
1826 1 0.517815 0.378977 0.0607156 0 0 0 
1822 1 0.527916 0.380028 0.0535508 0 0 0 
1825 1 0.523658 0.380724 0.0587917 0 0 0 
1819 1 0.536227 0.384457 0.0495414 0 0 0 
1633 1 0.53919 0.370208 0.0557858 0 0 0 
1636 1 0.535824 0.363967 0.061177 0 0 0 
1637 1 0.531577 0.367696 0.0647538 0 0 0 
1818 1 0.537256 0.382596 0.0434829 0 0 0 
1817 1 0.54051 0.378251 0.0464218 0 0 0 
1634 1 0.536032 0.371329 0.0611844 0 0 0 
1635 1 0.532211 0.367901 0.0572625 0 0 0 
1624 1 0.545142 0.377756 0.0628412 0 0 0 
1623 1 0.539335 0.379839 0.0608582 0 0 0 
1621 1 0.536477 0.386367 0.0646201 0 0 0 
1638 1 0.533863 0.363431 0.0684492 0 0 0 
1640 1 0.540937 0.366798 0.0684556 0 0 0 
1641 1 0.541744 0.367664 0.0746694 0 0 0 
1639 1 0.535714 0.368719 0.0711306 0 0 0 
1632 1 0.543257 0.369907 0.0606412 0 0 0 
1625 1 0.546274 0.383885 0.0593639 0 0 0 
1630 1 0.550251 0.370753 0.0581859 0 0 0 
1631 1 0.545327 0.374295 0.0565797 0 0 0 
1627 1 0.551529 0.380402 0.0542617 0 0 0 
1629 1 0.551358 0.373089 0.0526192 0 0 0 
1626 1 0.552059 0.381035 0.0608949 0 0 0 
1628 1 0.555507 0.375688 0.0567975 0 0 0 
772 2 0.588311 0.375898 0.0724722 0 0 0 
774 1 0.593099 0.365089 0.0689068 0 0 0 
773 1 0.591091 0.371288 0.0689835 0 0 0 
775 1 0.596709 0.368186 0.0641627 0 0 0 
771 1 0.581664 0.376733 0.0721353 0 0 0 
767 1 0.579647 0.366859 0.0782561 0 0 0 
766 1 0.577495 0.371228 0.0829893 0 0 0 
6714 5 0.999595 0.379097 0.0724533 -2 3 0 
5628 6 0.291908 0.433258 0.0611746 -5 3 0 
1829 1 0.517977 0.372695 0.0689184 0 0 0 
1827 1 0.522137 0.376654 0.0646362 0 0 0 
1622 1 0.541754 0.382746 0.0661349 0 0 0 
1620 1 0.541165 0.390324 0.0642777 0 0 0 
1619 1 0.535871 0.393976 0.0648441 0 0 0 
1617 1 0.536081 0.400109 0.0609258 0 0 0 
1616 1 0.541714 0.400964 0.0587314 0 0 0 
1618 1 0.538868 0.39442 0.0589271 0 0 0 
1613 1 0.542819 0.410607 0.0624243 0 0 0 
1614 1 0.544692 0.407501 0.057325 0 0 0 
1615 1 0.538473 0.406361 0.0578437 0 0 0 
1612 1 0.547373 0.406198 0.0636092 0 0 0 
755 1 0.598532 0.382507 0.0774105 0 0 0 
757 1 0.590698 0.381975 0.0786439 0 0 0 
5689 5 0.663423 0.389828 0.0310655 3 -6 1 
7744 6 0.693197 0.436349 0.0510706 1 5 -2 
8333 5 0.876382 0.399496 0.0745569 -3 -5 0 
7063 6 0.249541 0.387248 0.068435 -1 2 -1 
5999 5 0.799764 0.409117 0.0337928 -1 2 -1 
6165 6 0.0939133 0.465703 0.0215777 0 0 2 
8042 6 0.123065 0.408546 0.0539677 1 -1 4 
6777 5 0.283426 0.456222 0.0704827 5 2 0 
5616 6 0.122153 0.472577 0.025121 7 2 -1 
6403 5 0.129811 0.476246 0.0260671 0 -4 2 
7734 5 0.255119 0.4745 0.0318113 4 1 1 
7972 6 0.811864 0.487545 0.0704212 1 -2 -3 
6274 5 0.278613 0.538663 0.0521454 3 3 4 
8241 5 0.558181 0.526569 0.0553068 3 2 -1 
8595 5 0.276823 0.560249 0.0617243 -4 0 2 
7296 6 0.362403 0.598901 0.0971551 1 0 -1 
6580 6 0.515834 0.54564 0.0259065 3 4 3 
7732 5 0.788418 0.54493 0.0639861 2 1 1 
6248 6 0.864713 0.566428 0.0520756 -2 0 -3 
6916 6 0.481571 0.647044 0.047406 -4 0 1 
6699 6 0.536598 0.657955 0.0851218 1 0 -2 
7570 6 0.102933 0.67354 0.0429921 -1 0 -2 
7163 5 0.786565 0.635147 0.0700724 1 -3 1 
8000 5 0.190313 0.694621 0.0537089 -3 -2 -2 
8478 5 0.474489 0.69931 0.0554861 -1 0 0 
6261 5 0.717235 0.691957 0.0332249 -8 -1 -1 
6943 5 0.882726 0.649205 0.086995 -1 1 0 
6952 5 0.0335776 0.659136 0.0258435 0 0 0 
7241 5 0.483985 0.679691 0.105177 -4 4 5 
5077 5 0.918625 0.658195 0.0438727 2 1 -1 
7857 6 0.321164 0.70404 0.0526514 2 -2 -2 
7676 6 0.417815 0.758386 0.0520185 1 3 -2 
5466 5 0.948651 0.767278 0.080258 -6 0 4 
7710 5 0.692249 0.781344 0.0683755 2 -4 0 
6721 6 0.467688 0.758453 0.0656592 1 1 3 
7856 6 0.341697 0.81785 0.0363563 2 -3 0 
8971 5 0.485755 0.839712 0.077433 4 3 0 
6771 5 0.491828 0.840651 0.0406669 0 -1 0 
8359 6 0.499481 0.849545 0.0666373 0 3 -2 
5671 6 0.86793 0.866057 0.0411623 1 -3 -4 
5670 5 0.138322 0.923338 0.0516406 1 -1 0 
6355 5 0.151071 0.890974 0.0457233 0 3 -1 
6975 5 0.502622 0.828943 0.0181123 1 -2 -1 
8086 6 0.796448 0.902197 0.072783 1 -2 -1 
8947 6 0.332285 0.932632 0.0682831 -3 3 -2 
7557 6 0.699471 0.927833 0.0417871 5 -6 0 
7382 5 0.620482 0.965612 0.0317136 -1 -1 2 
7203 5 0.652096 0.968844 0.0698984 1 3 4 
6797 6 0.00437349 0.899401 0.0778331 3 1 0 
8656 6 0.531024 0.939191 0.0414743 2 0 -3 
5373 6 0.672734 0.975543 0.0514137 -2 -1 7 
7765 6 0.698705 0.924165 0.0838034 2 -4 -3 
6904 5 0.944965 0.0132413 0.0819319 1 0 4 
5589 5 0.50391 0.0728078 0.0745358 -1 4 1 
5961 6 0.850502 0.0312667 0.112016 -1 -5 -1 
7759 6 0.191516 0.114557 0.135505 2 -3 2 
8395 5 0.448202 0.0746018 0.0923789 -2 -4 1 
5393 5 0.863203 0.125141 0.0877616 1 0 5 
5235 5 0.580038 0.162132 0.0836955 -1 -1 -4 
7750 5 0.912055 0.15208 0.0813926 -3 -5 -6 
6557 5 0.0414603 0.15665 0.0953964 1 -2 2 
8458 6 0.245478 0.187659 0.0878256 5 -1 2 
8106 6 0.802108 0.149421 0.0821404 1 1 -2 
6575 5 0.0942984 0.13562 0.101217 6 0 -1 
5598 6 0.495346 0.210369 0.0777784 4 3 2 
5189 6 0.81057 0.194812 0.0410385 1 2 0 
5162 6 0.458194 0.205577 0.0912462 -1 4 1 
5330 6 0.956294 0.18673 0.0882049 0 -5 0 
7030 5 0.0100818 0.205118 0.080727 4 -1 8 
8637 6 0.0328489 0.263381 0.079827 2 0 0 
6659 6 0.6049 0.231083 0.0893531 -1 3 2 
6910 6 0.942612 0.27306 0.0942404 2 -7 0 
8642 5 0.315386 0.276177 0.121305 -6 -3 6 
1317 1 0.495919 0.273814 0.0754609 0 0 0 
1318 1 0.496908 0.26749 0.078801 0 0 0 
1316 1 0.491266 0.272191 0.0795974 0 0 0 
1315 1 0.488602 0.27353 0.0739978 0 0 0 
1312 1 0.496384 0.272441 0.0667403 0 0 0 
1313 1 0.490002 0.271675 0.0674978 0 0 0 
1286 1 0.559778 0.267478 0.0771032 0 0 0 
1287 2 0.556494 0.271246 0.0730121 0 0 0 
1284 1 0.56648 0.267307 0.0797909 0 0 0 
1285 1 0.56123 0.266555 0.0833599 0 0 0 
1277 1 0.584314 0.277762 0.0769777 0 0 0 
1279 1 0.579466 0.272716 0.080944 0 0 0 
1278 1 0.582749 0.271145 0.0759265 0 0 0 
1280 1 0.576489 0.267533 0.0776442 0 0 0 
1283 1 0.568079 0.27013 0.0856722 0 0 0 
1281 1 0.572421 0.271987 0.0796936 0 0 0 
1282 1 0.573314 0.267164 0.0835574 0 0 0 
1272 1 0.595832 0.269242 0.0702186 0 0 0 
1275 1 0.589251 0.276588 0.0717781 0 0 0 
1276 1 0.589273 0.273757 0.0776347 0 0 0 
1274 1 0.595212 0.275616 0.0740864 0 0 0 
5011 5 0.814812 0.273014 0.11271 -6 2 -2 
7364 6 0.140483 0.222084 0.0994 -1 3 -1 
1314 1 0.493042 0.268971 0.0723262 0 0 0 
1745 1 0.546146 0.293668 0.0631773 0 0 0 
1742 1 0.544677 0.298216 0.06814 0 0 0 
1743 1 0.544002 0.292092 0.0701174 0 0 0 
7475 6 0.499409 0.253411 0.0931807 -3 2 3 
1744 1 0.550069 0.293106 0.0682212 0 0 0 
7153 5 0.917236 0.269484 0.0815135 1 4 -3 
8626 5 0.552437 0.304405 0.0925929 0 0 2 
1718 1 0.530739 0.32605 0.0656895 0 0 0 
1741 1 0.540037 0.297854 0.0730795 0 0 0 
1738 1 0.54696 0.303465 0.0802759 0 0 0 
373 1 0.543047 0.305638 0.0911154 0 0 0 
370 1 0.547236 0.316009 0.0934186 0 0 0 
372 1 0.543068 0.310222 0.0953808 0 0 0 
371 1 0.54335 0.313029 0.0892536 0 0 0 
1739 1 0.541784 0.300265 0.0801839 0 0 0 
1740 1 0.543258 0.303132 0.0736137 0 0 0 
1737 1 0.548776 0.29714 0.0808164 0 0 0 
1733 1 0.55743 0.300847 0.0704537 0 0 0 
1736 1 0.548855 0.29855 0.0746955 0 0 0 
1735 1 0.554705 0.296304 0.0754254 0 0 0 
368 1 0.551682 0.310799 0.0900932 0 0 0 
362 1 0.560933 0.306793 0.0882988 0 0 0 
360 1 0.557638 0.300798 0.0878194 0 0 0 
361 1 0.563764 0.301251 0.0876188 0 0 0 
364 1 0.562086 0.307878 0.0812317 0 0 0 
363 1 0.566929 0.307688 0.085769 0 0 0 
365 1 0.562103 0.312952 0.0853033 0 0 0 
815 1 0.592276 0.298525 0.0897568 0 0 0 
816 1 0.592593 0.297638 0.0836525 0 0 0 
5688 5 0.566442 0.292336 0.101143 -2 2 3 
813 1 0.592906 0.304267 0.0850201 0 0 0 
806 1 0.608838 0.316087 0.079525 0 0 0 
811 1 0.597004 0.309732 0.0810911 0 0 0 
809 1 0.604071 0.311911 0.083914 0 0 0 
814 1 0.597856 0.301019 0.0874608 0 0 0 
812 1 0.597515 0.308226 0.08754 0 0 0 
810 1 0.597884 0.314812 0.084752 0 0 0 
807 1 0.610339 0.315038 0.0856728 0 0 0 
805 1 0.610471 0.310169 0.080327 0 0 0 
804 1 0.613918 0.312575 0.0755671 0 0 0 
818 1 0.585739 0.29621 0.0805903 0 0 0 
803 1 0.617877 0.308267 0.0786005 0 0 0 
801 1 0.621741 0.304231 0.0729845 0 0 0 
802 1 0.615279 0.30567 0.0730501 0 0 0 
6025 5 0.616042 0.319006 0.0811735 -4 5 0 
1217 2 0.653209 0.314233 0.0761368 0 0 0 
623 1 0.473125 0.339101 0.0885588 0 0 0 
621 1 0.473561 0.346668 0.08841 0 0 0 
622 1 0.474935 0.342787 0.0836705 0 0 0 
628 1 0.488386 0.33608 0.0839003 0 0 0 
630 1 0.494902 0.331903 0.0851529 0 0 0 
629 1 0.488852 0.329692 0.084271 0 0 0 
627 1 0.486241 0.3342 0.0896412 0 0 0 
626 1 0.481728 0.334689 0.0852025 0 0 0 
625 1 0.478599 0.334374 0.0907495 0 0 0 
624 1 0.479562 0.340738 0.0892421 0 0 0 
632 1 0.500097 0.328519 0.0887916 0 0 0 
631 1 0.493488 0.327244 0.0895555 0 0 0 
633 1 0.497635 0.330989 0.0946138 0 0 0 
1865 1 0.516243 0.339752 0.0812373 0 0 0 
7760 5 0.501054 0.344571 0.0970288 -1 2 -4 
1717 1 0.530455 0.331607 0.0691066 0 0 0 
1713 1 0.533543 0.31617 0.0872035 0 0 0 
369 1 0.549493 0.316442 0.0871798 0 0 0 
1863 1 0.523466 0.336876 0.0822238 0 0 0 
1861 1 0.526277 0.338199 0.0888775 0 0 0 
1712 1 0.538666 0.319857 0.0884593 0 0 0 
1714 1 0.535242 0.319119 0.08177 0 0 0 
1715 2 0.536033 0.324534 0.0785253 0 0 0 
1716 1 0.533985 0.327613 0.0724232 0 0 0 
1662 1 0.542236 0.335233 0.0846009 0 0 0 
1660 1 0.539925 0.335502 0.0912558 0 0 0 
1862 1 0.520873 0.340999 0.0869062 0 0 0 
5144 5 0.535676 0.342154 0.083208 1 4 -1 
1942 1 0.564487 0.329552 0.0755779 0 0 0 
1945 1 0.556701 0.337771 0.0800668 0 0 0 
1943 1 0.562805 0.335668 0.0757881 0 0 0 
1941 1 0.560835 0.331017 0.0702078 0 0 0 
1946 1 0.553973 0.33305 0.0834356 0 0 0 
1947 1 0.553104 0.338582 0.0865574 0 0 0 
1948 1 0.549687 0.33451 0.0899136 0 0 0 
6639 5 0.545867 0.341599 0.0911499 -4 5 0 
1944 1 0.56015 0.332472 0.0803555 0 0 0 
1661 1 0.542056 0.329979 0.088133 0 0 0 
367 1 0.556639 0.314842 0.0897673 0 0 0 
366 1 0.556146 0.311183 0.0845958 0 0 0 
1568 2 0.582373 0.336719 0.0748456 0 0 0 
1567 1 0.583014 0.34063 0.0803078 0 0 0 
808 1 0.604248 0.31811 0.0850384 0 0 0 
1569 2 0.587646 0.337661 0.0710758 0 0 0 
1570 2 0.592113 0.341573 0.0678271 0 0 0 
800 1 0.620871 0.309286 0.0693767 0 0 0 
1205 1 0.620034 0.32356 0.0878491 0 0 0 
1206 1 0.622481 0.322397 0.0822586 0 0 0 
1207 1 0.6249 0.327852 0.0846961 0 0 0 
799 1 0.626793 0.309878 0.0718899 0 0 0 
797 1 0.630529 0.315522 0.0691124 0 0 0 
798 1 0.624307 0.315427 0.069388 0 0 0 
1208 1 0.62761 0.321978 0.0863703 0 0 0 
1209 1 0.632294 0.325821 0.0864801 0 0 0 
796 1 0.629361 0.315389 0.0629709 0 0 0 
5755 5 0.61816 0.326843 0.105017 5 -2 0 
1210 1 0.634274 0.319914 0.0888095 0 0 0 
793 1 0.627924 0.326982 0.065611 0 0 0 
792 1 0.62234 0.327776 0.0626839 0 0 0 
794 1 0.627367 0.322455 0.0610675 0 0 0 
795 1 0.632147 0.321092 0.064555 0 0 0 
1216 1 0.649559 0.317015 0.0812082 0 0 0 
1213 1 0.641088 0.315292 0.0800713 0 0 0 
1214 1 0.645431 0.311796 0.0832841 0 0 0 
1212 1 0.638764 0.315047 0.0857567 0 0 0 
1215 1 0.645041 0.317776 0.085548 0 0 0 
1211 1 0.637221 0.32077 0.0830612 0 0 0 
5656 6 0.709183 0.324354 0.0699908 0 -1 2 