ITEM: TIMESTEP
20000000
ITEM: NUMBER OF ATOMS
9000
ITEM: BOX BOUNDS pp pp pp
-75 75
-75 75
-75 75
ITEM: ATOMS id type xs ys zs ix iy iz 
8407 5 0.188809 -0.000835262 0.0467343 1 -2 -4 
5719 6 0.408351 0.983595 0.0372572 -4 -4 4 
7610 6 0.618656 0.0302761 0.007899 1 0 3 
6898 6 0.855003 0.0150827 0.0134671 3 -2 -5 
5421 6 0.34044 0.0419075 0.985165 3 4 3 
5799 6 0.494771 0.0975521 0.0245083 1 1 3 
6307 6 0.111885 0.164261 0.0256412 5 0 4 
8395 5 0.325671 0.05605 0.0103004 1 2 6 
7300 6 0.752672 0.129684 0.99174 2 4 -2 
5300 5 0.10991 0.107541 -0.00170088 -1 0 5 
5955 5 0.160899 0.135911 0.0362417 5 -2 1 
7956 5 0.272498 0.126879 0.0042496 -3 5 -1 
8885 5 0.807364 0.133033 0.0161635 -4 6 1 
6545 6 0.913271 0.0923632 0.0259668 3 4 3 
6626 5 0.0160119 0.139702 0.99368 0 3 -3 
8492 5 0.13349 0.153543 0.98902 -1 0 -4 
5390 6 0.862662 0.158424 0.992839 3 0 -1 
8167 5 0.908564 0.152222 0.0365604 -2 -1 -1 
5806 5 0.915364 0.132183 0.0617126 0 -4 3 
8586 5 0.527231 0.21042 0.00117127 -1 1 2 
8447 6 0.56475 0.189517 0.00944881 0 -4 -1 
7474 6 0.608287 0.229023 0.0211536 0 1 1 
6002 5 0.78043 0.205063 0.0603467 1 -3 1 
6258 5 0.920127 0.20288 0.0171382 -7 3 3 
7424 6 0.818899 0.24026 0.00085853 -3 3 1 
7010 6 0.0355874 0.271358 0.0507587 5 5 3 
6083 5 0.359069 0.238178 0.0016304 -1 2 5 
5285 6 0.508639 0.248723 0.996956 1 -6 -5 
8811 5 0.301699 0.289616 0.0157237 1 3 -4 
5320 5 0.3581 0.290459 0.0388261 2 2 -1 
7507 6 0.744766 0.285692 0.0366305 2 -3 -1 
6216 6 0.906733 0.333294 0.00477243 2 1 3 
6906 5 0.0487465 0.387277 0.0314945 8 2 -3 
7883 6 0.277888 0.38855 0.988254 0 1 -4 
5160 6 0.453833 0.390765 0.0109777 -3 -2 2 
8494 5 0.804595 0.360228 0.0334384 2 3 4 
6093 5 0.900664 0.419523 0.0195003 1 4 0 
7884 6 0.956269 0.378894 0.0202714 0 1 2 
7765 6 0.123502 0.392789 0.00525045 0 -2 3 
7862 6 0.737339 0.415494 0.0198118 -2 -2 -3 
8220 5 0.0933551 0.417751 0.0158519 -1 0 1 
5348 6 0.452126 0.396371 0.0184342 3 2 5 
8464 5 0.886127 0.430539 0.99445 -4 1 -4 
8254 6 0.276313 0.422443 0.0320326 3 0 5 
5724 6 0.780386 0.431147 0.0109003 -4 0 2 
6003 5 0.996979 0.437098 0.987521 3 -2 0 
8122 6 0.271226 0.484585 0.0224659 -3 -2 -2 
5906 5 0.411841 0.485125 0.0173553 -2 -1 -1 
8138 5 0.448795 0.4531 0.0241282 4 3 -1 
5485 5 0.550484 0.437088 0.035908 0 3 -1 
8770 5 0.618029 0.511727 0.0102864 -5 0 4 
7238 6 0.956548 0.491684 0.990595 -4 -2 6 
8906 6 0.532173 0.492263 0.02884 0 -3 1 
5287 5 0.559509 0.559046 0.00449221 -4 -3 0 
8641 6 0.638625 0.552062 0.0156904 1 0 -1 
8714 6 0.0160663 0.565037 0.0319155 -1 -2 -1 
6487 6 0.423045 0.56261 0.0203788 3 0 0 
6203 6 0.696038 0.557555 0.0117304 -2 -1 4 
5626 6 0.944876 0.63836 0.951442 -1 0 2 
6862 6 0.556806 0.657366 1.00154 -5 -2 0 
8215 6 0.615535 0.642017 0.0178621 -3 -1 0 
8108 5 0.1596 0.665233 0.00688445 2 0 -1 
6914 5 0.132664 0.634618 0.0318466 2 2 0 
5197 5 0.269024 0.701238 0.0216612 -1 -2 4 
5035 6 0.801413 0.628537 0.0177379 0 6 2 
7263 6 0.68413 0.705364 0.98182 0 5 1 
7721 6 0.791738 0.703059 0.0503692 -5 2 -3 
7923 5 0.404425 0.680045 -0.00589325 3 -3 -3 
7670 6 0.560408 0.728978 0.0618096 1 -3 5 
5172 6 0.67083 0.695625 0.0176888 -2 -1 -6 
6479 6 0.607253 0.72864 0.0308237 -2 1 -2 
5913 6 0.922607 0.786626 0.00552799 -5 2 3 
8540 6 0.193395 0.815905 0.0447349 0 -2 -2 
6413 5 0.488946 0.753647 0.026501 -1 2 -1 
8855 5 0.993408 0.841951 0.0278368 4 3 1 
7611 6 0.0672818 0.89227 0.0279496 -2 0 2 
6970 5 0.00644116 0.87309 0.024689 -1 2 2 
6388 6 0.203867 0.837662 0.991698 3 4 0 
7985 6 0.0369621 0.898519 0.991613 1 0 0 
7124 6 0.106569 0.885023 0.994198 1 4 0 
7510 6 0.264124 0.891503 0.0282698 1 -2 1 
5177 5 0.825673 0.936681 0.0196942 -1 -1 3 
8506 6 0.95093 0.918235 0.00258643 -2 2 -5 
5391 6 0.0879126 0.988992 0.0100936 -5 -4 1 
6352 6 0.369699 0.953594 0.0105825 -3 -4 1 
7330 6 0.443918 0.936088 0.979573 -3 -1 4 
5524 6 0.67872 0.983642 1.00117 7 -2 -2 
6106 5 0.130171 0.967834 -0.000735006 2 -3 3 
5932 6 0.378946 0.997797 0.0460563 0 1 2 
5053 6 0.471443 -0.00471839 0.0537791 1 -1 5 
7942 6 0.630375 0.0276856 0.0426803 3 4 -3 
8260 6 0.207885 0.0424653 0.0486174 2 -1 -2 
8389 6 0.545837 0.00853585 0.979732 -2 5 -3 
6772 5 0.613286 0.0303924 0.0433683 -5 4 2 
6128 5 0.695742 0.0404258 0.015048 -1 -4 0 
5302 6 0.814371 0.0417188 0.0442705 1 -4 -5 
8703 5 0.492114 0.0394087 0.0136204 2 1 0 
6540 5 0.478114 0.0646076 0.0491439 5 4 -1 
6991 6 0.658043 0.0598459 0.0103989 0 0 -1 
5810 5 0.810433 0.0467785 0.0648422 -4 3 -2 
6887 6 0.981663 0.0578836 0.0254303 -9 -6 0 
5773 6 0.0111682 0.0661496 0.0696913 4 -1 -5 
5853 6 0.0450201 0.0699732 0.0128953 6 1 -2 
6104 5 0.923897 0.0793702 0.0168584 -4 0 0 
5030 6 0.337306 0.0676524 0.0121254 1 5 5 
7885 6 0.47481 0.0712869 0.0251708 4 0 3 
5771 6 0.847104 0.108841 0.990605 -5 -1 5 
5701 6 0.69497 0.155376 0.0105248 -4 -1 0 
6276 5 0.0787139 0.133166 0.0260355 -1 0 -2 
6316 6 0.84962 0.180172 0.0416057 4 -3 4 
6824 6 0.199924 0.214158 0.0113349 2 0 2 
8048 6 0.600804 0.211386 0.00385192 4 1 5 
8195 5 0.965444 0.181368 0.0162564 0 1 4 
7604 6 0.262932 0.215147 0.0792247 0 -3 0 
5393 5 0.55443 0.204243 0.0320469 1 4 1 
6422 5 0.599102 0.214144 0.030526 -2 2 0 
7903 5 0.0903028 0.246473 0.0668788 1 0 -2 
8396 6 0.280073 0.227931 0.048787 2 -2 -8 
8061 5 0.888321 0.254182 0.0137873 -7 3 -1 
6302 5 0.495458 0.285681 0.0478789 2 1 6 
7927 6 0.193799 0.304442 0.983322 2 0 0 
7064 5 0.486224 0.315635 0.0303637 3 -2 2 
6781 6 0.814527 0.356912 -1.93653e-05 5 0 -2 
8853 5 0.94311 0.258932 0.0167066 1 -3 0 
8010 6 0.114314 0.294894 0.067199 -1 0 0 
5669 6 0.217632 0.31946 0.0283823 5 4 -1 
7978 6 0.22422 0.337186 0.0578728 -3 -3 4 
8438 5 0.498071 0.315098 0.0479796 -3 2 -1 
7453 6 0.633239 0.374472 0.0374841 -3 2 2 
8475 5 0.859635 0.353273 0.041042 0 1 -1 
5471 5 0.845662 0.352878 0.0105997 5 -4 1 
7180 6 0.0166314 0.345191 0.044757 3 4 2 
7370 6 0.655543 0.398782 0.00937611 0 1 1 
6239 6 0.892653 0.381414 0.0283919 1 1 3 
6000 5 0.921567 0.324858 0.028017 -3 4 1 
6368 5 0.5423 0.364661 0.0478378 0 -1 -1 
7844 5 0.761662 0.365987 0.0245738 2 -1 -3 
7791 6 0.125085 0.450879 0.0572805 -3 -2 -1 
6071 6 0.59697 0.432979 0.0365426 5 2 4 
8850 5 0.892772 0.413008 0.0476038 -2 -1 1 
6630 5 0.680806 0.462725 0.00682844 0 2 -2 
7140 6 0.0809293 0.483238 0.0455474 4 6 7 
6344 6 0.202851 0.444868 0.0539994 -4 2 -3 
5375 5 0.304348 0.480558 0.0374698 3 1 2 
5738 5 0.61695 0.473941 0.0188775 2 1 2 
8047 6 0.647902 0.528701 0.0524269 -5 0 1 
6298 5 0.69662 0.546166 0.0280292 1 6 5 
6929 5 0.10836 0.523816 0.0106793 3 -6 -1 
6103 6 0.25627 0.557842 0.0238148 -4 3 4 
6766 6 0.677123 0.545364 0.0672724 0 0 -2 
8706 6 0.74838 0.538381 0.0290458 0 3 2 
8090 6 0.847609 0.542538 0.0280481 -3 0 -2 
5956 6 0.386471 0.60629 0.0315492 0 -2 2 
5431 5 0.492331 0.586187 0.00597292 0 -4 5 
8991 5 0.896989 0.617545 0.0320047 -7 -2 -1 
8803 5 0.938102 0.629407 0.0555545 3 -3 1 
8157 5 0.546366 0.612945 0.0410844 0 -2 1 
8481 5 0.568517 0.643052 0.0640411 0 4 -4 
5408 5 0.229421 0.67275 0.0239918 -2 -3 4 
6602 6 0.583411 0.685255 0.0475101 0 1 1 
8946 6 0.660523 0.668336 0.0250207 0 1 3 
5967 6 0.113357 0.659738 0.990037 -2 7 -1 
8435 5 0.306027 0.737641 0.0531396 -2 -3 0 
8660 5 0.949844 0.665921 0.00345511 -1 0 -2 
6116 5 0.972509 0.730777 0.0690547 0 -4 0 
5399 6 0.209433 0.736798 0.0358074 2 1 7 
8355 5 0.280024 0.746357 0.0408317 -2 1 -2 
6616 5 0.919503 0.765788 0.0621052 -1 -1 5 
6315 6 0.718196 0.824098 0.02786 -1 0 1 
7110 5 0.261925 0.838935 0.0262898 -3 0 -3 
6536 6 0.462181 0.821016 0.00830729 8 -3 -5 
6757 5 0.471827 0.795342 0.0294952 -6 -4 -4 
5266 6 0.489318 0.896346 0.0285077 2 5 -5 
5452 5 0.382056 0.911878 0.0286919 -3 -1 1 
5882 5 0.405969 0.849295 0.0662525 3 -2 -5 
6889 6 0.369754 0.929319 0.0444071 -4 4 -5 
8529 5 0.516869 0.969121 0.0306964 2 2 2 
7409 6 0.646111 0.937266 0.0182587 -1 0 3 
8577 6 0.0529809 0.974947 0.0156879 0 -1 -2 
5247 6 0.136538 0.956114 0.0293414 2 -1 -1 
7926 5 0.230552 0.991053 0.0589241 4 4 2 
8675 5 0.121598 0.0807701 0.0768803 3 1 6 
8026 6 0.332016 0.977885 0.0768442 1 3 5 
7100 5 0.103311 0.0263401 0.0412008 0 0 2 
6967 5 0.307396 0.0335437 0.0505248 2 1 3 
7073 6 0.682426 0.0960668 0.0377971 -3 0 -2 
6925 6 0.70077 0.034159 0.0647497 1 -3 -1 
5584 6 0.714976 0.0789771 0.0627368 -4 -4 4 
7693 6 0.9746 0.0751277 0.0474179 2 0 -1 
6051 6 0.49157 0.116171 0.0508196 -2 -5 5 
5867 5 0.715265 0.118779 0.0335426 0 -2 2 
5468 6 0.260579 0.128838 0.049664 2 -4 -1 
8077 6 0.489041 0.160801 0.018199 0 -2 0 
6770 5 0.716487 0.125101 0.0532077 -4 -1 -1 
5819 5 0.789818 0.110151 0.0446905 -2 -1 3 
8014 5 0.445304 0.120429 0.0863853 5 3 -1 
7539 5 0.542463 0.152442 0.0511903 2 0 2 
7257 5 0.707848 0.188701 0.0453745 3 1 -5 
7809 5 0.731631 0.196174 0.0554325 0 1 1 
7204 5 0.0963823 0.232335 0.0607235 2 6 -3 
7468 5 0.53367 0.215754 0.0599305 -1 2 -2 
8813 6 0.787846 0.220374 0.0996354 3 1 -8 
7114 5 0.88564 0.190782 0.0788018 -3 0 -1 
7186 5 0.481805 0.229586 0.0510518 -4 1 -4 
5261 6 0.524382 0.242726 0.0848845 1 4 3 
8125 6 0.441539 0.283823 0.0474105 -1 5 3 
5210 5 0.437665 0.307527 0.0186153 0 0 0 
6072 6 0.543927 0.346614 0.0360183 3 0 0 
8392 6 0.101721 0.354811 0.0721795 -1 6 0 
7318 5 0.135637 0.292826 0.0541207 -3 -3 0 
7841 5 0.524347 0.304278 0.0621228 -1 -2 1 
5912 5 0.55674 0.312675 0.0385093 -1 -2 1 
5601 6 0.746196 0.347971 0.0484474 -3 -6 3 
6986 6 0.147969 0.406273 0.0710462 -4 -3 3 
6384 5 0.851144 0.417376 0.0530247 2 3 3 
6105 5 0.103019 0.409476 0.03428 1 0 -1 
7754 5 0.122388 0.410852 0.0759702 5 -4 -1 
7798 5 0.364598 0.492604 0.0960006 2 -2 0 
5437 6 0.390672 0.443157 0.0526309 0 1 -3 
5478 5 0.448395 0.464499 0.0264067 4 -3 -3 
6533 5 0.592015 0.505325 0.0574204 1 -3 -5 
8387 5 0.315365 0.481337 0.0385795 4 0 -3 
8498 6 0.584475 0.516297 0.0665927 7 -2 -5 
5872 6 0.0944098 0.607926 0.0702177 -1 5 5 
5324 6 0.485385 0.582205 0.0721598 -4 -3 1 
8465 5 0.520093 0.545888 0.0532635 -2 -6 -2 
5303 5 0.829395 0.569102 0.125427 1 -3 4 
6611 6 0.905932 0.57435 0.0216691 0 3 2 
5937 6 0.00217956 0.614008 0.0728536 4 -3 -1 
8569 6 0.330316 0.623249 0.0542166 -2 -4 2 
8871 6 0.156058 0.668236 0.0600131 0 1 2 
7757 5 0.0242108 0.652266 0.0528168 0 0 0 
6510 6 0.743105 0.656495 0.0667117 3 -7 6 
7215 5 0.842116 0.668221 0.0517483 3 4 3 
8486 6 0.975192 0.633503 0.0465246 0 3 5 
6125 6 0.0590494 0.687279 0.051195 -1 -4 -2 
5409 5 0.200552 0.733431 0.0440374 -1 -1 2 
6222 5 0.329668 0.638348 0.0482505 4 -1 5 
8889 5 0.630406 0.692266 0.0536587 1 2 0 
5113 5 0.84243 0.720732 0.106911 -2 1 -2 
8888 5 0.941791 0.751453 0.0447824 5 1 -5 
6431 5 0.517106 0.718712 0.0458473 2 0 -3 
5181 5 0.774031 0.767133 0.0425568 -1 1 2 
7385 5 0.301463 0.807137 0.0683876 1 2 1 
8302 6 0.939477 0.752743 0.0608954 2 -2 -2 
6568 6 0.141976 0.836253 0.0523396 -6 2 1 
5381 5 0.194141 0.817797 0.0694326 1 4 6 
8496 6 0.0574725 0.870398 0.0285949 6 2 -4 
6534 6 0.0706918 0.807758 0.0350361 4 -3 -2 
6938 5 0.150016 0.859573 0.0620372 2 -3 3 
8350 6 0.538308 0.893587 0.0446365 -2 -3 -2 
8459 6 0.0721998 0.953279 0.104181 -1 -2 0 
5991 6 0.33149 0.927531 0.0789731 3 4 1 
7612 6 0.773907 0.943679 0.00974834 -2 1 -2 
7486 6 0.34654 0.966926 0.035845 1 0 1 
6164 6 0.639664 0.964441 0.0635715 2 -2 1 
5632 6 0.722181 0.962425 0.0693522 -2 2 1 
7172 5 0.0780909 0.968342 0.0597205 3 0 0 
8405 6 0.76084 0.987203 0.0541109 -3 2 2 
5097 5 0.19843 0.988819 0.063569 0 2 -3 
5706 6 0.00943295 0.0758151 0.0742288 1 2 -1 
7516 6 0.313071 0.115123 0.0959958 0 1 -1 
7888 6 0.311901 0.127506 0.0912792 4 0 4 
8721 5 0.572541 0.149357 0.0742333 -2 2 8 
8988 6 0.706332 0.186104 0.0959995 -1 0 3 
7650 6 0.852858 0.133858 0.0700451 2 0 4 
8141 6 0.683757 0.212635 0.0576528 0 0 2 
5194 5 0.701531 0.198607 0.0461613 2 -1 -2 
7249 5 0.455527 0.22025 0.0607132 0 -2 0 
7999 5 0.589907 0.207093 0.0792928 2 1 4 
8191 5 0.0522414 0.261539 0.0651889 -7 2 4 
8412 5 0.797522 0.230259 0.085162 2 -5 1 
8701 5 0.948935 0.257276 0.0784744 -3 1 0 
8558 6 0.587022 0.269471 0.0850723 3 1 -2 
8278 5 0.4694 0.266848 0.111096 -2 4 5 
6468 6 0.23771 0.315066 0.0631564 2 0 -2 
8948 6 0.345992 0.351787 0.051476 -3 3 0 
8071 5 0.577249 0.378474 0.113766 1 -1 3 
8840 5 0.614458 0.343746 0.0877866 -1 -1 1 
6833 5 0.891707 0.333714 0.0905195 1 2 1 
8653 5 0.0392511 0.371078 0.0599232 1 -7 4 
8967 6 0.00688238 0.374896 0.0584881 5 2 -2 
8635 5 0.508964 0.373353 0.0594183 2 8 2 
8275 6 0.853921 0.318371 0.0923322 0 1 -3 
7049 5 0.750033 0.400645 0.0633603 -2 4 0 
6027 6 0.845792 0.44186 0.0778277 -2 1 -1 
7678 5 0.389775 0.403387 0.117873 -1 3 -3 
8307 5 0.000543118 0.459656 0.0721558 1 1 0 
6900 6 0.494838 0.44156 0.0734614 -2 2 -5 
8024 5 0.895093 0.435272 0.0719864 8 1 -1 
5246 5 0.129798 0.44739 0.0605856 3 0 -2 
7676 5 0.626168 0.469259 0.109489 7 2 1 
7780 6 0.863551 0.494088 0.0834152 -5 1 -7 
6553 6 0.905312 0.459331 0.0661565 -6 -3 -2 
5677 5 0.313583 0.481381 0.0998991 0 -1 -3 
5219 5 0.639606 0.462937 0.093853 5 1 1 
8359 5 0.462896 0.494535 0.0486998 2 -1 4 
7807 6 0.639337 0.514218 0.0913807 -4 -4 0 
8757 6 0.760965 0.549618 0.0630455 -1 3 4 
5952 6 0.0472609 0.510128 0.105507 2 0 4 
8388 6 0.172603 0.539593 0.0863316 1 -2 0 
7033 5 0.545991 0.520558 0.104717 0 -6 -1 
5666 6 0.143437 0.598656 0.0937909 1 2 1 
8935 6 0.152898 0.589499 0.0566309 -2 4 -6 
6904 6 0.168058 0.587067 0.084427 -1 -5 -1 
5978 6 0.220797 0.573337 0.0858944 -5 2 -4 
5292 6 0.297196 0.564194 0.0378318 3 -1 -1 
5783 5 0.321101 0.571038 0.0712339 -7 0 3 
5255 5 0.536995 0.611265 0.0512542 2 -6 -2 
5981 5 0.100244 0.603132 0.113203 1 2 -1 
5434 6 0.190757 0.664442 0.0664463 1 1 2 
8579 6 0.293906 0.615906 0.110616 -4 0 5 
7491 6 0.483484 0.659104 0.0954383 3 1 -3 
5127 5 0.530391 0.656261 0.0497126 2 2 1 
6227 5 0.777508 0.736731 0.072748 -1 1 -1 
7732 5 0.21391 0.74687 0.085048 -2 2 0 
6187 5 0.490339 0.732739 0.0791367 -4 -4 5 
7874 6 0.866383 0.763476 0.0892157 3 4 -1 
5464 6 0.0254026 0.785606 0.112078 0 1 -3 
7297 6 0.148059 0.747877 0.076445 -1 -7 -3 
5772 5 0.230741 0.783112 0.0649379 -4 -3 0 
6985 6 0.276216 0.760502 0.109069 4 1 -1 
7778 6 0.406601 0.819413 0.0965672 7 0 1 
5417 6 0.822117 0.791079 0.0748501 -3 -3 -2 
6141 5 0.657385 0.775377 0.0955505 -5 -1 1 
5448 5 0.394283 0.835637 0.077818 -1 -1 -5 
7353 6 0.448628 0.863806 0.0631981 1 2 -2 
5575 5 0.860108 0.838939 0.0796527 -1 3 -2 
5860 6 0.15117 0.869421 0.0944607 4 -2 -1 
7632 5 0.368237 0.868074 0.0871095 1 -3 2 
5312 5 0.539511 0.9282 0.0651162 1 2 0 
6009 5 0.536234 0.91801 0.098565 3 6 2 
7324 6 0.675521 0.880382 0.0520978 -2 3 -6 
6708 5 0.80901 0.913443 0.0845272 -1 -6 2 
5725 6 0.323965 0.940231 0.0935341 2 3 0 
5148 6 0.659287 0.938668 0.0480033 2 -2 4 
5680 5 0.274233 0.93852 0.0751226 -4 -3 -7 
7024 5 0.492544 0.986752 0.0712722 0 -5 3 
7488 6 0.490727 1.00262 0.0118923 0 0 2 
6895 6 0.54638 0.0382336 0.0648233 -6 -4 2 
6695 6 0.078369 0.000311706 0.0923145 2 1 1 
8376 5 0.718972 0.0198353 0.0996128 2 1 -4 
5545 6 0.906028 0.0419076 0.130719 2 -2 4 
6587 6 0.192342 0.0694327 0.128218 1 -4 -1 
7924 5 0.75323 0.0959399 0.123635 0 1 -2 
6804 6 0.707377 0.128743 0.107646 -1 1 1 
8901 5 0.0700157 0.126058 0.0957361 -1 5 2 
8590 5 0.789607 0.115859 0.0797108 0 -3 -3 
5751 5 0.745081 0.0966526 0.123237 2 4 -2 
8270 6 0.82305 0.108584 0.102866 -2 8 -2 
8006 5 0.997499 0.105098 0.0609068 -4 1 -3 
5486 6 0.087628 0.159567 0.10438 2 4 -5 
6736 5 0.763483 0.178952 0.110128 -2 -4 0 
8229 5 0.801893 0.131179 0.0589619 4 3 -2 
7971 5 0.293384 0.171821 0.106002 3 -1 0 
8861 6 0.605501 0.195654 0.060549 1 2 3 
5052 5 0.381059 0.195496 0.143522 2 1 3 
8331 5 0.946861 0.180225 0.113054 1 2 0 
6981 5 0.058237 0.244567 0.0990393 1 2 0 
6978 6 0.980019 0.241646 0.130857 -4 -1 3 
7401 6 0.862027 0.284027 0.11052 0 2 1 
5825 5 0.294058 0.309034 0.0729832 0 1 0 
8831 6 0.717929 0.316565 0.0811434 5 0 1 
8368 6 0.93805 0.319614 0.115361 5 1 -3 
7589 6 0.579503 0.359893 0.118007 4 1 1 
7055 6 0.706586 0.316045 0.0911286 -3 0 2 
6248 6 0.751095 0.333263 0.154944 -4 1 4 
5079 5 0.972557 0.355576 0.139614 -1 4 2 
7646 5 0.613692 0.356943 0.148957 -2 -1 0 
8265 5 0.954627 0.344577 0.0963082 -2 -6 0 
6169 5 0.181268 0.381218 0.107287 -1 0 -3 
7704 6 0.969004 0.406674 0.115759 -1 -4 -1 
8502 5 0.368669 0.446006 0.0838027 -2 -1 -1 
6585 5 0.589939 0.386581 0.116964 -1 -3 2 
6019 6 0.0246632 0.421719 0.128007 -4 -5 -1 
6006 6 0.199646 0.38028 0.107465 5 1 0 
7187 5 0.376191 0.424745 0.0930405 4 1 4 
5115 6 0.740635 0.449035 0.106024 6 -1 1 
6290 6 0.713999 0.425844 0.111995 0 4 2 
5604 6 0.941043 0.426576 0.127557 0 3 0 
8979 6 0.159161 0.440863 0.0940589 3 3 6 
5966 5 0.382674 0.466114 0.106923 -2 1 0 
6794 6 0.00508246 0.447481 0.154453 3 -3 3 
5546 5 0.46851 0.453611 0.121975 -1 3 -2 
5323 5 0.743375 0.48695 0.0837986 -1 -3 3 
8349 5 0.0480401 0.55944 0.0947634 -3 0 2 
8690 5 0.886181 0.594445 0.086238 3 -2 -2 
8711 6 0.465299 0.582461 0.0903301 -1 -1 -4 
6666 6 0.0533187 0.614385 0.13842 -2 3 -2 
6266 5 0.29659 0.634852 0.0949966 -2 -7 1 
8177 6 0.57371 0.638771 0.102649 -4 3 0 
8092 6 0.949456 0.608845 0.0831523 -3 -2 0 
6973 5 0.284313 0.612412 0.0775186 -1 3 1 
6665 6 0.882036 0.659836 0.100258 -2 0 -5 
6664 6 0.271234 0.664804 0.110015 1 3 6 
8974 5 0.504399 0.662046 0.107621 -6 1 -1 
6304 5 0.570804 0.710743 0.107709 1 0 3 
5025 5 0.0284911 0.765012 0.109474 3 -3 -1 
7275 5 0.335792 0.686624 0.0818071 2 4 0 
6340 5 0.598234 0.734146 0.086369 7 5 2 
6482 6 0.672876 0.726779 0.103664 0 0 -2 
8775 5 0.789604 0.717194 0.114495 -5 2 0 
8043 6 0.625271 0.755233 0.137136 -1 -5 4 
6639 6 0.0230811 0.764289 0.122097 -3 4 1 
6667 5 0.361871 0.771577 0.139943 2 -3 0 
7734 5 0.490348 0.768815 0.0781369 3 -2 -2 
6097 6 0.687146 0.740919 0.132362 4 -2 -2 
6417 5 0.839511 0.768678 0.0902888 0 -1 0 
7201 6 0.871932 0.742443 0.109074 1 0 3 
8762 5 0.904657 0.721692 0.109647 0 3 2 
7532 6 0.597333 0.806239 0.0962767 -4 9 1 
8421 6 0.719473 0.802654 0.137503 2 0 -5 
8397 5 0.138639 0.828236 0.0722472 1 -5 -1 
7096 5 0.383189 0.833329 0.0745577 2 7 0 
7074 5 0.516909 0.791073 0.0863234 2 -1 0 
6916 6 0.533284 0.791822 0.0995464 1 0 2 
6257 5 0.965115 0.840886 0.0703402 1 -2 -4 
8952 5 0.842611 0.842794 0.0860944 -2 -1 4 
8073 6 0.174253 0.870401 0.0893836 1 0 -1 
6273 5 0.638626 0.874884 0.0943662 -2 1 -4 
7817 6 0.85075 0.856799 0.102907 1 -2 -1 
8664 6 0.933213 0.854721 0.117372 2 -3 4 
5184 5 0.906066 0.882997 0.10914 -6 2 -4 
8626 6 0.30653 0.89459 0.0906151 -1 2 -2 
5218 6 0.307053 0.963647 0.0976698 0 6 -3 
8603 6 0.681307 0.928584 0.0877918 -3 3 2 
7494 5 0.709901 0.914846 0.130026 2 2 1 
6263 5 0.241795 0.919925 0.130171 2 3 -4 
6742 5 0.305425 0.938197 0.1089 1 -2 -8 
7214 6 0.691484 0.928276 0.145342 -6 7 2 
5327 6 0.451484 0.953625 0.0696935 -6 2 1 
7348 6 -0.00296647 0.951749 0.117652 1 -5 1 
8101 5 0.432209 1.00081 0.104634 5 2 0 
7076 6 0.778491 0.967463 0.101224 3 2 -2 
8172 5 0.940421 0.00799615 0.0831325 1 0 2 
7461 6 0.114438 0.0328477 0.128472 -2 -3 4 
6724 5 0.911228 0.0357195 0.151928 4 3 2 
6692 6 0.307214 0.0712381 0.148046 2 2 -3 
8152 6 0.00153777 0.0283536 0.129066 7 5 5 
5209 5 0.863139 0.0900273 0.0883711 -3 -5 0 
8648 6 0.895769 0.048664 0.0798967 0 -2 1 
6436 5 0.126228 0.114899 0.10521 7 -4 -1 
8117 6 0.225905 0.172853 0.0884677 -1 2 0 
7648 5 0.718345 0.069388 0.153906 1 -3 -4 
8553 5 0.0259621 0.136437 0.148382 -1 0 0 
8943 6 0.579209 0.169318 0.122793 0 2 -4 
6321 6 0.122782 0.175018 0.128442 -1 0 1 
5532 6 0.248688 0.218344 0.0984143 -3 -1 2 
7091 6 0.457709 0.175589 0.168391 3 -1 -4 
5902 5 0.741158 0.26307 0.101474 1 -4 0 
6207 5 0.985496 0.170709 0.0858752 -6 -2 -3 
6580 6 0.735939 0.218637 0.121228 -5 0 -8 
7208 5 0.661723 0.255145 0.104698 -3 -2 -1 
6686 5 0.137338 0.290171 0.143456 0 -2 2 
6393 6 0.0616865 0.307046 0.120123 -4 -1 -5 
6763 5 0.17413 0.268805 0.137987 2 1 -1 
8649 6 0.549729 0.294928 0.0995354 -2 -2 2 
6066 5 0.960616 0.302907 0.146902 -2 1 3 
8183 5 0.978276 0.304172 0.156778 0 -3 4 
5104 6 0.76635 0.355728 0.161269 -6 -7 6 
6603 5 0.484865 0.365191 0.140314 3 -4 0 
8982 6 0.667267 0.357134 0.159006 0 2 -3 
5106 5 0.7282 0.342465 0.131945 0 -3 0 
5056 6 0.839867 0.347086 0.133616 -1 -3 -3 
7060 6 0.873657 0.38959 0.130787 -4 -3 -7 
5933 6 0.572093 0.392602 0.149399 2 -2 0 
5477 5 0.891135 0.363802 0.107711 -3 -2 -5 
5132 6 0.199998 0.401856 0.149061 -5 4 1 
6674 5 0.351182 0.355175 0.127466 -2 1 4 
6777 5 0.517356 0.424078 0.121037 0 -1 -2 
5350 6 0.649595 0.409753 0.134852 -1 2 -2 
7918 5 0.804254 0.378463 0.117322 0 -2 -3 
8080 6 0.353925 0.429651 0.141173 -6 -1 -3 
5018 6 0.689351 0.416533 0.106889 3 -3 1 
8872 6 0.20205 0.402276 0.113079 3 -2 1 
7547 5 0.28268 0.480436 0.128938 0 4 3 
8309 6 0.339201 0.413182 0.111145 -2 6 6 
6899 6 0.775307 0.465573 0.121687 1 1 1 
5850 6 0.909451 0.444408 0.125737 -1 0 0 
6167 6 0.31607 0.45336 0.108806 -1 4 1 
6683 6 0.00875244 0.441499 0.0840608 3 -1 3 
7307 6 0.540207 0.520709 0.128671 2 1 -1 
6416 6 0.177766 0.509197 0.127956 1 0 1 
8909 5 0.309346 0.557043 0.130346 -1 -1 -5 
7802 6 0.892474 0.534445 0.0970691 2 -1 1 
7021 6 0.0800896 0.537412 0.148961 -3 5 1 
7236 6 0.324613 0.530279 0.0831581 0 5 1 
5438 5 0.504555 0.584182 0.158952 3 1 4 
5502 6 0.885034 0.590594 0.121458 0 0 -1 
8223 5 0.0600187 0.61882 0.100746 0 0 4 
5671 6 0.353923 0.608975 0.136246 1 -2 -3 
6457 6 0.405514 0.595795 0.144575 4 -5 0 
8959 5 0.445968 0.611543 0.099929 -3 2 1 
8788 5 0.882934 0.677515 0.152363 -1 4 2 
5248 5 0.559532 0.670434 0.1071 0 -1 -2 
8854 5 0.688909 0.691026 0.155776 -3 2 1 
7989 6 0.749038 0.648446 0.126361 -6 9 -1 
8707 6 0.149209 0.737306 0.0956146 -1 -2 -6 
6359 6 0.218951 0.710411 0.108471 1 2 -2 
5435 5 0.814168 0.713592 0.117931 2 -1 1 
6649 6 0.543994 0.76008 0.130122 1 0 1 
6446 6 0.302566 0.807995 0.101256 -5 -3 3 
8647 5 0.851327 0.772515 0.136919 3 0 5 
8724 6 0.940725 0.824141 0.135535 1 -1 5 
6474 5 0.389497 0.797109 0.145046 0 2 -4 
8004 5 0.180889 0.831896 0.118081 1 -8 1 
6884 5 0.200539 0.834223 0.152934 0 1 0 
5552 5 0.133383 0.894363 0.145437 -3 1 4 
7242 6 0.265342 0.89475 0.154813 3 -3 1 
5558 5 0.799535 0.844535 0.122259 2 -4 1 
8282 5 0.360325 0.944592 0.107566 4 1 -3 
7846 6 0.833198 0.922202 0.111158 3 3 -1 
5122 6 0.177779 0.962079 0.125066 1 2 1 
8633 6 0.467242 0.935509 0.148582 7 3 4 
6178 6 0.253949 0.96089 0.110268 -1 -2 -2 
8983 6 0.526752 1.00091 0.0933633 -2 -1 -6 
5167 6 0.955078 0.947076 0.119047 -4 5 -1 
6080 5 0.381933 0.0790456 0.155717 2 3 -2 
8467 5 0.471574 0.020357 0.147554 0 1 0 
7640 6 0.895234 0.0230119 0.104191 -4 0 2 
8088 6 0.138688 0.0698689 0.133671 -2 -1 -5 
5413 6 0.283324 0.0158687 0.161052 1 0 2 
7881 5 0.174711 0.0631407 0.154137 1 2 -2 
7097 5 0.580104 0.0673098 0.141722 -6 -2 0 
6871 6 0.157895 0.139339 0.198078 -5 0 -4 
8198 6 0.426729 0.116192 0.168348 0 2 -3 
8490 5 0.605522 0.0866174 0.138343 0 1 0 
8305 5 0.917274 0.122352 0.164413 -4 2 1 
8225 5 0.658258 0.129081 0.157248 -4 -3 -1 
8420 6 0.699046 0.141826 0.143727 5 2 1 
8531 6 0.688534 0.102865 0.14618 1 3 0 
8429 6 0.0283865 0.173299 0.159937 -1 -1 -4 
7723 6 0.164861 0.111773 0.140229 1 1 -2 
6525 5 0.142247 0.213504 0.124373 1 -1 4 
5418 6 0.307644 0.20337 0.173812 -1 6 1 
5947 6 0.526747 0.228155 0.14098 -2 1 -6 
8526 6 0.0374144 0.244843 0.0945691 -4 -7 1 
5453 6 0.354275 0.225282 0.118375 -2 -3 5 
6947 6 0.395669 0.239463 0.129182 1 0 -6 
6091 6 0.910945 0.2252 0.141607 -2 0 2 
7533 5 0.536143 0.258565 0.116835 -2 2 1 
5131 6 0.566533 0.23332 0.11141 -2 2 -4 
8652 5 0.0122013 0.286611 0.123737 5 -1 -1 
7003 6 0.109524 0.262001 0.172065 -4 6 -1 
8067 5 0.40309 0.238704 0.131173 3 0 1 
8951 6 0.151715 0.298678 0.140322 0 -5 0 
7144 5 0.336578 0.444109 0.0967541 6 -1 -1 
6876 6 0.168198 0.423347 0.115507 -4 2 3 
8381 5 0.858537 0.425659 0.132107 -2 1 3 
5110 5 0.135292 0.442785 0.123184 -2 3 3 
6789 5 0.698231 0.45003 0.146479 -2 -7 -2 
8627 5 0.0843613 0.486248 0.133773 -1 7 2 
8858 5 0.142131 0.452991 0.143839 3 0 -3 
6467 5 0.20517 0.474438 0.13868 3 0 0 
8734 6 0.263168 0.47206 0.140034 1 -1 -3 
8960 6 0.356336 0.500468 0.150816 2 -3 1 
5868 6 0.860206 0.473718 0.166709 -3 1 -2 
8288 5 0.0703171 0.460375 0.133449 4 3 6 
6113 6 0.277292 0.470217 0.144686 4 -3 4 
5707 5 0.467924 0.493276 0.144168 3 1 1 
8795 6 0.999869 0.504396 0.155925 0 2 0 
6759 5 0.0264158 0.493722 0.134152 4 -4 3 
7407 6 0.638573 0.454986 0.164248 2 0 0 
6578 6 0.8084 0.514306 0.153771 -3 -2 2 
5410 5 0.251381 0.523651 0.130781 -1 3 2 
6490 6 0.814933 0.49742 0.138611 4 3 -2 
5098 5 0.489282 0.55389 0.11469 1 -4 -4 
8362 6 0.720082 0.497078 0.16424 -2 -4 7 
5704 6 0.0327878 0.582909 0.144526 5 8 6 
7106 6 0.115735 0.538729 0.143427 0 -3 1 
7308 6 0.193774 0.578456 0.167776 2 2 5 
6016 6 0.690037 0.60975 0.155235 -4 1 0 
5370 5 0.809035 0.566171 0.140554 3 -2 3 
8535 6 0.262674 0.616687 0.152702 0 2 -1 
8622 6 0.0284555 0.643137 0.154441 -7 -7 0 
6591 6 0.294936 0.626864 0.160113 -2 2 2 
6726 6 0.0495403 0.646638 0.148173 -1 -2 -1 
6331 5 0.758157 0.59376 0.152539 1 -3 3 
6610 5 0.0914659 0.639875 0.100742 -2 -3 -4 
8657 5 0.319962 0.667303 0.162444 -3 -4 0 
5541 6 0.371323 0.691719 0.137726 1 -3 -4 
5432 6 0.255003 0.751007 0.121121 0 0 3 
5539 6 0.748569 0.77273 0.164599 4 1 1 
5505 5 0.809819 0.721873 0.146692 -2 0 2 
6915 5 0.375938 0.807578 0.170405 1 2 3 
7133 6 0.404457 0.819039 0.171298 1 0 2 
7792 5 0.980929 0.823107 0.14849 1 -1 1 
7223 6 0.137069 0.867864 0.169131 2 0 1 
6049 5 0.475932 0.830402 0.108667 -4 -2 -2 
8805 5 0.771667 0.843942 0.165171 0 0 1 
7132 6 0.287416 0.870321 0.140703 4 1 2 
7572 5 0.511792 0.843714 0.182504 2 -2 -2 
7168 5 0.551117 0.860249 0.12373 3 -5 -1 
6185 6 0.227007 0.891024 0.162802 0 -2 -4 
6489 6 0.477918 0.870306 0.145694 0 -1 0 
6444 5 0.951496 0.865195 0.150929 0 -1 -2 
8123 6 0.615449 0.887078 0.119133 -5 5 4 
8621 6 0.0628687 0.932363 0.139066 -3 -4 1 
5996 6 0.139494 0.923457 0.199761 0 -2 -1 
5644 5 0.665767 0.957986 0.183331 -3 -2 -3 
5153 6 0.51469 0.972765 0.171467 0 -3 0 
7294 6 0.596824 0.972572 0.186813 -3 1 0 
8508 5 0.559695 0.944284 0.167678 5 4 2 
5849 5 0.465253 0.020929 0.176142 -5 2 1 
6866 5 0.580575 0.0370149 0.147139 2 2 0 
5233 6 0.754561 0.0172498 0.191849 -1 1 -4 
6219 5 0.761385 0.0467026 0.185528 -1 3 3 
6372 5 0.0283939 0.117412 0.155574 5 1 -5 
6472 6 0.538688 0.156897 0.168849 -4 -2 -4 
7341 5 0.556639 0.169346 0.126728 7 -2 3 
7256 6 0.907184 0.103357 0.108052 3 0 1 
5873 6 0.294185 0.165426 0.119921 -2 1 3 
8609 6 0.664044 0.182451 0.169145 1 0 -2 
5639 5 0.971847 0.191403 0.181627 -7 1 -5 
5716 5 0.863172 0.172321 0.179461 -4 -3 -2 
6319 5 0.811574 0.253856 0.186105 0 3 1 
8751 5 0.666359 0.291434 0.153733 5 3 1 
7580 6 0.819934 0.281842 0.190406 4 -1 -1 
6063 6 0.140658 0.252323 0.170918 2 4 3 
7116 5 0.360813 0.251388 0.147501 -1 -3 -1 
5090 6 0.834653 0.261999 0.120137 1 -1 3 
5264 5 0.945817 0.260577 0.172481 1 2 -3 
7281 6 0.204689 0.299555 0.150054 -1 -2 -8 
7928 6 0.23363 0.308002 0.176434 -1 4 -3 
5386 5 0.375479 0.311513 0.17296 -2 1 2 
5824 6 0.68264 0.286773 0.168689 0 1 2 
6853 5 0.82933 0.259413 0.174835 3 1 0 
8681 6 0.951526 0.287371 0.165028 0 2 4 
8947 5 0.41613 0.276851 0.179075 4 -2 -1 
8303 6 0.981983 0.317586 0.187848 -3 -4 4 
5838 6 0.52596 0.332292 0.132811 3 1 1 
6024 5 0.691366 0.333077 0.215087 1 -3 2 
6121 5 0.783403 0.315945 0.178627 -6 1 4 
8271 6 0.31136 0.359806 0.201454 0 -2 -5 
8698 5 0.664543 0.372175 0.195794 -5 0 1 
6048 5 0.120233 0.418459 0.179493 2 0 4 
7030 5 0.869104 0.397553 0.191812 -1 1 0 
6403 6 0.0315974 0.420632 0.164531 3 -3 -4 
5985 6 0.365042 0.396132 0.156238 1 2 -4 
8996 6 0.596245 0.430638 0.167236 0 1 -2 
5760 6 0.0902987 0.440405 0.129234 3 4 0 
7647 6 0.577956 0.454514 0.175183 -3 3 -4 
6790 5 0.0904457 0.476064 0.160847 -5 -1 0 
7549 5 0.565396 0.468267 0.131423 2 0 -1 
5900 5 0.671235 0.485374 0.152752 -4 4 5 
7706 5 0.770101 0.466733 0.175234 -4 -2 3 
5780 6 0.519374 0.497546 0.168983 3 -9 7 
6399 5 0.67386 0.556021 0.198369 2 0 2 
7774 5 0.495742 0.55906 0.140299 -1 -3 0 
8018 5 0.728535 0.582619 0.163131 0 -3 9 
7662 5 0.328345 0.55707 0.18218 1 7 -3 
7351 6 0.878038 0.586379 0.172646 -3 4 -1 
6502 5 0.562569 0.637893 0.196303 1 1 3 
7850 5 0.830132 0.570354 0.166759 -7 5 0 
8866 5 0.447359 0.619023 0.178819 -2 1 -1 
6284 5 0.491305 0.653044 0.161685 2 -1 9 
8385 6 0.618148 0.640813 0.197667 2 2 3 
5634 5 0.9073 0.619918 0.179128 -2 -2 4 
6363 6 0.64939 0.638804 0.158969 0 1 -3 
6265 6 0.941036 0.615669 0.210687 0 0 2 
8142 6 0.147756 0.656363 0.156645 -4 -3 0 
8993 5 0.366904 0.668281 0.20129 -6 -2 3 
6179 6 0.922857 0.628676 0.197945 -3 3 2 
5817 5 0.0859119 0.658529 0.214657 0 -2 -3 
8971 5 0.776719 0.694433 0.168814 2 1 0 
5662 6 0.857441 0.730381 0.212918 -4 2 -4 
6381 6 0.906981 0.731502 0.139303 -3 0 2 
5347 5 0.267839 0.755476 0.18892 2 -3 -1 
7421 6 0.47452 0.763256 0.165904 -3 -1 -2 
6466 5 0.161457 0.764888 0.168808 -3 1 1 
5852 6 0.134754 0.792116 0.130248 5 -2 3 
6152 5 0.165735 0.767173 0.18112 2 -3 -5 
7981 6 0.52168 0.792228 0.161972 3 4 -5 
7556 6 0.588217 0.793709 0.17842 -2 -1 -1 
7512 6 0.2565 0.871913 0.179987 -1 -2 6 
5416 5 0.580251 0.814739 0.152634 2 4 2 
8182 5 0.641583 0.906378 0.174608 1 -5 -2 
7543 6 0.748602 0.888368 0.152566 0 0 0 
8343 5 0.385122 0.877375 0.128569 0 -3 -3 
5489 6 0.050329 0.919211 0.154364 2 0 4 
8520 6 0.0562434 0.898588 0.172041 -2 -1 1 
8807 5 0.78579 0.93205 0.148354 2 -3 4 
5227 6 0.404366 0.925866 0.144395 2 0 1 
8944 6 0.938052 0.949464 0.173944 0 -2 0 
6322 6 0.356173 0.916113 0.184573 -3 -2 0 
6875 6 0.409498 0.978034 0.186855 -1 3 0 
6632 6 0.790565 0.969555 0.128808 -1 -1 -3 
8212 5 0.79441 0.950274 0.161655 1 -1 -1 
7481 6 0.800233 0.970491 0.208306 3 -4 -1 
5988 6 0.242713 0.998173 0.182789 0 0 -4 
6067 5 0.260534 0.00688528 0.195703 -2 -1 2 
6208 6 0.308034 0.0350375 0.171513 1 -2 -1 
7247 6 0.317608 0.993026 0.139475 -2 3 -2 
7283 5 0.379763 0.990962 0.176623 4 1 -5 
8961 6 0.532658 0.016012 0.221031 0 1 5 
8132 5 0.575509 0.973537 0.194467 0 -6 -8 
8882 6 0.925929 0.98963 0.170746 1 1 1 
8873 5 0.966127 0.998512 0.15411 -2 5 -3 
7789 5 0.513471 0.0358496 0.221813 1 5 5 