ITEM: TIMESTEP
20000000
ITEM: NUMBER OF ATOMS
9000
ITEM: BOX BOUNDS pp pp pp
-75 75
-75 75
-75 75
ITEM: ATOMS id type xs ys zs ix iy iz 
5627 5 0.605347 0.0159692 0.00334509 -3 2 2 
8764 5 0.699155 0.0561016 0.0256025 -2 2 -3 
8525 5 0.061936 0.0803187 0.0446347 -1 0 -6 
7880 6 0.447181 0.0803912 0.0189466 5 0 2 
5743 6 0.537288 0.0909433 0.0231015 5 2 4 
8358 6 0.921981 0.0993893 0.0270419 3 1 2 
8199 6 -6.40011e-05 0.109544 0.00131904 6 1 -1 
6928 6 0.888888 0.156289 0.014359 -3 3 -2 
7703 6 0.929899 0.162783 0.0186909 -4 5 5 
5215 6 0.462184 0.195915 0.0336197 -1 1 -3 
6689 5 0.773229 0.200687 0.0189009 1 -6 1 
7766 5 0.193271 0.216622 0.053485 -6 1 1 
7600 5 0.356213 0.230734 0.0185323 2 5 -2 
7052 5 0.71467 0.235865 0.988124 7 -3 -1 
7659 6 0.810053 0.329685 0.010044 -7 1 6 
8032 6 0.304675 0.309725 0.995574 -4 2 -3 
5973 5 0.557933 0.299601 0.00652772 -6 3 -4 
7034 6 0.939835 0.303517 0.972543 -4 3 0 
5439 6 0.84835 0.283909 0.023409 -9 0 2 
5110 6 0.0979079 0.335416 0.0351186 3 1 -3 
6753 5 0.204304 0.375409 0.0247149 -3 0 1 
5570 6 0.284757 0.366047 0.0535858 1 0 3 
5330 6 0.400129 0.33561 0.978859 0 2 -1 
6595 6 0.931886 0.375568 0.990294 -2 -2 -3 
8445 6 0.119075 0.391727 0.0159789 0 0 -2 
8730 6 0.393361 0.377976 0.0338364 1 1 -2 
8441 5 0.193347 0.409656 0.988795 -5 1 -1 
7596 6 0.861168 0.422449 0.981386 0 2 -1 
7013 6 0.623054 0.441954 0.0371489 -7 -3 -5 
6464 6 0.997314 0.426825 0.99229 -7 -1 0 
5452 6 0.0111552 0.423658 0.031606 1 3 5 
7814 6 0.208544 0.410007 0.0140144 -2 -2 0 
5926 6 0.798385 0.429918 0.028507 -8 -1 2 
5111 5 0.0187365 0.465125 0.022753 -4 2 -4 
7713 5 0.356947 0.505229 0.0222286 -3 -1 0 
5447 6 0.417123 0.503627 0.982516 2 -1 -7 
5068 6 0.885768 0.470312 0.0615066 -3 -1 -3 
5557 5 0.5729 0.5298 0.0163445 2 -1 2 
8126 6 0.529607 0.493467 0.00754955 2 4 2 
6150 6 0.553773 0.521858 0.0133245 -1 4 -3 
5882 6 0.608592 0.501352 0.974979 4 2 -2 
5482 5 0.866402 0.512307 0.985494 -3 -6 0 
5623 6 0.996453 0.535311 0.016046 0 -3 5 
5702 5 0.0567639 0.617853 0.0286046 -3 -3 -2 
7834 6 0.136462 0.580868 0.0273429 3 0 1 
6100 6 0.212796 0.604633 -9.79103e-05 1 -3 -1 
7652 5 0.38577 0.597896 0.0461801 3 -2 5 
6587 5 0.421216 0.626617 0.028432 -10 1 1 
6902 6 0.800837 0.646323 0.067926 -6 1 2 
6032 6 0.879132 0.679643 0.00616041 -1 6 4 
8799 5 0.00887713 0.684323 0.982465 3 -3 -2 
8894 5 0.204536 0.725522 0.0191923 -1 -2 -5 
8780 5 0.0752948 0.818939 0.996048 2 -1 2 
8935 6 0.35451 0.779052 0.016607 -6 -1 4 
5494 5 0.591196 0.812142 0.00938739 -1 -1 0 
6265 5 0.84221 0.805716 0.00818949 3 -2 3 
8304 6 0.985191 0.840459 0.979119 0 3 -3 
8160 6 0.0981988 0.841435 1.00028 1 0 1 
8172 6 0.316982 0.841082 0.0337315 -1 -1 -2 
6168 6 0.0160688 0.829157 0.00599744 -1 2 1 
7709 5 0.113845 0.862052 0.987838 7 1 -4 
6763 5 0.195362 0.883231 0.0294153 -2 2 2 
5042 6 0.98031 0.91454 0.993896 1 5 0 
6206 6 0.372898 0.907174 0.0149027 1 -5 5 
8049 5 0.560808 0.903422 0.046772 -3 -8 -1 
6190 5 0.571891 0.884238 0.00705982 3 -1 -6 
6989 6 0.610165 0.95902 0.0192551 1 -1 -1 
5564 5 0.821747 0.919353 0.983338 1 0 -2 
6632 5 0.0407844 0.0104902 0.0631719 1 2 4 
5635 6 0.32473 0.951361 0.0410154 -2 0 3 
8727 6 0.638246 0.951189 0.0139106 -3 0 4 
6409 5 0.926066 0.983548 0.0100764 1 0 0 
6260 6 0.407097 0.0267501 0.018791 2 0 4 
5392 6 0.701035 0.00542211 0.0614804 2 3 6 
5878 5 0.684853 0.987525 0.0473871 5 -1 0 
7852 6 0.544199 0.0187098 0.0629443 0 4 2 
5562 6 0.600349 0.0334841 0.0488252 -3 1 3 
8142 6 0.73542 0.0602461 0.0531737 -1 4 4 
7967 5 0.415148 0.0622008 0.993147 0 1 5 
5223 5 0.409461 0.0500756 0.0438643 -3 0 -6 
7577 5 0.70112 0.0956253 0.051998 0 0 2 
8446 6 0.787952 0.078365 0.0482745 -1 3 1 
6766 6 0.967895 0.081572 0.0484316 6 2 -2 
7028 6 0.201267 0.124391 0.0604334 0 3 -5 
7635 5 0.693818 0.106526 0.0396209 -2 2 6 
5342 6 0.920794 0.100979 0.036602 -5 8 6 
8976 6 0.0807897 0.156465 0.0505901 -1 -4 3 
8958 5 0.35416 0.165286 0.977693 4 -1 -2 
5704 6 0.937891 0.112388 0.0859397 1 3 -1 
8523 5 0.195471 0.198851 0.0760319 0 0 3 
8116 6 0.112337 0.199019 0.0363336 1 -2 -1 
8429 5 0.831984 0.187914 0.00973449 -1 -4 2 
5985 5 0.803594 0.200942 0.0465195 6 -2 4 
5261 6 0.926672 0.247336 0.0412816 1 1 -2 
5416 5 0.135442 0.254279 0.0515628 -2 1 0 
6651 6 0.289479 0.23572 0.0414618 0 -2 2 
6181 6 0.756356 0.27072 0.0465114 3 0 0 
7351 5 0.0711033 0.292324 0.044867 0 0 4 
7734 6 0.152251 0.331863 0.0149241 2 2 5 
5815 6 0.793327 0.298944 0.0464312 4 -1 0 
6364 5 0.207864 0.366537 0.0168462 1 0 -4 
7380 5 0.302804 0.37831 0.0408961 -6 4 4 
8927 6 0.485917 0.399127 0.0495124 3 4 -1 
6136 5 0.66615 0.402991 0.0296552 -3 1 1 
5951 5 0.211655 0.450028 0.0461024 4 3 3 
5868 6 0.746528 0.437819 0.0312675 -3 6 0 
8683 5 0.953293 0.451358 0.0553447 -2 0 -9 
5862 5 0.0917436 0.4961 0.0646011 4 2 -2 
8166 5 0.408751 0.446563 0.0344602 -1 1 -1 
7951 6 0.704045 0.548609 0.035582 2 -6 1 
5191 6 0.211348 0.486708 0.0384157 1 2 -1 
5805 6 0.723101 0.523163 0.0223918 2 5 -3 
8479 5 0.0321886 0.603991 0.00706862 2 -2 1 
5006 6 0.158258 0.599354 0.0205292 4 -1 -1 
5708 5 0.428012 0.561862 0.0113942 1 -2 4 
6809 6 0.492173 0.598127 0.0411888 5 0 4 
6497 6 0.530039 0.631965 0.0719065 3 -4 -1 
5218 6 0.201469 0.618037 0.040613 8 3 0 
5808 5 0.922463 0.612384 0.0368886 3 -2 -1 
6353 5 0.0655578 0.653598 0.0108084 -4 -1 4 
8396 5 0.0343716 0.667484 0.995832 5 4 -3 
7827 6 0.0488388 0.708641 0.0463598 0 0 1 
6624 6 0.261981 0.673825 0.044798 0 -3 -4 
7649 6 0.26362 0.658908 0.0215108 5 7 7 
7487 5 0.437059 0.695649 0.0312126 5 -2 -3 
7394 5 0.64472 0.734141 0.0260237 0 -2 3 
7714 6 0.97345 0.700782 0.0392176 -2 2 1 
8681 5 0.314485 0.681193 0.0236534 3 -1 1 
5273 6 0.51809 0.715377 0.0197135 -3 4 1 
5920 5 0.0333394 0.768531 0.0395396 5 2 -4 
7593 6 0.285697 0.763899 0.0262463 3 1 -4 
5881 6 0.382574 0.746718 0.0314434 1 -4 -7 
6113 5 0.442484 0.754681 0.0225315 -1 5 0 
8296 6 0.654405 0.800192 0.0188568 -1 3 3 
6957 5 0.785435 0.796193 0.0193448 -2 -2 -4 
8397 5 0.22415 0.782725 -0.000522847 -1 2 6 
8309 5 0.64822 0.797151 0.0384332 -3 2 6 
7142 6 0.739233 0.761542 0.0346161 1 1 1 
6714 5 0.163423 0.786093 0.0138038 -2 -6 4 
8418 6 0.23674 0.7766 0.0487392 4 -6 -1 
6909 6 0.541109 0.784392 0.0428219 -5 0 3 
5017 5 0.674865 0.766665 0.0124413 3 -4 2 
5459 6 0.305649 0.858011 0.0486107 0 -4 3 
8950 5 0.795879 0.840633 0.0168032 -3 3 1 
8467 6 0.145892 0.87483 0.0543927 -1 -7 -2 
8285 6 0.661113 0.865284 0.0229208 0 -3 1 
5987 5 0.679163 0.926458 0.0293294 1 0 2 
7966 5 0.89419 0.901538 0.0357067 1 11 2 
6784 6 0.134178 0.960903 0.0328406 -6 0 1 
8813 5 0.0394552 0.949761 0.0198716 -1 -4 0 
6357 6 0.105874 0.969917 0.0371246 1 -7 1 
5741 5 0.909515 0.983041 0.0362528 -1 -1 3 
5810 6 0.174779 0.994636 0.997429 -4 -1 0 
8583 5 0.489389 0.994175 0.0493195 2 -5 -1 
6762 6 0.862187 0.00485263 0.0277306 -2 3 0 
6123 6 0.0126948 0.0120694 0.0307032 5 -2 -1 
6362 6 0.331211 0.0486472 0.0637299 -2 2 4 
6024 6 0.513185 0.0187347 0.0254926 1 3 4 
5725 6 0.548191 0.992932 0.0714335 0 1 5 
8537 5 0.910799 0.00213081 0.0400808 3 1 -2 
5366 5 0.401142 0.027473 0.0611259 2 2 -2 
7708 6 0.308709 0.0553286 0.0413148 0 1 1 
6143 5 0.88975 0.102259 0.0530576 3 0 4 
8907 6 0.128975 0.0921133 0.06963 0 4 -1 
8765 6 0.362778 0.110381 0.0560394 -1 -1 -1 
8783 5 0.501371 0.0995102 0.0795033 -1 -2 0 
8744 6 0.663792 0.112852 0.0645645 4 0 4 
6843 5 0.629986 0.151972 0.0636521 -5 6 1 
8176 6 0.878298 0.136006 0.048367 1 0 -2 
8300 5 0.129768 0.18685 0.0383547 -2 4 4 
8471 6 0.16481 0.171708 0.0509047 0 1 3 
8412 6 0.168129 0.168129 0.0400706 4 -6 -2 
6438 6 0.903317 0.187929 0.0956901 -2 -3 1 
7690 6 0.233975 0.190631 0.0324454 -4 0 2 
5848 6 0.207811 0.264069 0.0545175 0 1 4 
7785 6 0.878173 0.24344 0.0448431 -3 3 1 
7953 6 0.965225 0.221786 0.0477033 1 2 -1 
6126 6 0.363532 0.255362 -0.00317963 1 -2 -3 
6921 5 0.639328 0.231172 0.060013 1 -4 -1 
7647 5 0.875549 0.28432 0.0448401 0 0 -1 
5915 5 0.990668 0.284277 0.0738097 -3 1 4 
8737 6 0.559849 0.279042 0.0456593 4 -2 4 
8438 6 0.866951 0.32093 0.0747813 2 -2 -2 
5025 5 0.266195 0.391819 0.0295251 -3 -3 -1 
6758 6 0.211741 0.367233 0.0935111 2 -3 0 
6188 6 0.127893 0.362292 0.0584518 1 0 1 
6245 5 0.186495 0.3088 0.0147973 -4 3 1 
5689 6 0.263503 0.362816 0.0596522 5 -1 -2 
8580 5 0.216036 0.349436 0.0521408 1 -1 0 
5935 6 0.9061 0.406808 0.0510886 0 -1 0 
7753 5 0.698259 0.418188 0.0280891 0 1 0 
8370 5 0.954166 0.367182 0.05123 -5 -2 0 
8347 5 0.556316 0.456024 0.0669388 -1 1 3 
7184 5 0.307407 0.456129 0.0545577 0 -2 4 
8423 6 0.626433 0.464191 0.0340154 -2 2 -4 
8918 6 0.361716 0.47735 0.0827425 1 -1 2 
6997 5 0.305566 0.473064 0.0301942 -1 -1 2 
7758 5 0.585805 0.482961 0.0335502 -4 -2 -3 
8225 5 0.863989 0.537465 0.0783381 1 -1 -4 
5278 5 0.0407406 0.529356 0.0295619 0 1 0 
6525 6 0.169692 0.567828 0.0414363 -2 3 1 
5616 6 0.530007 0.586016 0.0719182 0 -1 0 
5618 6 0.529559 0.573309 0.0820407 5 -3 -1 
6946 5 0.974116 0.578594 0.0388044 0 -2 -3 
6601 5 0.856937 0.576165 0.0630534 3 1 2 
8072 6 0.239984 0.619785 0.0728677 0 1 -5 
8687 5 0.919796 0.65511 0.0725317 -1 2 3 
6706 6 0.494206 0.673542 0.0498025 2 -2 -3 
7209 5 0.229863 0.708038 0.0902635 3 5 -2 
7876 6 0.670711 0.705142 0.087706 1 0 -2 
8235 5 0.101574 0.758522 0.0498864 -2 -5 -1 
7545 6 0.239639 0.807298 0.0579953 -1 -4 0 
7231 5 0.569619 0.779076 0.022774 -1 2 -1 
6462 5 0.629437 0.744602 0.0896961 9 5 -1 
6363 6 0.763582 0.73963 0.0589409 -4 0 0 
6238 6 0.907402 0.710978 0.0586689 -2 -2 0 
7570 6 0.283565 0.794067 0.0342847 -4 1 0 
7329 5 0.3212 0.787565 0.0250997 -1 -4 -1 
6293 5 0.465589 0.779411 0.0714945 3 1 -1 
5031 6 0.529045 0.824181 0.0329865 4 2 2 
6603 5 0.586017 0.771518 0.0505944 -2 0 1 
7486 5 0.73466 0.834769 0.0540694 1 -3 1 
7573 6 0.334432 0.861325 0.0542994 -1 -3 1 
8739 5 0.171033 0.848426 0.101777 -3 2 2 
8957 6 0.183551 0.903429 0.0479017 1 -1 -1 
5995 6 0.482462 0.845766 0.0289546 -1 -3 1 
5107 6 0.605244 0.859973 0.0586014 5 3 1 
5229 6 0.0544019 0.890159 0.0215078 -1 -1 -2 
5211 6 0.779252 0.928199 0.10099 -7 -5 1 
6984 5 0.0358784 0.977027 0.0669124 -2 -3 -5 
6860 6 0.0596847 0.962811 0.0645709 0 0 4 
8459 6 0.123561 0.957447 0.0639485 0 1 -2 
7624 6 0.401794 0.0218016 0.0505078 -3 -1 -2 
7447 5 0.123366 0.0513504 0.0834842 -4 -2 3 
7806 5 0.597808 0.0746721 0.0472602 -6 -4 -4 
6040 5 0.590052 0.0688453 0.0926698 6 0 0 
7261 6 0.130227 0.071438 0.102271 -2 -6 3 
8931 5 0.509984 0.0691704 0.0800739 -1 3 1 
5669 5 0.648598 0.111757 0.0481826 -1 1 1 
7263 5 0.714746 0.0565739 0.0572714 -2 -5 2 
6377 5 0.757427 0.0938432 0.031982 -7 1 3 
5290 6 0.970287 0.0999279 0.0457352 1 2 -5 
6114 6 0.0475902 0.148809 0.0714315 0 5 0 
7455 6 0.0720064 0.0248648 0.110917 1 -4 6 
7889 6 0.170785 0.13281 0.0641055 3 6 2 
5491 5 0.132879 0.123224 0.0537993 2 1 -5 
8407 5 0.344958 0.112621 0.0703161 1 -2 -1 
5221 6 0.382355 0.134992 0.0695012 -2 0 4 
5355 5 0.522534 0.100884 0.0727643 -1 4 5 
6279 6 0.816658 0.123629 0.0806686 0 6 2 
7478 5 0.782674 0.175388 0.0576951 -5 -2 1 
5037 6 0.801988 0.162845 0.0949117 -2 1 0 
6093 5 0.114942 0.143719 0.105642 -2 -6 3 
8805 5 0.217888 0.169966 0.0696095 -1 -3 -1 
8542 6 0.509571 0.174248 0.0721343 -1 0 -1 
6506 5 0.0348768 0.194098 0.0840795 8 2 0 
5194 5 0.121415 0.197433 0.0572984 -3 -1 3 
8350 5 0.202016 0.209488 0.0915853 -2 -2 4 
7644 6 0.34362 0.195557 0.0900656 -3 1 -3 
7449 6 0.682526 0.217857 0.0676334 3 2 -2 
5933 5 0.185779 0.206791 0.0853733 0 1 -4 
5448 5 0.202821 0.293525 0.107564 3 1 6 
8230 5 0.677373 0.238967 0.11867 2 0 -2 
7243 5 0.859357 0.222169 0.0612238 1 -1 -1 
8595 6 0.709518 0.233672 0.0856844 1 3 -5 
8803 6 0.803535 0.248369 0.0660723 2 1 2 
6760 6 0.167028 0.288968 0.103275 0 6 -4 
6794 5 0.898854 0.294946 0.0969681 -1 -1 4 
8910 5 0.963876 0.323326 0.0703307 3 -2 3 
5403 6 0.242115 0.32538 0.0951361 -4 3 0 
7475 6 0.474345 0.324649 0.0626867 0 -6 2 
5766 6 0.00909808 0.362251 0.0654829 -5 5 0 
6397 5 0.424639 0.328596 0.0936508 -2 -2 6 
7437 5 0.845344 0.367602 0.0739171 -8 10 0 
5394 5 0.282285 0.370802 0.0870485 -1 4 0 
6857 5 0.641788 0.382826 0.063022 0 -1 -3 
8547 5 0.163783 0.421968 0.0439687 -2 -6 -3 
7810 6 0.763887 0.394909 0.122567 5 1 4 
7939 5 0.856898 0.433465 0.0569788 -1 2 0 
6067 6 0.612528 0.442842 0.116902 4 5 3 
7220 6 0.642349 0.439563 0.0347934 4 3 -2 
8899 5 0.171711 0.531735 0.0933557 0 1 -1 
6670 5 0.187985 0.535044 0.0576861 -3 -2 2 
7374 6 0.639867 0.528486 0.0556337 -1 4 -1 
5376 6 0.169526 0.605875 0.0526432 3 -5 -1 
6659 5 0.164994 0.562668 0.0736399 -1 2 -1 
6108 6 0.401126 0.603384 0.0729979 -6 1 3 
8042 5 0.473416 0.554036 0.0378109 -3 -2 -6 
5124 5 0.702837 0.551751 0.0729396 -1 1 1 
8961 6 0.167687 0.588856 0.104367 2 4 5 
8150 5 0.610337 0.590413 0.0942905 0 0 6 
6130 5 0.760976 0.620387 0.0772917 -2 -1 -1 
5256 6 0.0859202 0.65966 0.104226 4 -5 2 
8584 5 0.445185 0.659789 0.0797646 0 -1 -1 
5865 5 0.87989 0.697445 0.0625702 4 -7 -1 
7189 5 0.340985 0.705691 0.0588136 2 5 2 
7610 6 0.0358716 0.754207 0.0831937 1 1 0 
8943 6 0.119883 0.769959 0.0861351 -5 -2 1 
5085 5 0.0874872 0.786266 0.112992 0 -1 -4 
7250 6 0.327282 0.771685 0.0952986 0 3 0 
7936 6 0.341274 0.808244 0.0688753 -1 -1 -2 
5493 5 0.539447 0.770419 0.0940299 -2 1 -1 
6378 6 0.511735 0.801707 0.107697 -1 -6 1 
6963 6 0.813056 0.798673 0.0789479 1 -2 -5 
6374 6 0.938697 0.804425 0.0596699 -2 0 3 
5958 6 0.105142 0.780748 0.114234 1 4 2 
5775 6 0.174631 0.818715 0.104588 -4 6 -2 
6446 6 0.300587 0.802343 0.0951993 2 -5 0 
8075 5 0.736646 0.855643 0.0763601 2 -3 8 
5979 5 0.931373 0.884355 0.108038 -1 -2 -2 
8920 6 0.282772 0.866163 0.0970086 -4 3 2 
7969 5 0.387716 0.857627 0.0931648 5 2 -2 
6406 6 0.397535 0.890491 0.0593577 0 -3 6 
6723 5 0.628456 0.900118 0.0494547 4 -3 2 
5688 5 0.572661 0.899103 0.0897533 5 -4 5 
6310 6 0.758428 0.917876 0.113482 -3 -1 -2 
8916 5 0.996984 0.8948 0.088405 -2 -5 -2 
7536 5 0.599994 0.953367 0.0898158 3 -1 0 
7855 6 0.771827 0.985612 0.0824259 3 3 -3 
6964 5 0.316198 0.00625093 0.0950986 -3 2 2 
7551 5 0.343543 0.0223844 0.112522 3 -4 5 
7550 6 0.513944 0.0680688 0.105872 -2 0 2 
5457 5 0.544101 0.0761424 0.124367 0 0 2 
6250 6 0.191396 0.0902437 0.0610967 2 -2 -2 
7559 6 0.368604 0.100029 0.119043 -1 5 1 
8663 5 0.362475 0.11052 0.123556 -4 0 1 
8247 6 0.699716 0.103796 0.0991811 -3 -1 3 
8383 5 0.823272 0.104211 0.0769447 4 2 2 
5525 6 0.838245 0.0597287 0.0969214 -3 4 1 
8039 5 0.428638 0.0863074 0.119441 -1 -2 0 
7295 5 0.408569 0.160055 0.0683814 5 4 0 
7067 6 0.607841 0.113547 0.0862668 1 -4 0 
8608 5 0.0366164 0.127424 0.11152 -2 2 1 
5918 6 0.602109 0.135193 0.106773 -1 1 4 
7729 6 0.597875 0.119938 0.125132 2 5 4 
5241 5 0.831728 0.151346 0.0814448 -5 -1 0 
7498 5 0.159633 0.207483 0.0905643 -3 5 6 
5046 6 0.025018 0.15435 0.134737 5 2 5 
7226 6 0.973955 0.194997 0.0993563 1 1 2 
7698 5 0.948543 0.175625 0.0919966 4 0 -3 
7584 6 0.163507 0.24729 0.0933292 -3 1 -5 
8478 5 0.557839 0.221342 0.104527 1 3 0 
7914 6 0.00756396 0.22186 0.0865131 4 0 3 
6803 5 0.0988422 0.231483 0.117388 -1 -2 2 
5646 6 0.225136 0.242979 0.113746 1 4 -4 
8791 6 0.980358 0.225198 0.0850397 -1 -3 -1 
8184 5 0.189763 0.285056 0.126113 2 -2 1 
5381 5 0.314326 0.266357 0.103981 1 6 -2 
7937 5 0.359936 0.218392 0.0988086 5 -2 -3 
7992 5 0.711612 0.252092 0.122281 -1 2 -1 
7717 5 0.46423 0.289523 0.113866 0 -6 -4 
5508 5 0.0422568 0.338596 0.124699 5 -2 5 
5514 6 0.0418117 0.275798 0.0787299 2 -1 -1 
8682 5 0.140899 0.279124 0.051106 -1 -3 2 
8038 5 0.895985 0.354722 0.111918 -2 2 1 
8901 5 0.409157 0.383598 0.108739 -3 1 2 
6819 5 0.995998 0.397429 0.10365 -1 1 -3 
6175 5 0.780052 0.373102 0.0908179 0 -4 -4 
6066 5 0.804179 0.39302 0.0686126 0 -4 -3 
8553 6 0.673942 0.457465 0.107526 -3 -3 4 
5924 5 0.0147088 0.457611 0.0799799 -2 -1 3 
6593 5 0.490171 0.44153 0.0961328 -3 4 -5 
6092 5 0.989624 0.489924 0.079483 -1 -1 3 
5129 6 0.277255 0.460004 0.090477 3 -2 -2 
7687 6 0.490842 0.481716 0.110848 1 3 7 
5778 6 0.557642 0.520319 0.136892 0 0 2 
5854 5 0.666706 0.521018 0.0740491 -2 5 0 
6912 5 0.071141 0.490459 0.135679 2 -3 -2 
6269 5 0.224961 0.640013 0.0923079 3 0 2 
6826 6 0.519613 0.633534 0.132073 3 -6 -2 
5209 5 0.935779 0.642086 0.115543 -2 3 -3 
6617 5 0.163164 0.621498 0.12815 -5 3 -4 
5036 5 0.182356 0.687619 0.128716 1 -4 2 
7385 6 0.292132 0.637885 0.0945034 -3 2 1 
7402 5 0.791179 0.65458 0.0602691 0 -4 -4 
5624 5 0.903834 0.639137 0.132361 -2 -4 2 
8695 6 0.861426 0.663161 0.147967 -1 -1 3 
8105 6 0.080478 0.690233 0.119892 4 2 0 
6307 5 0.289871 0.68253 0.110849 1 0 -4 
6499 5 0.721415 0.687529 0.117662 4 4 4 
6574 6 0.84916 0.682111 0.0975258 -1 -2 0 
6034 6 0.854063 0.666257 0.100979 -1 2 0 
7524 6 0.325915 0.718165 0.0915222 -2 -4 2 
8419 6 0.34437 0.651531 0.0801845 -2 -2 -2 
5519 6 0.569912 0.667231 0.102461 0 -2 -1 
7392 6 0.677161 0.680568 0.105673 -3 4 3 
8539 6 0.46462 0.735052 0.131743 -4 1 -1 
7312 6 0.683875 0.6902 0.14 0 -4 4 
5028 5 0.853843 0.708795 0.10658 -4 3 2 
5832 6 0.389859 0.77089 0.0927006 -5 1 6 
5182 6 0.497873 0.752769 0.0948602 1 -3 2 
7981 6 0.759582 0.741641 0.116515 0 4 -5 
7457 6 0.918341 0.727787 0.0958284 0 5 -2 
8713 6 0.494421 0.769633 0.130889 -1 2 1 
8104 6 0.17009 0.796841 0.0791975 0 0 -1 
7574 6 0.374799 0.804608 0.0774383 2 0 -2 
5753 6 0.404896 0.843021 0.0938474 3 1 3 
5137 6 0.48049 0.856228 0.0963583 0 -1 -1 
6881 6 0.0839706 0.843436 0.0894895 0 5 -3 
6354 5 0.25175 0.852757 0.103392 -1 6 0 
6827 6 0.968352 0.847227 0.120322 1 -2 -3 
6248 6 0.18271 0.918133 0.139949 1 4 2 
6296 5 0.505329 0.881245 0.113228 -3 1 2 
8755 6 0.681915 0.872239 0.128876 -1 4 3 
6121 5 0.968726 0.912376 0.087543 2 3 -1 
5384 5 0.0366152 0.90684 0.155622 -3 -1 1 
6048 5 0.679546 0.938129 0.11764 0 -1 -1 
7824 5 0.00193939 0.948428 0.143134 1 -6 1 
5157 5 0.175861 0.928981 0.136563 -3 1 -2 
7201 6 0.576626 0.903364 0.118699 4 -9 -3 
8084 5 0.77308 0.980376 0.0913697 -8 2 0 
5303 5 0.852408 0.9516 0.109341 -2 -3 -4 
7274 6 0.786455 0.98855 0.0559719 2 5 3 
8295 5 0.47008 0.987731 0.105327 1 6 3 
5521 6 0.5886 0.977508 0.137006 5 1 5 
6266 5 0.757904 0.991545 0.0840783 -2 1 -2 
8206 6 0.715238 0.00976219 0.120699 1 -1 -1 
6476 5 0.10407 0.0407073 0.115647 1 6 2 
7301 6 0.0989444 0.0370758 0.122837 -1 1 4 
8035 5 0.0720115 0.0624784 0.149944 2 -1 2 
6327 6 0.0990489 0.0808076 0.104539 0 1 -2 
8081 5 0.635501 0.147906 0.141732 -1 3 -1 
8946 5 0.860508 0.105784 0.156388 1 0 5 
6882 6 0.109389 0.131054 0.128843 -4 -4 2 
7820 6 0.546142 0.0975987 0.113379 -5 1 2 
8940 5 0.664846 0.124587 0.141061 1 6 -3 
5836 5 0.919676 0.141444 0.109763 1 6 -1 
7887 5 0.422543 0.119572 0.102162 0 -2 -1 
6485 5 0.475597 0.131816 0.113385 3 2 2 
5997 6 0.115351 0.172807 0.14042 1 0 -3 
5481 6 0.287719 0.206219 0.125773 1 1 -2 
5269 6 0.207626 0.268457 0.137326 -1 0 5 
8009 5 0.66424 0.258577 0.113669 1 0 -3 
8994 6 0.828253 0.267639 0.127347 -2 4 -1 
7025 5 0.541212 0.27531 0.155849 0 5 -3 
6471 6 0.30626 0.310549 0.131055 2 2 3 
5422 5 0.627285 0.319087 0.131628 3 -3 3 
5662 6 0.661059 0.349865 0.134586 -5 -1 4 
6304 6 0.473561 0.322579 0.112259 2 -1 -3 
5301 5 0.533102 0.348017 0.168333 -7 1 0 
5020 5 0.123634 0.414833 0.144819 6 5 2 
6539 6 0.200086 0.44814 0.113849 -1 -2 4 
7731 5 0.464676 0.427242 0.104859 -3 -1 2 
8480 6 0.450525 0.409768 0.144018 2 5 6 
6325 5 0.666246 0.408353 0.104109 -4 1 3 
5568 5 0.258086 0.429457 0.111438 4 -5 0 
8094 6 0.294953 0.494693 0.0943509 -3 0 -1 
8928 6 0.493485 0.503204 0.0837596 2 2 -1 
7353 6 0.554898 0.451637 0.13908 1 1 2 
8497 5 0.915203 0.473603 0.123166 0 -3 -1 
8379 6 0.0302403 0.523697 0.13223 -5 2 -1 
7103 6 0.810369 0.517038 0.106924 -10 -4 6 
5904 5 0.685729 0.512859 0.136378 5 -1 -2 
8728 5 0.828788 0.530876 0.124485 1 -1 3 
5004 5 0.236588 0.541231 0.0921446 -2 2 -1 
6421 6 0.465853 0.561146 0.148664 -1 -5 -3 
7023 5 0.594635 0.554456 0.152566 0 0 2 
8794 6 0.37277 0.572131 0.0844082 0 2 4 
6521 6 0.695246 0.583522 0.0838209 1 0 2 
6668 6 0.898605 0.605756 0.128059 -2 -2 -2 
6977 5 0.561829 0.619828 0.134474 1 5 -1 
6700 6 0.996185 0.592542 0.115367 5 -3 3 
5373 5 0.0245015 0.664243 0.132585 6 1 2 
7844 6 0.0819371 0.669623 0.128814 2 5 -2 
5713 6 0.470072 0.647908 0.150997 4 -7 2 
5395 6 0.00441656 0.650628 0.139586 4 -2 3 
6370 6 0.0324572 0.677499 0.141909 0 -5 0 
6039 6 0.146256 0.663703 0.110071 0 3 0 
8447 5 0.709993 0.649319 0.13061 1 3 0 
8639 5 0.386475 0.703096 0.116394 6 2 1 
8871 6 0.60195 0.704306 0.0612793 0 -3 1 
8027 5 0.00102705 0.732916 0.131 0 3 -1 
7004 5 0.0276583 0.737127 0.116729 2 0 1 
6538 6 0.0077845 0.789228 0.167186 7 -3 0 
8481 5 0.16917 0.747833 0.127747 0 5 0 
8305 5 0.32444 0.793839 0.124427 0 -1 3 
6444 6 0.734561 0.760815 0.155167 0 3 2 
8211 6 0.624828 0.811768 0.141725 3 -1 -1 
7580 6 0.808649 0.787202 0.120095 -1 3 -2 
7532 5 0.26808 0.840575 0.113468 -6 -1 4 
5349 5 0.221085 0.815743 0.15494 1 -1 0 
7860 5 0.321314 0.82002 0.11925 3 0 -1 
8024 5 0.12599 0.887786 0.129515 4 -4 -2 
7556 5 0.823499 0.879361 0.140573 -4 3 -1 
6728 5 0.208572 0.882105 0.0811034 1 1 -2 
7011 6 0.929094 0.961342 0.131616 3 1 2 
8191 6 0.965445 0.954043 0.0749381 -3 -1 4 
7109 6 0.357361 0.936851 0.144536 2 3 1 
5515 5 0.694113 0.967873 0.111627 -4 -4 2 
6933 6 0.970449 0.988294 0.122125 4 1 -6 
8197 6 0.772504 0.996246 0.132075 -1 3 -2 
5516 6 0.270395 0.058242 0.123151 2 0 2 
6888 5 0.298768 0.0411948 0.0956618 1 0 1 
7963 6 0.86887 0.0559157 0.16327 -2 -4 3 
6478 6 0.57135 0.0765234 0.150005 2 4 2 
8722 5 0.166831 0.0920853 0.144148 -2 2 1 
6604 5 0.245762 0.123801 0.178105 5 1 -3 
7432 5 0.517844 0.0799529 0.153386 -3 0 -2 
5149 6 0.201512 0.114276 0.153332 2 -4 3 
7214 6 0.893026 0.122884 0.154264 0 -2 4 
7047 6 0.0329791 0.142414 0.136891 4 -1 3 
8113 5 0.388392 0.161216 0.115973 1 2 -1 
6299 6 0.54433 0.157824 0.108972 5 1 2 
7830 6 0.632057 0.155001 0.142847 0 0 1 
5169 6 0.980939 0.166455 0.145103 7 -2 -2 
8008 6 0.243743 0.173514 0.195509 0 0 1 
6565 6 0.447703 0.225916 0.125921 -4 2 -1 
6861 5 0.93619 0.181857 0.152646 0 5 2 
5790 5 0.0807811 0.245586 0.186414 0 -2 4 
6147 6 0.168732 0.269474 0.178732 -3 -3 3 
8218 6 0.78719 0.31673 0.168156 -5 0 0 
5018 5 0.231118 0.311545 0.132453 1 -1 -3 
7961 5 0.324251 0.334259 0.148929 -2 -1 4 
5801 6 0.503927 0.27945 0.149125 4 -1 0 
7227 5 0.487086 0.361031 0.158675 -1 -2 -3 
7287 6 0.955958 0.382068 0.164837 2 5 4 
5758 6 0.0307868 0.416558 0.145864 2 -4 -1 
7223 5 0.386229 0.377746 0.16733 -1 1 -1 
5890 5 0.429907 0.364415 0.131046 0 -5 2 
6913 6 0.544618 0.396347 0.12993 -1 -1 -1 
7515 6 0.148266 0.439274 0.116864 0 0 5 
6186 6 0.251332 0.393215 0.114876 -2 1 0 
8364 6 0.543334 0.414576 0.144627 -4 1 2 
7840 5 0.749641 0.393657 0.153669 -4 -5 2 
8047 5 0.936831 0.420415 0.140242 2 -1 -3 
8192 5 0.523651 0.471102 0.113062 0 1 -3 
7098 6 0.654841 0.453204 0.118677 -1 4 -1 
6534 5 0.770606 0.474372 0.151312 -2 2 -2 
6230 6 0.430306 0.497923 0.160785 0 -4 -2 
8795 6 0.874442 0.489997 0.145368 1 2 4 
5374 6 0.215033 0.528225 0.160394 -1 0 3 
7414 5 0.029866 0.531868 0.161897 -2 2 2 
7479 6 0.223791 0.575758 0.177943 4 -5 1 
8424 6 0.597418 0.584618 0.159182 2 0 -2 
5877 5 0.454387 0.645682 0.141354 1 -4 -5 
7677 6 0.488501 0.643866 0.125264 -1 -3 1 
7009 5 0.701396 0.645357 0.152513 -6 -6 2 
7237 6 0.56722 0.630271 0.175498 -4 2 2 
6895 5 0.928169 0.649517 0.124735 2 0 -2 
5547 5 0.301888 0.656341 0.157064 -2 -3 -4 
5095 6 0.358606 0.655362 0.145166 3 -8 2 
6665 6 0.249198 0.717858 0.165545 0 2 0 
7252 5 0.42556 0.687133 0.155539 -1 0 2 
7099 6 0.0839395 0.723753 0.172162 -2 1 1 
8175 5 0.450813 0.698296 0.143156 -2 -1 -4 
7608 5 0.722407 0.71947 0.11701 -3 -1 -3 
7061 6 0.742847 0.757099 0.120781 -5 0 -1 
7561 6 0.0155451 0.724677 0.180528 7 -1 2 
8929 5 0.164333 0.755479 0.148913 1 2 -2 
6517 6 0.547765 0.741035 0.142139 0 5 3 
5500 6 0.838513 0.693136 0.192055 3 2 4 
8425 5 0.854195 0.738343 0.12349 1 0 1 
8801 6 0.447122 0.77162 0.125207 6 -1 2 
5350 5 0.191636 0.772567 0.129371 0 -4 -4 
6614 5 0.0467865 0.815538 0.161696 -4 2 -2 
8890 5 0.0219171 0.841729 0.136128 -1 3 4 
7979 6 0.290322 0.834741 0.133896 -1 -2 0 
7097 5 0.529514 0.801219 0.175424 -1 -4 5 
5747 5 0.841427 0.860699 0.123151 2 -2 7 
7258 6 0.569398 0.867147 0.170938 1 1 -4 
7318 5 0.70091 0.870452 0.173597 -1 -1 3 
8947 5 0.517528 0.886704 0.131089 1 -3 0 
8053 6 0.532769 0.87858 0.121153 1 -3 8 
5626 6 0.670617 0.890937 0.154305 2 5 -2 
6903 6 0.0215903 0.947063 0.134352 -3 1 2 
6929 6 0.197164 0.992268 0.155919 0 -2 -5 
5629 6 0.545804 0.949808 0.116398 -2 -3 1 
8587 6 0.996311 0.945411 0.123728 2 6 3 
8281 6 0.338109 0.96888 0.13877 3 -2 -2 
7976 6 0.825145 0.938856 0.166753 3 2 0 
5960 5 0.341629 0.963148 0.156671 -2 -3 5 
8591 6 0.59145 0.016918 0.181664 -1 -2 1 
8096 6 0.212769 0.974587 0.171082 -3 6 2 
7239 6 0.461224 0.0213077 0.177699 2 -5 -3 
7428 5 0.575939 0.993128 0.190084 2 -3 -4 
7648 5 0.873359 0.0402476 0.165276 -1 -3 -2 
5798 6 0.98752 0.0371496 0.161757 0 0 1 
8444 6 0.140666 0.0518431 0.143895 0 4 1 
5667 5 0.240859 0.0493548 0.175499 3 -2 0 
6678 6 0.459092 0.0747724 0.165624 5 2 4 
5788 6 0.496672 0.0536184 0.200549 4 2 3 
8774 5 0.690528 0.0173172 0.17203 -1 0 1 
8174 6 0.726516 0.0863788 0.153951 4 0 5 
7086 6 0.178048 0.065359 0.113517 2 9 -1 
5767 5 0.381817 0.105152 0.179175 5 2 3 
5377 6 0.754776 0.154003 0.17742 -1 0 -1 
8317 5 0.0877603 0.153905 0.162497 -2 -3 5 
6371 6 0.165719 0.102472 0.165056 0 -1 5 
8124 6 0.730119 0.110632 0.192471 3 0 -1 
7833 6 0.786439 0.153164 0.186414 4 1 1 
6547 5 0.227298 0.175155 0.155425 2 0 -6 
6643 5 0.581608 0.127325 0.170462 -2 2 3 
7060 6 0.799471 0.167709 0.1867 -5 -5 3 
7788 6 0.238714 0.212972 0.182369 2 1 0 
8507 6 0.269741 0.17929 0.152866 -1 3 4 
6311 6 0.147683 0.224243 0.172042 2 0 -4 
7077 6 0.283131 0.19819 0.156996 -2 -3 -1 
5489 6 0.485735 0.20315 0.194638 -1 0 2 
6554 6 0.715161 0.201316 0.194689 -4 1 -2 
8993 5 0.743658 0.192622 0.150686 -2 2 -1 
7408 5 0.780741 0.215656 0.186602 -3 0 0 
6701 5 0.068747 0.212503 0.161821 2 2 -2 
8179 6 0.70333 0.249617 0.163897 1 0 0 
5442 5 0.0098293 0.272583 0.124149 2 2 -1 
6576 6 0.631069 0.257102 0.151226 -1 2 0 
7096 5 0.471987 0.301757 0.147733 1 -1 3 
6228 5 0.612963 0.303125 0.155363 4 1 1 
6607 6 0.209623 0.307748 0.163273 -1 -1 4 
6106 6 0.307156 0.302803 0.164378 0 -8 0 
8136 6 0.617604 0.337276 0.214225 -5 3 -2 
8237 6 0.860363 0.393442 0.147926 -4 -4 -3 
8926 5 0.742416 0.373311 0.170519 5 2 -2 
8489 5 0.878483 0.413233 0.164649 0 -1 3 
8256 5 0.96193 0.413918 0.161622 0 -4 -3 
5674 5 0.0154629 0.448593 0.143186 0 0 3 
7519 6 0.113721 0.448546 0.171353 4 -4 -2 
8860 6 0.55665 0.459474 0.174359 -3 2 -5 
8114 6 0.600357 0.472263 0.137339 -2 0 4 
5659 5 0.656458 0.409659 0.115946 0 3 5 
6138 6 0.330924 0.476706 0.212443 0 4 5 
7882 5 0.576158 0.479249 0.165962 -4 4 2 
8431 6 0.648134 0.542857 0.173324 4 5 -1 
7798 6 0.705636 0.563432 0.172157 -4 2 -2 
6466 6 0.194445 0.6072 0.145707 2 -1 4 
8016 5 0.389057 0.585909 0.198566 6 -1 5 
7818 6 0.436805 0.592623 0.224059 -2 4 -3 
8005 5 0.451368 0.541168 0.185502 0 0 0 
7166 6 0.848309 0.559538 0.154803 0 1 6 
8823 6 0.0820206 0.596884 0.183654 1 3 4 
6627 5 0.298413 0.60276 0.193061 4 -3 4 
5453 5 0.673353 0.583759 0.158997 -3 0 3 
6333 6 0.842429 0.600377 0.15984 5 5 1 
5779 5 0.385517 0.619506 0.160856 -2 5 -6 
7327 6 0.727323 0.646867 0.170991 3 4 -2 
5066 5 0.792445 0.645371 0.206813 -1 -5 -1 
6239 5 0.638591 0.648141 0.161892 2 1 1 
7535 5 0.0351642 0.714283 0.195232 2 -3 -2 
5656 5 0.216873 0.700266 0.191913 3 -5 4 
8972 6 0.423648 0.704873 0.170386 -1 -4 2 
7565 6 0.141412 0.727757 0.204311 0 1 0 
6908 6 0.19016 0.736235 0.193672 2 -4 -5 
7679 6 0.876739 0.746659 0.184437 -1 2 1 
7941 6 0.185594 0.695183 0.192454 3 -1 5 
6841 5 0.621953 0.775215 0.185767 2 -3 3 
7587 5 0.846786 0.760727 0.202731 -5 0 6 
7015 5 0.570284 0.760899 0.156838 -1 -3 -1 
5841 6 0.85083 0.730033 0.147464 -4 0 1 
6217 5 0.464062 0.760132 0.164002 0 -1 -1 
5369 5 0.578991 0.770068 0.160465 -1 -1 0 
7564 5 0.346027 0.820523 0.151686 -1 -2 -2 
8817 6 0.439378 0.794736 0.156585 -4 -2 -5 
5424 6 0.532237 0.81325 0.155884 3 -3 3 
5814 5 0.938822 0.823056 0.215345 -4 2 -2 
8711 5 0.93969 0.837945 0.204561 -3 -4 -2 
5835 5 0.336693 0.852216 0.191282 3 1 3 
5485 5 0.351331 0.839821 0.152473 4 -5 0 
6845 5 0.567442 0.884596 0.168352 -4 2 0 
6153 6 0.801871 0.81979 0.159859 -1 -2 -1 
6055 5 0.574577 0.885161 0.190526 -2 0 2 
5371 6 0.742018 0.922893 0.193123 0 -5 3 
5247 5 0.865023 0.90815 0.174761 0 1 4 
5594 5 0.161622 0.923663 0.18659 0 -1 1 
6407 6 0.644004 0.926965 0.153102 -8 0 -8 
5327 5 0.862782 0.925602 0.154236 -2 -4 -2 
6752 6 0.0723599 0.950931 0.172767 1 1 -3 
8212 5 0.703328 0.942284 0.14896 2 0 -2 
8677 5 0.797712 0.948384 0.179962 -4 5 0 
8353 6 0.451163 0.95669 0.181137 -1 -2 -2 
6399 6 0.897418 0.977088 0.216551 -7 0 -3 
7911 6 0.0608315 0.0569235 0.198655 2 -4 -2 
5760 5 0.349289 0.0175656 0.213985 1 3 2 
7800 5 0.484921 0.052407 0.171577 1 0 8 
5751 5 0.818374 0.0400064 0.179192 0 2 -4 
8650 5 0.133619 0.0491502 0.192483 -2 0 -1 
8669 5 0.111472 0.0350911 0.197721 3 0 0 
7006 6 0.69228 0.094105 0.180866 -5 1 2 
7994 6 0.787878 0.0741339 0.19928 0 3 -1 
8250 5 0.201691 0.140961 0.176314 6 -2 1 
5896 6 0.356634 0.117979 0.209184 -1 -1 -1 
7346 6 0.464019 0.146618 0.171513 -11 -1 -2 
7790 6 0.606769 0.133363 0.173478 -1 2 -2 
7149 6 0.106679 0.137838 0.198643 -5 0 2 
5232 5 0.49262 0.158241 0.204801 2 -1 4 
5513 6 0.544435 0.154255 0.183396 -3 4 0 
6703 5 0.895057 0.130172 0.201247 -2 -2 -4 
5488 6 0.930203 0.190427 0.209233 0 2 0 
8087 6 0.671806 0.183685 0.205766 6 -2 2 
7752 6 0.481184 0.211971 0.237678 5 1 0 
7598 6 0.0781544 0.216429 0.226531 0 0 -2 
8836 6 0.638957 0.250618 0.212431 -2 0 -3 
8769 6 0.5267 0.306446 0.190396 0 -4 3 
6566 6 0.603511 0.243415 0.194583 5 4 -1 
5119 5 0.683546 0.258282 0.182914 -2 -1 -4 
7228 6 0.959845 0.272416 0.221872 -4 0 6 
8866 6 0.0441665 0.268943 0.208026 -4 3 2 
6672 6 0.0238974 0.298331 0.21621 -1 3 -4 
5930 5 0.102044 0.254931 0.218415 -1 -1 -1 
6398 5 0.21802 0.283643 0.207081 4 -3 0 
6628 5 0.275449 0.306554 0.179276 -1 -2 4 