ITEM: TIMESTEP
20000000
ITEM: NUMBER OF ATOMS
9000
ITEM: BOX BOUNDS pp pp pp
-75 75
-75 75
-75 75
ITEM: ATOMS id type xs ys zs ix iy iz 
6987 5 0.15458 0.0406023 0.0125697 1 -2 2 
7654 5 0.425941 0.0367415 0.00515317 1 4 3 
7480 6 0.733109 0.0349894 0.017384 -4 2 -2 
6930 5 0.278206 0.0504666 0.0362545 -1 0 -1 
7813 6 0.757062 0.0687939 0.971006 1 -1 -3 
6216 5 0.175389 0.104731 0.983692 0 5 2 
6668 5 0.156816 0.114539 -0.00222188 5 -3 3 
7194 6 0.441498 0.070298 0.0241478 -2 1 6 
8413 5 0.516508 0.16626 0.982655 2 -1 -4 
8719 6 0.263534 0.191337 0.0212781 -1 -6 2 
8452 6 0.391173 0.186598 0.0329969 2 3 -2 
7745 5 0.420164 0.164687 0.996751 4 -2 0 
7024 6 0.203728 0.194327 0.99025 0 0 0 
6141 5 0.222088 0.183437 0.993751 0 1 4 
8529 6 0.848506 0.232648 0.991291 -3 -1 5 
6641 6 0.925753 0.24894 0.0224063 -4 -3 4 
7697 5 0.202016 0.295429 0.0180295 0 -1 -1 
5071 5 0.538955 0.238393 0.996601 4 0 -5 
7908 6 0.962343 0.267411 0.975788 -5 1 1 
6957 6 0.170437 0.28467 0.996448 -1 0 -1 
7174 6 0.312774 0.246945 0.978733 2 1 -6 
6852 5 0.702976 0.295007 0.99927 7 -3 2 
8850 5 0.735572 0.313723 0.00420929 -3 2 4 
8165 6 0.678517 0.267744 0.98832 -3 2 -5 
6061 5 0.86576 0.276659 0.995307 -5 3 -3 
7215 6 0.321961 0.307469 0.016942 1 2 -3 
5820 5 0.738045 0.328091 0.996977 -1 0 -2 
8651 6 0.943989 0.332394 0.0238104 1 4 1 
6530 5 0.241027 0.35164 0.981538 2 3 -1 
7864 5 0.316583 0.359449 0.0195874 6 2 -2 
5650 6 0.490455 0.339869 0.997743 -3 1 5 
5659 6 0.106755 0.349651 0.981554 4 5 0 
8799 5 0.211839 0.396901 0.0495617 2 2 -1 
6458 6 0.346531 0.342602 0.0112398 -1 4 -2 
6094 5 0.500512 0.420827 0.046551 0 0 -4 
7343 6 0.771088 0.405116 0.00929639 -3 -2 0 
5802 6 0.431643 0.457438 0.0273767 2 2 -1 
7865 6 0.562241 0.513729 0.0199484 4 4 6 
5911 5 0.541701 0.453981 0.967765 -3 1 1 
8056 6 0.684678 0.488454 0.0409757 -4 6 5 
7606 6 0.741545 0.480317 0.987607 4 2 3 
5751 6 0.999181 0.503624 0.00446995 0 0 1 
5484 6 0.100357 0.498863 0.0245478 -1 3 1 
5363 5 0.312557 0.524662 -0.000265634 4 2 2 
5530 5 0.44462 0.535094 0.0233378 1 3 -3 
6224 6 0.599366 0.493322 0.993586 2 -4 2 
8435 5 0.256509 0.603907 0.978174 0 -6 5 
7709 6 0.588391 0.579299 0.974246 1 2 0 
7141 6 0.222107 0.613643 0.986717 2 2 -2 
5695 6 0.230985 0.628565 0.0546382 -3 -1 3 
7042 5 0.294379 0.605507 0.995312 3 1 -1 
6517 5 0.644127 0.596008 0.00269594 -1 0 0 
8426 5 0.993341 0.602047 0.994535 1 0 2 
6515 5 0.203125 0.647085 0.993199 -2 1 -5 
8360 6 0.204577 0.648596 0.0170387 4 -2 0 
7576 6 0.648572 0.637687 0.00846 3 -2 0 
6818 6 0.693535 0.682723 0.012187 1 -2 4 
5792 5 0.408074 0.721415 0.0278674 1 3 1 
6052 6 0.843629 0.697929 0.0143691 3 -2 0 
5957 6 0.233596 0.729607 0.0402423 -4 2 2 
5590 5 0.26331 0.703663 0.980321 8 2 1 
5459 5 0.326967 0.750946 0.03477 0 1 -2 
7366 6 0.377995 0.748119 0.0412031 -4 2 -4 
7352 5 0.426471 0.768826 0.000407133 3 -6 2 
8603 6 0.831586 0.715489 0.985836 -3 0 4 
6497 6 0.214574 0.736007 0.979677 3 2 2 
6745 5 0.561182 0.777479 0.0461175 3 0 3 
8023 5 0.652208 0.762003 0.952959 3 1 -1 
6475 5 0.784113 0.814645 0.0312379 -2 -3 3 
8519 6 0.898337 0.804666 0.0186118 2 -1 -3 
7233 5 0.856022 0.84215 0.028541 -1 -4 4 
7151 6 0.433137 0.873477 0.0129682 1 3 0 
6790 5 0.586323 0.857699 0.0139328 3 2 -1 
7403 6 0.86203 0.892953 0.0216228 -1 1 6 
7601 6 0.876686 0.859341 0.973424 1 -4 0 
6787 5 0.19294 0.883559 0.00991193 2 -3 -2 
8292 6 0.512422 0.888703 0.0432614 1 -5 -3 
7464 6 0.876628 0.90082 0.989541 -1 -2 1 
5490 6 0.33593 0.899375 0.977086 -1 -2 3 
5941 6 0.341444 0.887283 0.995077 -2 -2 4 
8146 6 0.501568 0.926998 0.0416098 0 -4 0 
7056 5 0.776249 0.919954 0.00397375 -1 -2 0 
5256 5 0.840482 0.953934 0.995421 -1 0 2 
6239 5 0.0502768 0.966095 0.0411951 6 -3 -3 
7746 6 0.26885 0.951477 0.0327086 3 -4 1 
6770 6 0.279317 0.937477 0.0268939 2 3 -1 
6816 5 0.645985 0.952902 0.994053 2 -2 -8 
7619 6 0.181546 0.00997678 0.969549 -1 1 -1 
7430 5 0.785295 0.960589 0.00893846 -5 4 1 
8700 5 0.866049 0.973074 0.0229526 1 -1 1 
8745 5 0.952711 0.983528 0.0809676 -2 -2 -3 
7802 6 0.206179 0.0231879 0.0337707 -5 3 0 
5043 5 0.337936 0.00861162 0.0407103 2 3 1 
8089 5 0.361224 0.976005 0.0632177 -4 -2 0 
7559 6 0.781501 0.99007 0.0721271 0 3 1 
5237 6 0.833436 0.0236114 0.0366998 2 -2 2 
6111 6 0.324022 0.0852281 0.054388 0 0 1 
6614 5 0.626077 0.089919 0.0267687 -1 4 4 
5608 6 0.932866 0.100672 0.000622557 6 -2 5 
5183 5 0.111063 0.104614 0.0292886 1 -1 1 
6300 5 0.130649 0.113788 0.0726999 1 -2 -2 
7523 6 0.219328 0.0921434 0.996479 0 1 6 
7290 6 0.462588 0.163756 0.0223566 -2 0 2 
7984 6 0.553442 0.103337 0.0625321 0 2 -3 
6330 5 0.195013 0.174867 0.0397508 0 1 -1 
6785 5 0.391854 0.156367 0.0138929 3 -4 4 
7341 5 0.515367 0.0798019 0.0128385 -2 -3 -3 
5812 5 0.661384 0.141827 0.986705 2 1 0 
5628 5 0.65739 0.17632 0.0233411 -1 -2 5 
6750 6 0.985733 0.211451 0.0181 -1 3 5 
8147 5 0.344902 0.248223 0.0121558 -2 2 0 
8873 5 0.523176 0.207289 0.0614215 0 3 -3 
7155 6 0.633854 0.24019 0.0295777 2 -4 4 
6369 6 0.90117 0.220739 0.993951 -3 4 0 
7175 5 0.0254164 0.221558 0.0362593 -6 -2 -2 
8704 6 0.0751928 0.302829 0.0328688 -1 -9 -1 
5844 6 0.629735 0.261507 0.0245095 0 -1 1 
7707 5 0.707636 0.261546 0.06661 -1 -1 -4 
8848 6 0.583776 0.292188 0.0394885 -3 0 -6 
8591 6 0.224925 0.288297 0.972612 4 0 3 
8268 6 0.754278 0.317309 0.0452526 0 1 0 
7655 6 0.532164 0.323452 0.0316621 1 -3 4 
7371 5 0.895389 0.322311 0.0669718 1 1 0 
6436 6 0.212434 0.383564 0.0371186 4 1 1 
7673 5 0.426528 0.414977 0.0201993 9 1 0 
8757 6 0.664433 0.4005 0.0161559 1 -1 9 
6746 6 0.632644 0.399134 0.0266704 2 1 4 
8880 5 0.0547754 0.428791 0.0319565 6 -1 3 
6718 6 0.668358 0.418782 0.0295054 0 -2 -2 
8245 6 0.7786 0.463199 0.0307579 0 0 0 
5958 5 0.563806 0.459108 0.0217547 -2 -3 2 
7621 6 0.212119 0.502625 0.992769 2 2 -4 
7760 6 0.968653 0.532353 0.0249189 0 1 -2 
7015 5 0.0195058 0.487419 0.0120765 0 -3 0 
7496 6 0.257245 0.509539 0.99458 3 0 0 
8368 6 0.759623 0.559907 0.0499886 3 0 -6 
7599 6 0.449998 0.558978 0.0457342 0 1 2 
6454 6 0.444503 0.517981 0.00827837 1 3 -3 
8844 6 0.654621 0.529344 0.076278 2 6 -3 
7694 5 0.116686 0.548487 0.996347 0 -5 2 
6062 6 0.44296 0.617881 0.0154619 1 -5 -6 
8439 6 0.632366 0.601213 0.00854032 4 -5 3 
5001 5 0.768217 0.558165 0.0532948 1 2 2 
8646 5 0.934545 0.622657 0.0817158 5 2 -3 
7001 6 0.184505 0.608751 0.0510755 7 0 -3 
6479 5 0.394373 0.630542 0.0672766 -2 0 -3 
8777 6 0.577777 0.634797 0.0726812 3 -5 -1 
6504 6 0.913995 0.616253 -0.000320061 -1 1 2 
7424 6 0.508757 0.681535 0.0197894 1 -5 -5 
8479 6 0.638449 0.640524 0.0256147 1 -4 -4 
5790 5 -0.00236866 0.674782 0.0157504 4 0 -1 
6540 6 0.247935 0.69277 0.051475 3 0 3 
8409 6 0.663157 0.719796 0.0313385 -1 6 -3 
5153 5 0.359856 0.719371 0.0763284 0 1 -4 
5990 6 0.790849 0.738562 0.0091835 0 -1 -3 
7600 5 0.675956 0.766704 0.00827064 -2 -5 -1 
7766 5 0.330438 0.767577 0.0214949 -1 -3 2 
7221 6 0.644997 0.799473 0.0391487 -1 -2 3 
7954 6 0.177392 0.830679 0.0192313 -1 -4 -2 
5813 5 0.45503 0.80469 0.062994 4 0 0 
6018 6 0.982685 0.841951 0.0619741 4 2 5 
8686 6 0.925358 0.888686 0.01565 0 -2 1 
5607 5 0.326704 0.89573 0.0453721 3 -3 -1 
5148 6 0.631136 0.861622 0.0398076 2 3 4 
6680 6 0.979966 0.89736 0.0432293 -8 1 5 
6258 6 0.0678094 0.882538 0.0199992 -3 3 -3 
6560 6 0.427461 0.918389 0.0422132 -3 6 0 
5631 5 0.551656 0.906913 0.0331497 0 3 0 
6669 5 0.732477 0.890182 0.970685 4 3 -5 
8978 5 0.00845219 0.913736 0.078478 1 1 -2 
5626 5 0.0662797 0.899227 0.0258011 5 1 3 
7943 6 0.448142 0.943984 0.0430185 -1 1 3 
6222 5 0.49547 0.936213 0.0534349 0 -2 1 
5599 6 0.699477 0.918801 0.993843 -2 -1 -1 
6707 5 0.714277 0.914525 0.0220184 3 -4 0 
6817 5 0.822804 0.9167 0.0283644 -4 4 -4 
7931 6 0.16058 0.915433 0.0838667 -1 0 4 
8690 5 0.915476 0.941009 0.0240162 0 0 -1 
6173 5 0.933289 0.92612 0.0143066 4 3 -1 
8336 6 0.412709 -0.0011044 0.0537043 3 5 5 
5667 6 0.669528 0.960315 0.0445509 0 -4 0 
6277 6 0.137808 0.0381781 0.0557993 -1 1 1 
8637 5 0.198521 0.989934 0.0378653 -1 0 3 
7518 5 0.514075 0.00467806 0.0420801 -6 -3 2 
7299 6 0.0807148 0.0374917 0.0951252 1 -2 2 
6291 5 0.198305 0.0344707 0.0663518 -1 5 -5 
5366 5 0.653629 0.0314741 0.0726427 -1 -6 -3 
6109 6 0.665724 0.0724837 0.0261053 1 2 4 
6714 5 0.386383 0.114012 0.0476837 3 2 0 
6861 5 0.222627 0.202534 0.0152869 1 1 -1 
8058 6 0.821043 0.180656 0.0636567 0 -3 2 
5562 6 0.95291 0.165841 0.0700785 0 4 -1 
6442 6 0.022436 0.157225 0.0872127 -2 2 2 
7364 6 0.777 0.194833 0.0811533 1 2 2 
7918 5 0.93178 0.196528 0.0624332 1 3 0 
5946 5 0.0327644 0.233525 0.056943 4 2 -2 
7316 5 0.109719 0.181498 0.0798723 4 1 -4 
8582 5 0.5276 0.213047 0.0591388 -1 1 0 
6678 6 0.865767 0.242911 0.0684555 0 1 1 
7681 6 0.0824485 0.252791 0.073893 1 1 4 
7218 6 0.170876 0.26407 0.0549225 7 6 2 
5780 6 0.185196 0.240006 0.0581613 -2 4 -2 
7111 6 0.882082 0.25332 0.0782021 1 4 8 
8553 6 0.955532 0.231027 0.0296449 -4 2 2 
7967 6 0.0922291 0.254814 0.0556875 -1 -1 4 
5799 6 0.271846 0.272205 0.0828567 -3 -2 6 
6137 6 0.316305 0.283588 0.0447818 -2 2 1 
6213 6 0.572693 0.254512 0.0309083 -3 5 4 
5951 5 0.925822 0.282403 0.0575069 2 -2 0 
8429 5 0.16235 0.277468 0.0594348 6 1 2 
5683 5 0.272086 0.309702 0.0972073 0 1 3 
7860 6 0.726282 0.32576 0.0391136 -1 6 0 
7940 5 0.741265 0.382902 0.0843868 1 -1 5 
7829 6 0.368924 0.381602 0.0900473 0 -3 3 
5481 5 0.858542 0.382134 0.0661588 2 -1 -4 
8556 6 0.459766 0.393244 0.0760015 -4 0 -1 
5887 6 0.548633 0.376256 0.061863 1 -2 1 
7982 6 0.0166649 0.444898 0.0714907 1 -2 0 
8882 6 0.333758 0.422286 0.0391541 -3 4 3 
6046 6 0.39036 0.428595 0.0982473 1 1 0 
5377 6 0.42986 0.431592 0.0476761 5 3 0 
8763 5 0.541824 0.416309 0.0478032 2 0 2 
8613 5 0.586123 0.404755 0.0666008 1 -1 1 
8626 6 0.235962 0.435517 0.0264554 3 2 -1 
6353 6 0.891381 0.429842 0.049806 2 -3 4 
6729 5 0.525315 0.475818 0.0554942 -1 -2 2 
8290 6 0.860297 0.479963 0.059897 -1 -4 0 
5110 6 0.917402 0.495677 0.0428964 -3 -4 1 
5712 5 0.5087 0.546143 0.0956538 -4 -1 -2 
7809 5 0.111306 0.506195 0.0635254 5 0 1 
7212 6 0.862657 0.48562 0.0519287 -3 -2 0 
6425 5 0.125289 0.532486 0.0826877 0 1 -4 
7400 6 0.402526 0.553158 0.0543533 -1 -1 3 
6847 6 0.566416 0.563 0.0536642 -4 5 0 
8920 6 0.811968 0.535134 0.104561 -3 -4 0 
5026 5 0.33999 0.525035 0.0473246 -1 3 -1 
8984 6 0.541904 0.57264 0.0460364 0 1 0 
5387 5 0.838489 0.568463 0.0313138 -1 -1 0 
8008 5 0.222603 0.624121 0.0241003 -3 3 2 
7463 6 0.641665 0.552118 0.077397 0 0 1 
7446 5 0.661952 0.615446 0.0543389 6 -2 3 
8500 6 0.0459532 0.614507 0.0340219 0 0 2 
7519 6 0.501243 0.615955 0.064992 -2 5 4 
5464 5 0.819376 0.630095 0.033718 1 0 4 
7772 5 0.100225 0.641967 0.0468911 -2 -2 -2 
7280 5 0.657594 0.680392 0.0668723 3 1 -3 
8227 6 0.263778 0.665423 0.0341779 0 1 3 
7010 6 0.28352 0.719826 0.0226537 -4 -4 4 
7612 6 0.239752 0.734012 0.0423746 4 -5 0 
7541 6 0.399712 0.709377 0.0458535 3 -2 1 
5728 5 0.135414 0.777876 0.0177343 1 -2 -1 
7887 6 0.916558 0.763125 0.0636695 0 5 -4 
5002 5 0.0513653 0.775739 0.0579794 1 -5 4 
8869 5 0.118003 0.772453 0.00718653 -3 3 -5 
8640 6 0.473578 0.719373 0.0610982 -2 -2 5 
7257 5 0.27652 0.760732 0.0644195 -1 -8 3 
5581 5 0.31022 0.813109 0.0374325 -1 0 -1 
8846 6 0.315173 0.787971 0.0659411 6 -5 -1 
6240 5 0.359517 0.775799 0.071244 4 0 2 
8365 5 0.601165 0.78627 0.0578428 3 -1 -6 
5527 6 0.266981 0.778921 0.036227 -1 -1 1 
8917 6 0.411776 0.820161 0.0447693 -1 -4 2 
7169 6 0.162802 0.782662 0.0612224 -2 4 2 
6119 5 0.756711 0.859594 0.0666314 1 -1 5 
7971 6 0.846339 0.843952 0.0500257 2 3 3 
8614 5 0.256175 0.93769 0.0169692 0 3 6 
8197 6 0.34911 0.916806 0.0539566 4 1 6 
8857 5 0.126554 0.88273 0.0833444 0 -1 0 
6153 6 0.863113 0.937018 0.0254765 1 -1 0 
6739 5 0.0889558 0.95574 0.107915 5 1 1 
5276 6 0.107046 0.959833 0.0745749 1 -6 1 
8803 6 0.436365 0.966327 0.0614811 -2 -6 0 
8843 5 0.786931 0.954488 0.0608408 -4 7 4 
7019 6 0.457578 0.913984 0.0699321 0 2 -1 
7043 5 0.369528 0.0151072 0.0558939 -2 -3 -1 
6793 6 0.618339 0.98955 0.0230038 -2 3 -2 
8329 5 0.73363 0.0152332 0.0811344 0 -2 0 
5981 6 0.394156 0.0431067 0.104953 2 4 3 
7749 5 0.849996 0.039358 0.0853454 2 3 3 
8074 6 0.0149532 0.0266317 0.0519601 1 -4 1 
6835 6 0.382415 0.0439549 0.103901 -2 -2 5 
8229 6 0.728117 0.083622 0.0900741 1 3 1 
8893 6 0.862747 0.0417888 0.0953387 -5 4 -2 
8782 5 0.974699 0.0581337 0.0880409 -1 -2 0 
7962 6 0.764572 0.0282449 0.0631095 -3 0 0 
5580 6 0.0395417 0.0170405 0.0755742 3 -4 0 
7610 6 0.183109 0.0714681 0.0828191 2 -2 -1 
5999 6 0.230855 0.155071 0.0865633 1 -1 2 
6060 6 0.712624 0.0661425 0.0695402 3 -4 -3 
6879 6 0.230992 0.139332 0.0750703 -5 6 3 
6513 5 0.697764 0.137665 0.0935327 -1 5 1 
7615 5 0.78032 0.124832 0.096892 1 -3 7 
6995 5 0.872418 0.11772 0.101516 -1 -3 -1 
5055 5 0.28633 0.155759 0.0574959 -3 7 2 
6892 6 0.889787 0.152218 0.0690013 -2 -2 2 
8749 5 0.34605 0.18601 0.0732831 1 -2 4 
5892 5 0.226488 0.206079 0.0410417 1 -7 -1 
7372 6 0.53289 0.20381 0.074608 -1 7 1 
5828 5 0.641196 0.184364 0.0663818 2 0 1 
6095 5 0.126787 0.231506 0.0949253 -2 -2 -2 
8902 5 0.690452 0.255942 0.0571404 2 3 -2 
8402 5 0.940154 0.265057 0.0877322 -4 4 -2 
8198 6 0.297239 0.274144 0.0737644 4 2 3 
8164 6 0.941745 0.269133 0.0649862 0 1 1 
7765 6 0.342569 0.278375 0.0714334 0 -1 0 
8648 6 0.851202 0.307607 0.0564265 -5 0 3 
6616 6 0.110529 0.375796 0.0644139 0 -3 0 
6688 6 0.678085 0.342169 0.085137 0 -1 -2 
5152 6 0.848075 0.353822 0.0416859 -1 -5 2 
5729 6 0.946139 0.345076 0.067627 6 -1 7 
6346 5 0.672581 0.335505 0.0192219 -2 3 0 
5818 5 0.64587 0.378556 0.03995 -1 0 5 
6327 5 0.0375485 0.372259 0.140961 -2 8 5 
6738 6 0.521725 0.412355 0.040992 -4 1 0 
6561 5 0.737232 0.402134 0.0767088 2 -4 -2 
7497 5 0.0946531 0.408097 0.101572 4 2 2 
7370 6 0.163121 0.427451 0.0825164 1 0 1 
7568 5 0.138203 0.448304 0.0856202 -4 -6 0 
6066 6 0.783335 0.38436 0.0963445 1 -4 -8 
8281 5 0.824672 0.465429 0.106307 -5 -4 -1 
8066 5 0.478264 0.446145 0.082244 -3 -4 2 
8431 6 0.797242 0.41858 0.0693175 -2 3 0 
5679 5 0.9659 0.466715 0.117481 -8 1 -1 
8791 6 0.0224543 0.491881 0.102752 7 -1 3 
7112 5 0.446198 0.474262 0.128232 -5 6 0 
7397 5 0.317535 0.494682 0.064516 2 3 -6 
8968 5 0.36978 0.504346 0.0745595 4 -3 2 
5623 6 0.426466 0.497174 0.0841973 1 2 1 
5266 5 0.792378 0.482602 0.0553647 1 1 2 
7854 6 0.947873 0.49501 0.0615376 -2 0 -6 
6922 6 0.331277 0.501898 0.0893106 0 -4 2 
5435 6 0.488041 0.51598 0.0599399 3 -6 -1 
6710 6 0.0314112 0.599115 0.0738687 -4 -1 -2 
6704 6 0.0124311 0.557475 0.10901 -2 -1 0 
7152 5 0.423198 0.552503 0.0620964 -2 2 -2 
8294 5 0.689155 0.572456 0.0939211 2 -1 1 
6008 5 0.905472 0.569148 0.11728 2 7 -2 
5211 5 0.208793 0.585519 0.0435799 5 0 5 
5764 6 0.451391 0.593113 0.0716343 2 5 2 
5630 6 0.290339 0.644914 0.0893343 4 2 -2 
7184 5 0.353952 0.582531 0.106332 2 -5 -1 
8588 6 0.379631 0.626774 0.0726794 2 5 -1 
7459 6 0.0883317 0.631128 0.0697418 5 -2 4 
6814 6 0.59233 0.641328 0.0848164 2 0 1 
5687 5 0.814221 0.657156 0.0848259 5 1 6 
7907 6 0.83672 0.654829 0.0714422 -2 -1 5 
8617 6 0.599971 0.694712 0.0805344 -5 -3 -3 
6416 6 0.846504 0.656421 0.0485906 2 -5 5 
8830 5 0.129141 0.684572 0.0717295 5 1 2 
6767 5 0.342959 0.672199 0.0719707 0 -4 0 
7759 5 0.627668 0.685196 0.0745893 0 -3 -2 
8029 6 0.863181 0.681181 0.0885154 -2 4 1 
6956 5 0.988363 0.693948 0.0882278 0 -2 5 
7113 5 0.608956 0.70661 0.0707848 -5 -4 -1 
6078 5 0.853968 0.726317 0.0876026 -2 -1 -7 
7827 6 0.963453 0.777821 0.0806401 -2 2 2 
5442 5 0.339042 0.786481 0.081934 2 2 -1 
8328 5 0.518626 0.809532 0.091106 4 -1 1 
8379 6 0.830867 0.813245 0.0725564 -1 -3 -1 
8572 5 0.00776987 0.870608 0.0587091 -3 -1 0 
7558 6 0.00156161 0.815289 0.0801825 0 3 3 
6356 6 0.299927 0.870465 0.0815389 -3 -2 -1 
5838 5 0.602875 0.904341 0.0442774 3 0 2 
7713 5 0.880933 0.89266 0.0946307 3 1 3 
8062 5 0.727378 0.922165 0.101592 2 4 2 
6204 5 0.216596 0.952767 0.0958925 0 -1 -3 
5760 6 0.327089 0.945991 0.0765906 2 -1 2 
7994 5 0.588902 0.968338 0.0996847 -6 -3 -4 
6172 5 0.846427 0.936006 0.119527 0 5 -4 
7413 6 0.269802 0.972638 0.0661096 -4 2 2 
8069 6 0.302912 0.0289652 0.10145 -2 1 0 
6081 6 0.765641 1.0005 0.0941558 3 0 1 
5598 6 0.250835 1.00174 0.0853372 1 -4 0 
7272 6 0.512737 0.0322476 0.113646 4 1 3 
6974 5 0.744812 0.0291062 0.111038 6 -2 0 
8822 6 0.83486 0.0112743 0.141794 3 8 2 
7674 6 0.959028 0.0360444 0.113526 1 2 1 
7145 5 0.839578 0.0163467 0.101097 -2 7 2 
7249 5 0.904016 0.032659 0.0874564 0 0 1 
8016 6 0.450505 0.0642385 0.0913227 1 3 -4 
6634 6 0.603047 0.0573707 0.101335 -1 4 -4 
5734 5 0.974096 0.0560073 0.0978013 1 1 4 
8335 6 0.529042 0.0399865 0.108937 -2 -4 2 
5938 5 0.834553 0.0805291 0.102714 0 1 -1 
8687 6 0.220437 0.107468 0.115762 0 0 -3 
6443 6 0.386782 0.0975751 0.107326 -5 -2 2 
7969 6 0.557397 0.0914511 0.0992977 5 0 4 
6034 5 0.0910148 0.136441 0.0611385 2 1 -1 
7720 5 0.871657 0.103088 0.114876 0 3 4 
5096 5 0.836483 0.124589 0.065029 0 3 4 
7190 5 0.675193 0.184089 0.0712032 4 2 6 
8948 6 0.415413 0.196296 0.0762274 -2 2 3 
7003 5 0.537212 0.208123 0.112694 -1 0 1 
5945 5 0.617462 0.199941 0.106117 1 -6 5 
5622 5 0.237279 0.209732 0.122131 0 2 -2 
8729 6 0.757352 0.252182 0.0780105 0 -3 0 
8659 6 0.502837 0.252837 0.116983 0 0 2 
5032 6 0.849031 0.273081 0.102799 0 5 1 
8505 6 0.042556 0.259247 0.14935 -2 -1 0 
8841 5 0.155741 0.329534 0.127917 3 7 -1 
7057 6 0.619618 0.326846 0.117445 -3 0 2 
5344 6 0.758791 0.364791 0.121597 1 -5 1 
6323 5 0.8841 0.326123 0.109348 -2 -1 -3 
5849 6 0.137272 0.398871 0.116144 1 1 1 
6985 5 0.609654 0.365466 0.0744005 0 1 2 
5422 5 0.274753 0.372855 0.143787 -5 -2 -4 
5144 6 0.461351 0.432585 0.113342 1 3 3 
7158 6 0.580081 0.393485 0.125236 -6 5 6 
8045 5 0.788392 0.436707 0.0954571 -1 0 -6 
7729 6 0.891769 0.454088 0.0850495 -1 -4 2 
7831 6 0.432913 0.440294 0.107828 -4 0 0 
8346 5 0.469248 0.483492 0.110844 1 1 -6 
6766 6 0.578715 0.482374 0.071029 3 3 3 
6462 6 0.541953 0.503388 0.0976478 0 -1 0 
6970 6 0.988279 0.455875 0.109056 1 -3 1 
8677 6 0.220845 0.497443 0.134714 0 0 2 
8251 6 0.765676 0.491557 0.0880839 0 -2 3 
8162 6 0.787511 0.511056 0.0940173 1 -1 4 
8957 6 0.156592 0.531277 0.0925587 1 -2 -1 
5145 5 0.204698 0.549651 0.113833 -3 2 2 
6611 5 0.259717 0.552458 0.10755 3 -3 -1 
8447 5 0.0906584 0.614967 0.0817934 -2 -5 6 
5182 5 0.658929 0.575086 0.120057 -1 -1 -3 
5204 6 0.776599 0.598271 0.0683098 -5 5 1 
6308 5 0.961122 0.595387 0.0806097 -4 -4 -3 
8263 5 0.031404 0.593268 0.09529 2 3 2 
7898 6 0.0960716 0.635025 0.0746136 2 -4 -1 
8381 6 0.418443 0.61851 0.0736595 -6 -1 -2 
7799 6 0.468965 0.630069 0.143349 0 -3 2 
7494 6 0.58109 0.641047 0.118085 -2 1 5 
8825 6 0.738107 0.609027 0.0788205 -5 0 -6 
6332 6 0.832033 0.652655 0.143263 -1 2 -3 
6344 6 0.261003 0.621766 0.102441 -1 7 1 
8904 6 0.288893 0.668035 0.127078 0 -1 0 
6110 5 0.345376 0.643441 0.112326 4 4 2 
6659 6 0.458359 0.611778 0.151341 -4 0 0 
8200 6 0.701902 0.612642 0.118941 2 4 -4 
8048 5 0.701428 0.657422 0.107353 -2 -1 1 
8215 5 0.910931 0.627167 0.13383 1 6 1 
6894 6 0.66351 0.723994 0.100046 0 2 1 
6324 5 0.991079 0.722692 0.108643 0 -3 1 
7274 6 0.249551 0.747692 0.119688 7 -1 4 
8937 5 0.17006 0.796862 0.130322 0 2 -2 
6608 6 0.97823 0.806073 0.0579616 -2 2 7 
6753 6 0.0786723 0.829897 0.0872355 -1 2 -2 
7499 5 0.328672 0.824978 0.0800488 2 -4 -2 
5653 5 0.327218 0.838411 0.074485 4 -2 -1 
5901 5 0.790863 0.774897 0.129206 5 -5 -2 
8184 5 0.384651 0.821707 0.126535 2 -8 3 
5374 5 0.682366 0.876458 0.103507 1 5 5 
7941 5 0.912924 0.858014 0.100431 -1 3 -3 
8914 5 0.423463 0.869773 0.132504 -3 -1 3 
7597 5 0.295312 0.906015 0.0578462 -1 1 -2 
8436 5 0.824525 0.934594 0.173669 5 2 3 
8472 5 0.0633947 0.917805 0.105219 0 -1 -3 
8627 6 0.457884 0.926614 0.0798135 3 0 0 
6245 6 0.703184 0.955683 0.0663709 2 0 -1 
8833 5 0.938294 0.944576 0.0960612 -3 -4 0 
8317 6 0.229701 0.950481 0.0822185 6 2 -3 
8958 5 0.248915 0.999883 0.0974723 -3 5 0 
6950 6 0.330244 0.975733 0.112097 -5 4 0 
6642 6 0.453658 0.974724 0.126145 -1 3 5 
8998 6 0.400961 0.96848 0.0780293 1 -5 -1 
6254 6 0.822824 0.985156 0.0793894 -1 0 -2 
7702 6 0.144759 0.00472385 0.129495 3 4 -1 
7326 6 0.216106 0.0211951 0.147239 -5 4 5 
5753 5 0.694625 0.0378452 0.112159 -4 4 0 
5187 6 0.954228 0.0459362 0.113101 -5 0 -6 
7512 5 0.138493 0.0777391 0.152151 0 -2 3 
5008 6 0.192605 0.126917 0.144678 -1 1 1 
7826 6 0.346816 0.0471464 0.129958 -5 -1 5 
6792 6 0.462472 0.107719 0.158691 -1 -5 1 
6309 5 0.513665 0.0454798 0.155068 -1 5 2 
8213 5 0.324256 0.175041 0.144976 -7 0 -2 
5690 6 0.381424 0.138848 0.130809 3 4 -1 
5302 6 0.719097 0.164912 0.109226 3 1 3 
5229 6 0.909202 0.174853 0.119798 -3 -2 1 
6981 5 0.146233 0.161204 0.168161 2 0 0 
8961 6 0.645555 0.193497 0.0925229 -1 -6 -2 
8522 5 0.784933 0.15047 0.156127 2 2 3 
8445 6 0.82558 0.146914 0.142349 0 0 2 
7062 5 0.113088 0.177775 0.13215 -3 2 5 
7055 6 0.0918534 0.201585 0.148242 5 -1 3 
5985 6 0.404969 0.17377 0.126399 -2 -1 0 
5355 5 0.4575 0.172389 0.153103 2 -2 -2 
6635 6 0.806099 0.197559 0.114591 3 2 1 
7937 6 0.979832 0.207648 0.143425 4 4 2 
7150 6 0.17579 0.258226 0.135709 -2 -3 -1 
8140 6 0.531544 0.299918 0.114058 2 8 -2 
5787 6 0.674961 0.251785 0.117498 -3 7 4 
6127 6 0.893566 0.288789 0.127106 0 3 0 
6316 6 0.466329 0.309234 0.149304 -1 4 0 
8817 5 0.095746 0.360367 0.124892 -4 -2 2 
5465 6 0.577981 0.328969 0.137361 -1 0 1 
8596 5 0.697889 0.316019 0.0886645 -1 -3 2 
7771 5 0.230751 0.367592 0.148531 2 -3 -7 
5339 5 0.608043 0.350865 0.106868 -1 -7 0 
8451 6 0.830877 0.38259 0.146493 -1 -3 2 
5257 6 0.160612 0.449825 0.122395 -2 2 0 
6960 5 0.496138 0.376591 0.12523 -2 -1 1 
8766 6 0.553639 0.418852 0.105893 -1 1 -3 
6042 5 0.918367 0.401942 0.120515 -1 -5 0 
6453 6 0.476653 0.458902 0.0992601 2 1 1 
7774 6 0.533847 0.439421 0.148712 -4 0 -8 
7556 5 0.96126 0.450899 0.110418 -2 -1 0 
5863 5 0.623674 0.494668 0.131756 1 2 6 
6395 6 0.360497 0.474106 0.136505 2 -3 -2 
5559 5 0.196311 0.52182 0.118812 2 -4 1 
7082 6 0.952537 0.538282 0.115674 -5 3 0 
8726 5 0.768054 0.588091 0.15136 -3 1 -1 
6624 6 0.789251 0.567299 0.104485 1 -5 0 
5597 5 0.922804 0.556518 0.164937 0 2 2 
5364 5 0.727275 0.554496 0.0845143 -5 -2 2 
5155 5 0.775489 0.600973 0.131367 0 -1 -1 
6914 6 0.291174 0.636517 0.129264 6 0 0 
5762 6 0.419003 0.621339 0.118107 6 -2 1 
6250 5 0.496829 0.623412 0.117843 4 1 -1 
7453 5 0.496345 0.636161 0.0987408 0 0 6 
8298 6 0.756303 0.624127 0.108327 -1 -5 2 
8088 6 0.843241 0.617398 0.161596 1 1 -3 
5700 5 0.696956 0.668454 0.119363 1 0 -2 
5220 6 0.264003 0.697592 0.140064 0 -2 -3 
6865 6 0.509819 0.689757 0.0942335 -5 -1 3 
5060 5 0.534749 0.719038 0.130292 5 -2 -3 
6723 5 0.527738 0.708797 0.135667 -1 -3 2 
6387 6 0.024627 0.721364 0.139234 1 3 -3 
6488 6 0.371967 0.744903 0.117335 5 -3 0 
5763 6 0.400581 0.736886 0.137397 7 -5 1 
5086 6 0.564241 0.734341 0.174238 2 3 0 
8643 6 0.996209 0.730693 0.121655 2 -1 3 
7088 6 0.67788 0.755035 0.153947 0 -2 0 
5947 6 0.325664 0.817668 0.141555 1 -4 5 
7285 5 0.701272 0.787555 0.122717 0 -3 4 
5558 5 0.619756 0.813217 0.0815833 0 -1 -2 
7741 5 0.842033 0.800793 0.12495 5 2 2 
7168 5 0.624458 0.827345 0.0966612 -4 -1 0 
5019 5 0.782978 0.882238 0.164184 -1 6 2 
6988 5 0.0656633 0.859282 0.136035 7 -1 -2 
5109 6 0.31292 0.884341 0.130016 3 -1 1 
6684 6 0.904375 0.897691 0.109259 -4 -3 4 
6510 6 0.618092 0.890059 0.121984 -2 -5 -2 
6186 6 0.739639 0.888051 0.108416 2 3 3 
5244 6 0.0575446 0.923041 0.114423 -1 1 0 
6059 5 0.135878 0.926472 0.107315 1 4 7 
8533 6 0.0961027 0.930079 0.116979 -1 1 0 
8993 5 0.274075 0.927078 0.142904 1 0 0 
5823 6 0.737061 0.911494 0.108739 2 1 4 
6617 5 0.0218719 0.919638 0.148959 4 2 4 
7473 5 0.976031 0.963658 0.101577 4 3 5 
8661 6 0.353736 0.95496 0.147629 0 3 0 
8674 6 0.540973 0.975071 0.125558 0 1 -1 
8449 5 0.844435 0.954385 0.158783 3 2 4 
5570 6 0.939699 0.0269325 0.133189 3 3 1 
7167 6 0.441686 0.979436 0.142436 -3 1 2 
8040 6 0.0235484 0.0863563 0.168056 4 -3 3 
6909 6 0.651504 0.0601602 0.156646 1 -3 0 
7676 5 0.555386 0.145161 0.177241 4 -1 -3 
5049 5 0.855843 0.144537 0.1457 -1 7 -2 
6728 6 0.115927 0.162987 0.176624 2 0 -1 
8518 6 0.176493 0.132176 0.145419 3 0 -2 
6261 5 0.922308 0.194994 0.132021 -3 4 -1 
8172 5 0.330968 0.259905 0.185702 -2 5 -3 
5036 6 0.305491 0.194147 0.151641 -2 4 3 
6031 6 0.0878377 0.271857 0.160316 1 1 1 
8605 5 0.167895 0.205012 0.176184 -1 1 3 
8680 6 0.601874 0.269297 0.098151 -2 0 2 
6163 6 0.531683 0.228495 0.126457 -4 1 4 
7484 6 0.285128 0.263922 0.175182 1 5 0 
5619 5 0.901783 0.264923 0.129948 -2 1 0 
8116 5 0.274612 0.304509 0.124518 3 -4 0 
8332 6 0.930645 0.274769 0.153246 -1 0 -1 
6926 6 0.350738 0.365874 0.12381 1 0 -1 
5013 6 0.0978504 0.325363 0.164331 2 0 -1 
7602 6 0.178555 0.364254 0.103732 -3 1 3 
5642 6 0.241451 0.33477 0.114983 0 3 4 
7823 5 0.31041 0.342294 0.183667 -1 -2 -7 
6623 6 0.308902 0.362314 0.168226 -3 1 -2 
8753 5 0.392277 0.364364 0.130066 4 2 -1 
7462 5 0.728413 0.370067 0.135446 -6 -6 -1 
7609 6 0.116066 0.386421 0.131167 -1 4 2 
6920 5 0.609637 0.393462 0.149282 4 3 1 
8231 6 0.681288 0.339517 0.115412 -2 5 3 
6155 5 0.197125 0.404792 0.151433 -3 0 -3 
5225 5 0.300737 0.399767 0.160412 6 -4 -1 
6697 6 0.945011 0.358478 0.171903 1 0 -1 
8778 6 0.983753 0.39244 0.167299 -1 1 -5 
8795 5 0.144681 0.384401 0.132959 2 2 0 
8979 5 0.0322773 0.480853 0.161367 2 0 -4 
6893 6 0.253318 0.418499 0.169808 -1 -2 -3 
5925 5 0.472599 0.434045 0.149393 -1 -4 0 
7535 6 0.750779 0.41077 0.14174 1 2 -5 
7329 5 0.0728564 0.498214 0.151368 -1 -10 1 
8595 6 0.462206 0.472615 0.163513 1 -3 0 
5937 6 0.779257 0.466862 0.140468 3 2 3 
5557 5 0.175505 0.438665 0.175435 -2 3 -5 
5724 5 0.43366 0.485865 0.147939 -2 -4 1 
6797 5 0.891199 0.539038 0.125598 0 -2 6 
6980 6 0.0639837 0.545448 0.13273 3 -1 1 
8002 6 0.494037 0.56783 0.158441 -2 -3 -3 
8392 6 0.35049 0.576758 0.143662 3 -3 2 
7204 6 0.892166 0.533818 0.180376 2 2 5 
7732 6 0.118698 0.570116 0.128255 1 -1 -2 
8465 5 0.324356 0.606371 0.122032 2 -2 -4 
5224 6 0.61054 0.591634 0.13445 0 3 -1 
5483 6 0.487389 0.663657 0.132683 -2 -3 -4 
6605 5 0.623178 0.612414 0.128844 0 1 1 
7884 6 0.740056 0.619243 0.149268 -2 -1 -1 
6689 5 0.795984 0.593284 0.137666 2 8 -2 
5998 5 0.428184 0.664658 0.167567 1 -2 -1 
5702 6 0.771965 0.639915 0.143096 -7 0 2 
7011 5 0.818079 0.621171 0.146889 1 0 1 
5713 5 0.000273861 0.65699 0.143333 3 0 -2 
7302 6 0.340877 0.690313 0.141852 -7 -2 -3 
6087 5 0.64886 0.677204 0.176689 0 4 0 
5278 5 0.0897346 0.703233 0.135812 3 3 2 
8896 5 0.632119 0.714242 0.140485 4 3 2 
7073 6 0.984451 0.666749 0.140097 -1 -1 2 
8995 6 0.709118 0.774083 0.164952 0 -1 5 
7110 6 0.761238 0.796457 0.114581 -1 0 -2 
6132 5 0.00501961 0.830629 0.198975 -5 -2 4 
8493 6 0.207245 0.784229 0.106667 -3 2 -2 
7206 6 0.468846 0.803885 0.160518 -3 4 -5 
8201 6 0.845575 0.768022 0.161053 0 1 -4 
7072 6 0.829092 0.807541 0.171427 6 -1 -3 
8219 5 0.271652 0.850404 0.11014 -1 0 2 
5583 5 0.351946 0.813152 0.176056 -2 4 -2 
5040 5 0.483539 0.819726 0.167386 2 -2 1 
6997 5 0.867246 0.846715 0.137839 -1 1 1 
6241 5 0.654404 0.860834 0.132392 3 -2 -4 
5206 5 0.871786 0.879376 0.149904 0 4 -2 
6348 6 0.17169 0.853071 0.161702 0 0 -4 
8801 6 0.676603 0.922949 0.165697 2 7 -2 
7566 5 0.737013 0.852984 0.17796 -3 1 0 
7069 5 0.0794676 0.913401 0.15358 -3 -1 1 
6243 5 0.575526 0.946043 0.12881 -5 -2 2 
8888 5 0.611367 0.920763 0.128197 -2 -6 -2 
5730 5 0.680604 0.940312 0.114537 1 -3 2 
7951 5 0.316086 0.0256906 0.17583 -2 -1 0 
7595 6 0.340474 0.0244685 0.180945 3 -4 -3 
7436 5 0.686194 0.0408436 0.194204 -3 -1 1 
7520 6 0.843746 0.035531 0.164508 -2 4 -5 
5718 5 0.0852223 0.0404105 0.147878 1 1 -6 
7412 5 0.473184 0.0628655 0.163319 -3 2 0 
8347 6 0.785214 0.0612376 0.151422 1 5 1 
6384 6 0.976204 0.079304 0.139469 -7 5 3 
5085 6 0.372753 0.103817 0.12268 1 -3 2 
6592 6 0.399013 0.121169 0.178841 3 -1 -2 
8111 6 0.46738 0.116076 0.12497 -1 3 -2 
6830 6 0.341694 0.124135 0.202272 -2 -1 -3 
8555 6 0.741752 0.165905 0.155684 -2 2 1 
5105 6 0.198893 0.252034 0.207201 -8 -3 3 
5931 5 0.732657 0.270685 0.197728 0 4 3 
6562 6 0.138694 0.275741 0.169391 0 4 8 
5390 5 0.376823 0.341551 0.170596 0 0 1 
7104 5 0.161252 0.342248 0.150519 6 4 1 
5255 6 0.323658 0.31742 0.18523 7 1 2 
7689 6 0.566565 0.404735 0.157255 1 -3 -2 
8307 5 0.386169 0.366257 0.168471 -1 -2 -1 
7677 5 0.951269 0.381817 0.175591 0 3 2 
7952 6 0.959984 0.377242 0.163568 0 1 -3 
7060 6 0.441374 0.42552 0.151337 0 0 4 
5228 6 0.507044 0.403891 0.206761 1 -1 -3 
7129 6 0.172095 0.470527 0.14552 -2 2 1 
5394 6 0.9778 0.441823 0.180187 1 2 -3 
7276 6 0.907244 0.436512 0.127875 1 -2 -4 
8086 6 0.0113144 0.4995 0.168861 1 -2 4 
5456 5 0.00721704 0.53443 0.221875 7 0 0 
8649 6 0.912217 0.497732 0.194241 3 4 0 
6001 6 0.0446416 0.55105 0.176897 1 0 1 
5160 5 0.586654 0.547207 0.155483 -4 -2 1 
7963 5 0.567287 0.565367 0.151122 -1 3 -3 
5218 6 0.0264764 0.558678 0.18264 2 -3 1 
8792 5 0.886331 0.576508 0.186546 3 -3 2 
7458 6 0.12884 0.59511 0.188599 -1 -1 0 
5460 5 0.439086 0.594822 0.175018 5 -4 3 
6273 5 0.890546 0.607442 0.147405 3 -1 3 
7271 5 0.343215 0.651333 0.153627 -5 -6 5 
6666 5 0.828684 0.652928 0.156515 1 1 3 
6211 5 0.838998 0.631249 0.154806 -5 7 2 
8821 6 0.232943 0.715494 0.161357 -3 0 6 
5966 6 0.532731 0.640754 0.156185 -2 1 -3 
7047 6 0.699979 0.647786 0.224499 2 -1 1 
7761 6 0.0454112 0.660163 0.153091 1 -4 -1 
6289 5 0.185199 0.682266 0.176606 -1 -4 -1 
8220 6 0.969299 0.670965 0.195236 -6 1 0 
5635 6 0.998622 0.735129 0.169903 -2 -3 -1 
8650 5 0.917921 0.708237 0.153398 -3 3 1 
6294 6 0.219691 0.754707 0.163495 2 1 -1 
6751 6 0.847903 0.712997 0.178504 -1 -1 -1 
7023 5 0.715725 0.772495 0.133598 -1 -3 0 
6923 5 0.987959 0.785763 0.192409 -2 -6 -2 
5199 5 0.447665 0.808244 0.141901 0 -2 2 
8025 5 0.789438 0.767222 0.168865 3 1 0 
5591 5 0.89734 0.833501 0.139487 2 3 2 
6287 5 0.395466 0.806622 0.178566 -3 -3 -8 
6122 5 0.650652 0.843509 0.157112 1 2 -2 
6349 6 0.673848 0.869189 0.192531 1 2 2 
6494 6 0.0366055 0.955388 0.19484 5 -1 -3 
5582 5 0.232276 0.894502 0.183913 -3 4 4 
5857 6 0.917571 0.909703 0.168954 -1 -2 6 