ITEM: TIMESTEP
50000000
ITEM: NUMBER OF ATOMS
9000
ITEM: BOX BOUNDS pp pp pp
-75 75
-75 75
-75 75
ITEM: ATOMS id type xs ys zs ix iy iz 
7503 5 0.0478962 0.992766 0.0306402 -1 -2 6 
8514 6 0.306865 0.0240309 0.0150375 6 1 -2 
5173 6 0.120449 0.0348828 0.00685369 6 -6 1 
7476 5 0.729994 0.0517844 0.0289334 -8 -4 5 
7260 5 0.0469791 0.0213014 0.0093224 0 5 1 
8403 5 0.311594 0.0679667 0.00885234 -2 2 2 
6486 5 0.355222 0.0445386 0.00600339 -7 -4 1 
5986 6 0.595504 0.0643225 0.981446 -2 -2 5 
6421 6 0.0400511 0.0893015 0.979927 0 4 2 
5940 5 0.244532 0.128266 0.0233721 1 -3 -2 
8802 6 0.350113 0.140279 0.040287 -6 -2 -5 
7673 6 0.93696 0.154729 0.992876 1 -5 -8 
6734 6 0.415372 0.169718 0.0117667 -3 -6 2 
7359 5 0.473449 0.152734 0.0154344 -1 -3 -5 
8071 6 0.891859 0.174578 0.0353976 1 -5 -2 
8783 6 0.0803827 0.176006 0.00758696 -3 -1 4 
8402 5 0.334914 0.199965 0.0165194 0 -1 2 
8143 5 0.699835 0.20478 0.998612 3 0 -2 
7807 6 0.519838 0.183574 0.00683325 -3 -1 2 
6794 5 0.245121 0.251098 0.0172746 3 5 -7 
7392 6 0.346718 0.27115 0.00613332 -1 2 0 
6771 5 0.244768 0.266507 -0.00136378 0 3 4 
6340 5 0.399994 0.262198 0.0101847 -3 6 2 
6059 6 0.580199 0.219799 0.989919 4 9 -1 
7539 6 0.846728 0.251053 0.973491 -4 -2 -4 
6353 5 0.32543 0.281081 0.997238 2 -8 -1 
8098 6 0.372439 0.284157 0.990263 -3 0 -1 
6896 6 0.975626 0.288942 0.97948 -8 -6 -3 
5079 5 0.599543 0.355597 0.0376233 1 1 5 
7321 6 0.7086 0.34198 0.0189353 -11 6 6 
7297 6 0.625666 0.379024 0.979543 -1 -2 4 
6468 5 0.711655 0.416281 0.990542 1 4 -1 
5512 5 0.915961 0.419246 0.987989 2 3 5 
5236 5 0.176163 0.447019 0.0263026 -2 11 3 
8957 5 0.816802 0.430464 0.0111505 -3 6 0 
7070 5 0.220585 0.47787 0.00621826 7 7 -2 
7144 6 0.326345 0.462538 0.0169055 -4 -4 4 
5869 6 0.75999 0.477153 0.00321765 1 -2 -9 
6525 5 0.856054 0.510519 0.0189419 4 0 9 
8353 6 0.10514 0.484655 0.957686 -3 -3 -1 
6807 6 0.53402 0.48101 0.00488853 -2 5 7 
8968 5 0.747241 0.48737 0.0277821 0 6 2 
6007 5 0.740477 0.454701 0.0207993 -7 2 1 
5217 6 0.032727 0.525575 0.0231762 3 -1 0 
6236 6 0.403762 0.552442 0.0218096 -7 1 6 
5127 6 0.460203 0.523857 0.98913 -3 -7 -4 
5068 5 0.710333 0.551446 0.989612 -4 1 3 
5535 5 0.744424 0.499925 0.00656765 -4 -7 4 
8539 6 0.430831 0.57209 0.0148263 -2 4 4 
5782 6 0.561342 0.550155 0.00993005 4 -1 -3 
8075 6 0.804981 0.550723 0.0155352 -10 -1 2 
6403 5 0.0802317 0.607913 0.00820627 4 8 0 
8909 6 0.197005 0.611543 1.00223 -2 3 1 
8622 6 0.882934 0.600401 0.031186 1 -8 -6 
5583 5 0.877477 0.604061 0.0224388 -2 -6 -1 
5849 6 0.393679 0.64111 0.0553707 3 -4 -2 
7512 5 0.623253 0.632183 0.0349282 -4 -3 4 
6821 5 0.76399 0.636369 0.0267703 7 3 -3 
5144 5 0.911656 0.622574 0.0391423 9 0 -1 
6215 6 0.465261 0.672228 0.0318992 -8 -2 5 
8089 6 0.84475 0.687082 0.0247664 -2 -7 -10 
7960 6 0.99206 0.672968 0.0189082 -4 7 5 
5686 6 0.00522228 0.663637 0.999037 3 1 2 
7794 5 0.241404 0.669686 0.0201097 0 -2 -3 
5459 5 0.578966 0.666545 0.991445 1 5 1 
8277 6 0.641558 0.67902 0.0353871 -2 1 10 
6430 6 0.183179 0.731073 0.014069 3 3 -4 
5458 6 0.251859 0.756346 0.0222311 2 0 -4 
5534 6 0.489887 0.731301 0.0157771 0 6 4 
7164 6 0.662089 0.764901 0.999438 4 3 -2 
5798 6 0.727457 0.751935 0.00342429 -5 6 -1 
6598 5 0.649089 0.812612 0.0298796 -9 -1 -5 
8394 5 0.444417 0.792154 0.0429384 6 -9 -5 
8458 5 0.416982 0.811859 0.0315092 -8 -2 -2 
7517 6 0.817294 0.864723 0.00238263 6 -2 6 
8057 6 0.00634259 0.872529 0.0219039 4 -2 -2 
6955 6 0.047809 0.876457 0.0312799 0 -4 -3 
6919 5 0.33619 0.875945 0.97701 1 4 -3 
5052 5 0.384012 0.850072 0.965315 -3 -1 0 
6125 5 0.612161 0.859287 0.0372242 1 -1 4 
8650 5 0.804517 0.884924 0.997672 3 -4 7 
5013 6 0.578657 0.868381 0.0347422 -4 -3 -7 
6510 5 0.559274 0.915932 0.0495185 7 -6 -4 
8770 5 0.155557 0.944463 0.983761 2 7 -3 
8772 6 0.488634 0.93433 0.964219 -4 -8 4 
7223 5 0.690916 0.988255 0.983597 -1 8 -4 
5370 5 0.9856 0.92124 0.0270635 -2 -5 -2 
5447 6 0.690227 0.00386744 0.0166157 -2 -1 1 
8289 6 -1.20647e-05 0.927591 0.98861 -6 9 0 
6194 6 0.421663 0.0152401 0.0143087 -3 -2 -9 
5900 6 0.0353828 0.991026 0.0312924 8 -5 -5 
7349 6 0.873184 0.0293128 0.0461552 -6 -1 0 
8970 5 0.169762 0.0211956 0.0430581 5 -1 -7 
6484 6 0.500611 0.0481697 0.0252701 9 -3 2 
6095 5 0.577893 0.0746998 0.0352101 3 3 -4 
5431 5 0.13446 0.106571 0.0329443 -2 -4 14 
5329 6 0.255613 0.0789285 0.0155402 4 -4 -5 
8265 5 0.357597 0.119574 0.0417948 0 -1 -4 
7245 5 0.515251 0.11081 0.035369 -3 -4 8 
5676 6 0.467788 0.142966 0.0363232 6 -4 -3 
5978 6 0.49569 0.18133 0.0497375 6 -3 -3 
6720 6 0.491536 0.171563 0.0454884 1 2 0 
5489 6 0.151491 0.174341 0.00533797 6 2 1 
7834 6 0.0901156 0.196183 0.032408 1 8 -1 
5952 6 0.25932 0.197646 0.060333 -4 2 0 
8000 6 0.484262 0.163308 0.00247102 -7 -11 0 
7522 6 0.547162 0.174292 0.0182032 -5 5 -1 
5359 6 0.490014 0.158542 0.0203687 -2 -1 -4 
8938 6 0.983431 0.234717 0.00707367 0 -5 0 
8829 6 0.200311 0.241269 0.0132859 2 1 4 
5200 6 0.284766 0.236477 0.0428687 10 3 -2 
8331 6 0.234375 0.290169 0.0708053 6 2 2 
5931 5 0.782472 0.264008 0.0369079 6 -2 6 
8125 6 -0.000697972 0.279919 0.0437938 3 4 -6 
5049 5 0.0197569 0.289801 0.0254104 1 -5 -5 
5410 5 0.285197 0.305779 0.0195806 3 -3 2 
8905 5 0.431256 0.309159 0.0389747 -6 3 -4 
6677 5 0.484515 0.312055 0.0107975 -7 7 2 
6265 5 0.672752 0.33073 0.0713882 -11 5 -3 
7573 6 0.245409 0.340683 0.0286801 3 0 1 
8603 6 0.779372 0.392873 0.061911 -1 -9 2 
5346 5 0.208094 0.37821 0.0343255 -7 4 -6 
5344 6 0.453474 0.371815 0.0285378 0 -3 -3 
8721 6 0.19802 0.396439 0.0342875 5 4 6 
8793 6 0.540652 0.384092 0.0110376 5 -2 -1 
5816 6 0.134625 0.418595 0.00615777 8 -1 10 
7295 5 0.250508 0.418019 0.0205292 -4 1 -1 
6983 6 0.259188 0.49351 0.0506986 -2 -4 -2 
8757 6 0.391564 0.450837 0.0607007 4 -1 5 
5286 5 0.742961 0.468954 0.0366298 -4 -4 -3 
8007 5 0.885995 0.477321 0.082358 -1 0 8 
5463 5 0.697528 0.489437 -0.000584932 -2 2 6 
6305 5 0.761445 0.491629 0.0255838 2 1 2 
5653 6 0.873949 0.466789 0.0174107 0 0 1 
5700 5 0.148949 0.531413 0.0662912 -4 -7 1 
8872 5 0.628521 0.516522 0.991841 -2 -10 4 
8419 5 0.776237 0.535858 0.0522728 4 -4 -1 
5441 6 1.00004 0.485009 0.0576165 -3 7 -6 
6506 6 0.240101 0.53485 0.0469669 2 3 -1 
6344 6 0.305854 0.576616 0.0248663 -10 -3 5 
5054 6 0.0947653 0.616334 0.0242946 5 -2 -2 
6791 6 0.161671 0.627458 0.0597551 7 0 5 
5199 6 0.637978 0.572555 0.00625664 3 -1 3 
8239 6 0.611712 0.608555 0.0796159 -1 -2 2 
7507 5 0.610622 0.599251 0.054152 4 -4 -3 
7862 5 0.152966 0.675147 0.0579867 4 4 -1 
7161 5 0.37665 0.622425 0.0525612 -2 0 -2 
5365 5 0.59222 0.70357 0.00253916 -1 -8 -1 
8807 6 0.0359907 0.69719 0.0104055 3 -2 -4 
5553 5 0.290121 0.643835 0.0357149 0 -4 2 
5310 5 0.449804 0.667989 0.032707 0 11 2 
5373 5 0.582695 0.679367 0.0291378 -3 -2 0 
6408 6 0.575699 0.690659 0.0503117 -3 -1 -7 
6754 5 0.220229 0.664571 0.0568527 0 -5 -4 
5408 6 0.455032 0.65292 0.0515129 4 0 -2 
8914 5 0.0732663 0.738121 0.03374 6 -1 3 
7772 5 0.776246 0.691571 0.0651018 3 3 4 
8709 5 0.34171 0.715552 0.0165411 6 -8 -2 
5307 5 0.573107 0.752887 0.0622249 -1 -4 -3 
8423 5 0.196929 0.757481 0.044869 -7 4 -6 
8662 6 0.0162758 0.820285 0.0260358 -2 -1 8 
7928 5 0.310325 0.770755 0.0645059 -4 1 3 
5923 6 0.402778 0.735682 0.990797 6 1 5 
7324 6 0.89846 0.785498 0.0172748 -2 -3 0 
8012 6 0.99594 0.812984 0.0379514 0 -1 -3 
7912 6 0.112117 0.80941 0.0211731 2 -3 1 
8578 6 0.227666 0.870356 0.0589351 7 -5 -4 
6685 5 0.906621 0.848563 0.0269325 4 2 -8 
8354 5 0.0821057 0.886034 0.0343584 3 -5 -8 
6395 6 0.50879 0.896467 0.0203203 -3 5 5 
6217 5 0.64344 0.884533 0.0135158 1 -6 7 
8367 6 0.689547 0.899495 0.030834 4 -3 -2 
5289 6 0.672366 0.895405 0.0452903 -4 10 11 
5557 6 0.682475 0.956354 0.0637775 0 4 7 
5542 5 0.135998 0.973753 0.0546659 -3 2 3 
7417 6 0.349385 0.988572 0.0337436 7 5 -7 
6830 6 0.374755 0.0335711 0.992885 -2 6 -6 
8009 6 0.650586 0.988229 0.989463 -3 4 1 
5026 5 0.7811 0.0386026 0.0116961 -5 -2 1 
6708 5 0.0579785 0.00565704 0.04489 3 5 9 
5727 6 0.827375 0.0191791 0.0474294 -1 -7 -1 
5577 6 0.1528 0.00518348 0.0288515 -8 5 5 
6495 5 0.887153 0.0460761 0.0458305 7 -1 -3 
5582 6 0.931483 0.0658399 0.0699271 1 0 3 
6748 5 0.86783 0.0633942 0.0886727 -3 -1 7 
7936 6 0.916421 0.093441 0.0813182 0 0 -1 
6299 5 0.255137 0.120058 0.0565718 -2 1 -6 
7601 6 0.72718 0.161346 0.0654611 10 1 -1 
5034 5 0.116227 0.18154 0.095706 -6 -1 0 
6283 6 0.456443 0.202365 0.0664042 -9 2 -4 
5926 6 0.27284 0.170439 0.0435322 4 -2 2 
5897 5 0.0641379 0.206104 0.11038 -5 -2 6 
6762 6 0.403601 0.285021 0.0587279 -4 -2 4 
7571 6 0.412943 0.26788 0.0399055 1 2 -1 
7591 5 0.575148 0.280218 0.0589807 -1 -5 -5 
5220 5 0.943995 0.261469 0.0618377 7 -7 -4 
5833 6 0.0450093 0.357393 0.0746324 0 2 -5 
6995 5 0.214178 0.369326 0.0852507 -4 2 6 
7821 6 0.299503 0.386021 0.0411102 -1 -5 7 
7371 6 0.0439842 0.412973 0.0483712 0 2 -6 
8228 6 0.957907 0.411067 0.11452 2 10 2 
8086 6 0.355732 0.453509 0.0518485 -5 2 4 
6981 6 0.895696 0.459185 0.00986404 5 6 0 
8271 5 0.987857 0.430848 0.0693727 7 3 5 
5646 5 0.950822 0.47576 0.0727785 -7 -2 -5 
8762 5 0.11714 0.51384 0.081823 -4 2 0 
5239 5 0.431517 0.503609 0.0317525 3 7 -7 
7819 6 0.790371 0.479787 0.0467358 -10 6 1 
8236 6 0.237123 0.466776 0.0415468 0 -13 8 
6079 5 0.438796 0.555965 0.092725 2 -6 5 
8499 6 0.17373 0.542734 0.0448455 -1 1 5 
7001 6 0.621768 0.529037 0.0276705 -3 1 0 
8652 5 0.692574 0.543444 0.0591098 4 -3 -6 
6608 5 0.126975 0.601191 0.0598458 4 -4 5 
5880 6 0.702538 0.588971 0.0535881 7 -5 -4 
6086 5 0.682954 0.60004 0.0648152 3 0 7 
5403 5 0.535829 0.572141 0.0472845 -6 1 0 
6242 5 0.0616929 0.612298 0.0414794 -1 -10 -1 
7031 6 0.275613 0.629209 0.0564083 -7 -3 6 
5968 6 0.334376 0.626303 0.0654947 0 1 -1 
8065 6 0.414976 0.699176 0.0934349 -3 -2 3 
8543 5 0.24445 0.691769 0.0737602 3 -1 -2 
5469 6 0.741114 0.680418 0.0721669 -9 -2 -7 
6984 5 0.770338 0.646445 0.0594544 -2 -2 3 
5228 5 0.626737 0.69295 0.0134835 9 2 1 
6560 5 0.700501 0.683457 0.0602188 1 6 3 
6460 6 0.508434 0.720235 0.0501607 1 -6 -5 
7149 6 0.194647 0.72701 0.0296675 -12 -3 0 
6500 6 0.0686427 0.764926 0.0610447 -7 -2 -3 
7586 5 0.278449 0.769122 0.052145 9 -1 -3 
8063 6 0.812864 0.76032 0.0285806 -6 1 3 
8508 5 0.204968 0.770452 0.0558095 0 9 5 
5597 5 0.306969 0.767392 0.0865626 7 -3 8 
7462 5 0.816086 0.7806 0.0188726 5 1 -6 
6453 5 0.865643 0.790146 0.0385888 0 -5 5 
5404 5 0.121883 0.808619 0.0520595 7 -5 -2 
6559 5 0.320121 0.837414 0.0698783 4 1 -1 
7576 6 0.440009 0.793818 0.0517603 4 4 6 
8609 6 0.490111 0.833385 0.0383764 7 0 1 
7280 5 0.249846 0.835077 0.0740016 2 6 7 
7675 6 0.0457946 0.889594 0.0885832 -5 1 -2 
8618 5 0.0572235 0.887659 0.00635775 -4 1 -1 
6146 5 0.193629 0.900481 0.0775008 3 -3 8 
5671 5 0.40511 0.858036 0.0612601 3 0 7 
6165 6 0.515553 0.867133 0.0768897 3 5 2 
6958 5 0.789988 0.867267 0.0501704 -2 5 -3 
6082 6 0.854246 0.880247 0.045283 3 4 8 
6271 5 0.0979036 0.927045 0.0527178 2 -1 -1 
7093 5 0.511238 0.863725 0.0469925 2 1 -2 
6528 5 0.45829 0.934651 0.0416389 1 2 2 
6857 6 0.519916 0.93648 0.0379637 -6 -2 2 
8978 5 0.648862 0.928957 0.0626213 -5 -2 -7 
7552 6 0.0488622 0.942623 0.0406109 2 -3 7 
6628 6 0.0706517 0.928897 0.0700659 7 -5 -11 
8327 6 0.309044 0.931015 0.0292048 1 -1 -6 
8570 6 0.375028 0.92298 0.0411289 -8 -6 -2 
7754 6 0.0364679 0.946714 0.0832168 0 -8 0 
6278 5 0.674025 0.978967 0.0732696 -11 0 0 
5033 5 0.952448 0.987648 0.0798343 -2 -8 1 
6303 6 0.179676 0.00915102 0.0787067 -2 8 1 
8450 6 0.793613 0.00369517 0.121599 -5 -4 2 
7718 5 0.885179 0.0310651 0.0838594 4 5 0 
6634 5 0.911064 0.0189062 0.112168 2 -5 5 
7628 6 0.331595 0.0621749 0.0459305 -5 0 -4 
7654 5 0.992424 0.0416667 0.06082 4 0 1 
7751 5 0.0802306 0.0300793 0.0802881 6 -8 -4 
8026 6 0.570326 0.0405762 0.0695376 3 9 3 
5453 6 0.623879 0.0698974 0.099641 5 1 -3 
6669 5 0.713095 0.0536787 0.0398784 0 -4 6 
5264 6 0.110705 0.0891283 0.0271143 -2 1 4 
6482 6 0.182042 0.0973293 0.0563914 4 10 -1 
7879 5 0.52559 0.119344 0.0738523 -3 -3 1 
5156 6 0.864849 0.0982801 0.0829522 2 -3 0 
7416 6 0.891988 0.0878308 0.0837843 -2 3 12 
6780 5 0.896181 0.15403 0.0772609 8 -3 6 
7455 5 0.764659 0.139607 0.0534525 -11 8 7 
8873 5 0.365663 0.206552 0.0904961 2 4 -1 
8021 6 0.662049 0.18234 0.0764865 0 -2 4 
7878 5 0.896809 0.17815 0.0831398 -2 10 7 
5614 5 0.018883 0.235167 0.0907232 -2 5 7 
7030 5 0.308111 0.253149 0.100411 -6 -2 6 
7733 6 0.767846 0.189244 0.0650246 -3 4 0 
7021 5 0.789818 0.236613 0.121365 -2 0 0 
7605 6 0.901341 0.231527 0.0996871 0 -8 -5 
7954 5 0.0340456 0.259019 0.112239 4 0 8 
8703 6 0.401114 0.259685 0.0941169 2 0 3 
7959 5 0.712909 0.30148 0.0881035 10 1 3 
5620 6 0.787268 0.276578 0.0596158 3 8 -1 
8420 6 0.860609 0.278386 0.119199 6 -4 3 
7727 6 0.823073 0.265771 0.0821989 -4 -2 1 
6646 6 0.314902 0.26081 0.0874693 0 3 11 
5345 6 0.899796 0.351308 0.100453 -2 2 2 
5784 6 0.75918 0.304679 0.0862909 -7 0 0 
5879 6 0.896618 0.347535 0.0622612 2 -2 -4 
7702 6 0.150272 0.328853 0.0405329 -5 5 -3 
6367 6 0.762893 0.329482 0.101272 2 -5 -8 
7430 5 0.255765 0.432109 0.0430619 -1 5 3 
8971 5 0.603703 0.42296 0.0949973 2 -1 2 
8943 6 0.83591 0.403691 0.0622418 -3 9 -1 
5472 6 0.625139 0.383297 0.111998 -4 6 1 
8977 6 0.729221 0.383285 0.071187 -2 -2 -1 
6901 5 0.96396 0.41398 0.0457234 -6 -5 3 
8373 6 0.915468 0.462353 0.076271 -4 -2 10 
7906 5 0.271167 0.485605 0.0755026 3 9 3 
8341 5 0.0821592 0.480083 0.100504 -1 7 0 
8018 6 0.226287 0.498528 0.0666517 -7 -8 7 
5120 6 0.301547 0.456999 0.0765677 0 -3 -4 
7125 6 0.544293 0.495548 0.0734416 2 1 5 
5540 5 0.706072 0.488279 0.0909019 -9 0 -3 
5153 5 0.488025 0.515495 0.0804723 -5 6 -2 
6882 5 0.943125 0.519042 0.0545994 3 4 0 
6875 6 0.973076 0.504764 0.0402413 -2 5 -1 
7824 5 0.304234 0.563076 0.0254674 0 -8 3 
6778 6 0.204528 0.590574 0.0622917 3 -3 -5 
8888 6 0.725513 0.589429 0.0727828 -1 0 1 
7138 5 0.811861 0.595308 0.10893 -8 -9 5 
6988 5 0.36012 0.594813 0.117559 3 -2 -2 
5785 6 0.636998 0.617832 0.0680871 -3 -3 -5 
7437 6 0.0789917 0.61616 0.0349532 11 -2 -1 
8953 5 0.219842 0.629732 0.107273 0 2 -9 
7074 6 0.248593 0.593309 0.0815887 1 -3 1 
5704 5 0.00805227 0.631485 0.0752538 7 1 -2 
5851 6 0.342676 0.649384 0.0551004 3 4 -5 
5696 6 0.982785 0.652323 0.0876132 6 -3 2 
6025 5 0.430152 0.662135 0.077155 3 -4 -1 
7196 5 0.528119 0.648948 0.102806 -9 1 -5 
6642 5 0.632706 0.687294 0.0739036 0 -1 -1 
6912 6 0.495693 0.698511 0.0861002 4 -5 3 
6284 6 0.853049 0.694451 0.0722033 -5 -2 -8 
8448 5 0.904777 0.654804 0.0548407 5 -7 3 
5973 6 0.649645 0.722353 0.0930691 7 5 1 
6179 5 0.7652 0.71492 0.0923382 3 5 10 
8412 6 0.763893 0.735565 0.0647552 4 -6 2 
6241 5 0.229252 0.767626 0.0952022 3 5 -6 
7178 6 0.319124 0.740219 0.0796693 -5 6 3 
7313 5 0.00634522 0.726313 0.0620155 -1 -8 -6 
8515 6 0.570278 0.80555 0.0858707 -13 -3 7 
8771 6 0.901431 0.815981 0.0750243 3 2 1 
6015 6 0.300878 0.856072 0.0729496 1 -4 -5 
6876 6 0.458566 0.816408 0.0666088 -5 -3 4 
7303 5 0.334403 0.844956 0.0785951 -2 -1 5 
5893 5 0.456496 0.851875 0.0846886 -5 0 -12 
8361 6 0.970236 0.874906 0.118487 -12 1 8 
8788 5 0.142217 0.849452 0.056308 -1 -5 -5 
8792 6 0.666097 0.872443 0.0949514 7 -3 -4 
7874 5 0.669242 0.862586 0.0998172 0 1 -1 
8640 5 0.874605 0.870489 0.0257321 -3 -3 -10 
7068 5 0.500054 0.934746 0.0575485 5 -6 -3 
8422 5 0.423597 0.916102 0.0645322 -3 -5 -3 
8405 5 0.747631 0.919944 0.107832 1 0 -7 
6130 5 0.750903 0.888454 0.0424473 2 -5 0 
5568 6 0.0221204 0.930285 0.0826882 -3 -5 -4 
7364 6 0.282811 0.965714 0.123643 -2 -2 0 
7529 5 0.461905 0.950159 0.091541 2 4 -2 
6129 5 0.552911 0.938387 0.078669 -3 8 -2 
6375 6 0.855879 0.97804 0.110919 7 2 -8 
5670 5 0.138388 0.033557 0.118818 -1 -7 -5 
6916 6 0.313827 0.0284775 0.139106 -4 2 4 
6319 5 0.621273 0.0404829 0.0878107 2 3 -6 
6269 6 0.62658 0.0524414 0.0982331 -6 0 -4 
8459 5 0.817809 0.0878622 0.0961611 -5 0 5 
8941 5 0.195906 0.0850695 0.141096 -1 5 0 
6087 6 0.394568 0.105047 0.0965851 -4 2 3 
8462 6 0.18313 0.13906 0.0854518 2 1 5 
8304 5 0.179039 0.121145 0.154258 -4 0 7 
7341 5 0.470269 0.148036 0.101374 5 -3 2 
8434 6 0.553186 0.13989 0.0660178 -4 -12 6 
7155 5 0.220042 0.184334 0.0882324 -1 8 -1 
8664 6 0.586647 0.184299 0.0699447 -3 -4 3 
6409 5 0.221102 0.178617 0.096999 -6 5 2 
6894 5 0.514157 0.242063 0.122578 -5 -5 -6 
8418 6 0.913788 0.191711 0.0987203 -1 0 1 
6455 6 0.471235 0.233573 0.0997345 -4 -2 -3 
5678 5 0.195442 0.242566 0.101866 -3 0 -1 
8885 5 0.956261 0.280935 0.110318 -6 -2 -10 
6257 6 0.191119 0.294872 0.0661744 -3 6 4 
6732 5 0.232575 0.308029 0.126297 13 0 -3 
7192 5 0.435538 0.275459 0.110747 -4 -5 4 
6083 6 0.247973 0.33056 0.123909 -5 -5 -1 
8433 6 0.626773 0.294407 0.0900684 -3 3 8 
6964 5 0.807892 0.307993 0.109717 3 -5 -4 
6593 6 0.132827 0.287404 0.0815444 1 -7 5 
5522 5 0.867763 0.307562 0.106475 3 -2 -7 
8853 5 0.409258 0.332244 0.108286 6 -5 -5 
8707 6 0.968723 0.340815 0.0518155 -2 2 8 
7413 6 0.526366 0.402746 0.121403 -4 6 2 
8309 6 0.333439 0.430196 0.112311 0 2 0 
6381 6 0.642586 0.40331 0.0919006 1 5 -2 
6779 6 0.722626 0.421932 0.12594 7 0 10 
8321 5 0.486595 0.44106 0.116098 2 -7 9 
8779 5 0.669552 0.422165 0.0824062 6 -1 -2 
8512 6 0.796338 0.4555 0.118856 -3 1 -4 
7461 5 0.822257 0.462 0.117369 0 -1 -4 
5905 5 0.0433194 0.473571 0.133542 7 3 -4 
7375 5 0.24457 0.47759 0.0901958 2 -1 -3 
8284 6 0.239227 0.517393 0.127581 6 1 -3 
7380 5 0.467569 0.473217 0.143643 3 5 -6 
5122 5 0.977269 0.483094 0.12616 -3 1 -3 
5520 5 0.164051 0.471942 0.0967672 1 1 -3 
7531 6 0.242269 0.505192 0.105465 3 3 -2 
8690 6 0.289893 0.514563 0.0741155 -1 1 0 
5483 6 0.170884 0.540215 0.124319 4 -2 -3 
7612 6 0.454927 0.562559 0.071014 -5 -10 -1 
5947 6 0.00116833 0.570886 0.1241 2 0 -1 
5719 5 0.54859 0.569352 0.0911589 2 0 -2 
6987 6 0.818136 0.588397 0.123743 -5 1 -1 
5245 6 0.108794 0.596617 0.107052 -3 1 2 
6816 6 0.400817 0.616085 0.105242 2 3 5 
5695 5 0.823912 0.606473 0.0845136 10 1 3 
8455 5 0.883246 0.590134 0.110567 0 -7 -4 
5709 5 0.0306552 0.610692 0.126677 0 1 -4 
5842 6 0.637035 0.596087 0.125172 -1 0 4 
5099 6 0.993885 0.611848 0.111381 -5 -1 3 
6904 6 0.0619731 0.693906 0.142138 -3 0 2 
8342 6 0.504218 0.672021 0.122653 5 7 -2 
5376 6 0.606486 0.664968 0.101684 0 7 4 
7713 5 0.930091 0.659197 0.1181 -7 -6 3 
5536 5 0.0125491 0.647836 0.099508 6 -5 7 
8535 6 0.38576 0.673521 0.0670613 -2 -11 -2 
7265 5 0.58344 0.692322 0.106418 0 3 -2 
8932 5 0.25772 0.710004 0.100791 0 -1 8 
5888 5 0.686135 0.762941 0.0877877 0 -7 -4 
6237 6 0.753795 0.786281 0.0849752 0 1 -1 
8383 6 0.762991 0.792874 0.0849957 -5 0 -1 
8027 6 0.258568 0.766735 0.0993108 3 -8 -3 
6121 5 0.593011 0.795596 0.136171 -1 1 2 
7908 6 0.434498 0.837592 0.0957444 3 -1 -6 
7679 6 0.712232 0.845406 0.107204 -2 -3 5 
5455 6 0.605064 0.863677 0.116474 0 -7 -1 
7663 6 0.0376354 0.92759 0.107388 0 -4 -4 
6032 5 0.206445 0.900575 0.1443 7 9 2 
8645 5 0.438953 0.938467 0.101131 2 -4 -5 
8685 5 0.0671036 0.922557 0.130292 5 -6 -5 
7316 6 0.231954 0.940873 0.113254 5 -5 1 
6745 6 0.88178 0.963044 0.0863231 0 1 9 
8627 5 0.977046 0.9368 0.136381 -10 -3 -8 
5658 6 0.241329 1.00279 0.116974 10 -3 -1 
8193 5 0.491341 0.95025 0.0551992 -5 6 -9 
7045 6 0.55144 0.998719 0.102853 4 2 3 
5787 5 0.758791 0.981841 0.0784638 4 6 3 
5497 6 0.344965 0.951901 0.0960746 1 -3 -2 
8256 6 0.595802 0.0293607 0.0934544 -2 3 3 
7090 6 0.950108 0.0181306 0.0995953 3 4 -4 
5815 5 0.813397 0.0131967 0.111531 1 1 5 
7059 6 0.81347 0.0282176 0.103889 3 5 -4 
6106 6 0.93305 0.0551078 0.107841 -3 6 2 
7029 5 0.345473 0.0277939 0.112003 -5 0 -4 
5508 5 0.708634 0.084846 0.150817 -1 4 -1 
8090 6 0.287308 0.10829 0.102737 4 -1 -3 
6994 5 0.77619 0.088383 0.138991 -2 12 1 
5781 6 0.0404235 0.130955 0.143465 2 -4 -1 
6620 5 0.614338 0.155916 0.113736 3 -3 -6 
5216 5 0.672731 0.157684 0.13067 4 2 0 
7698 6 0.737931 0.217504 0.129615 -2 1 0 
5065 6 0.982894 0.240623 0.14282 -7 -5 -5 
8995 5 0.642735 0.253001 0.136559 -7 7 -1 
7745 5 0.59864 0.233464 0.13734 -7 -1 0 
5413 6 0.58664 0.271345 0.13893 1 -6 1 
6388 6 0.275638 0.295711 0.144264 5 3 -1 
6386 6 0.569976 0.26395 0.137267 -6 -5 0 
6641 6 0.736865 0.287782 0.118189 9 -6 2 
5248 5 0.745657 0.286512 0.123749 -1 -2 -4 
8661 6 0.0742887 0.287918 0.105124 -2 -4 0 
5326 5 0.449282 0.330152 0.0636352 -4 -4 7 
7353 6 0.831524 0.338831 0.118521 5 1 -1 
7587 5 0.0450321 0.351121 0.139896 6 1 -6 
6587 5 0.12721 0.362857 0.0950078 -1 0 -2 
5680 6 0.591989 0.379495 0.112739 -4 0 2 
6162 6 0.608968 0.337135 0.0737183 -7 -14 -2 
8928 5 0.92651 0.337337 0.124708 1 6 -2 
5234 6 0.952419 0.348914 0.13795 4 1 -5 
6049 6 0.278391 0.350128 0.132 -6 5 -1 
6115 6 0.583968 0.368891 0.136389 -8 -1 4 
5692 6 0.902635 0.374668 0.117061 7 -1 8 
7888 6 0.97625 0.399418 0.100332 5 2 1 
5087 6 0.940033 0.394265 0.0964357 1 -4 2 
8475 5 0.189463 0.437633 0.123023 4 0 -10 
7129 5 0.499653 0.391972 0.155375 2 1 -1 
5444 6 0.576712 0.442719 0.146151 -5 -5 1 
5235 5 0.715679 0.468281 0.132369 -1 2 -2 
5555 5 0.137949 0.472628 0.095806 -6 4 7 
6439 6 0.191936 0.507185 0.123006 0 0 -5 
8644 5 0.0694813 0.513124 0.105642 -3 5 7 
7933 5 0.891506 0.533375 0.124431 2 -9 -4 
7723 6 0.122148 0.57675 0.111174 -3 -1 -6 
6931 6 0.135844 0.559659 0.119465 5 -5 0 
8092 6 0.244672 0.531304 0.113915 -8 5 6 
6726 6 0.245476 0.577605 0.0929445 3 10 0 
5685 6 0.89856 0.556039 0.0769829 -5 -9 8 
7935 5 0.512172 0.553531 0.125503 5 -6 -1 
6933 6 0.442132 0.562615 0.135129 5 -4 -8 
7142 5 0.741034 0.65298 0.126798 1 7 -4 
6000 6 0.556795 0.624563 0.124632 -5 7 -2 
6952 6 0.737409 0.644431 0.142344 0 -1 7 
5006 5 0.722134 0.616253 0.119666 2 2 0 
6592 6 0.284425 0.648518 0.139409 -9 -5 -1 
8155 6 0.937814 0.676591 0.115471 -8 -4 3 
5062 5 0.0246872 0.717301 0.107307 4 -9 -2 
8950 5 0.0487192 0.711808 0.129151 1 7 8 
7688 6 0.0234571 0.742486 0.132281 4 -2 0 
7480 6 0.0343039 0.700502 0.121271 2 -1 0 
7163 6 0.131048 0.716057 0.125382 8 -3 -7 
6072 6 0.244296 0.746283 0.137635 10 4 0 
6133 6 0.597105 0.717502 0.115898 5 -2 -2 
6461 6 0.829568 0.708318 0.118945 6 -9 -4 
6390 5 0.880283 0.701995 0.111772 2 4 -1 
7343 5 0.329252 0.791397 0.107152 6 0 5 
5811 6 0.399137 0.774468 0.11445 0 1 -4 
6837 5 0.475343 0.829844 0.0976975 6 -5 -4 
6195 6 0.167101 0.788978 0.119489 -1 4 -8 
7387 6 0.204542 0.843222 0.125294 4 -8 3 
5946 5 0.465518 0.85054 0.131457 -6 8 2 
5405 6 0.207895 0.848355 0.136077 6 3 -1 
8849 6 0.377879 0.888543 0.121729 5 -1 -5 
8898 6 0.178987 0.929436 0.143566 -3 6 -3 
8414 6 0.806661 0.885032 0.13348 0 -2 1 
8638 6 0.843638 0.903743 0.113471 3 3 7 
7404 6 0.96562 0.917843 0.129915 0 -4 -1 
7681 6 0.981119 0.889354 0.158879 -4 -1 1 
8919 5 0.0304306 0.931028 0.115941 5 4 -8 
7880 6 0.148544 0.960182 0.14944 6 2 5 
5567 6 0.740106 0.929032 0.114718 -3 -5 -11 
6588 6 0.0842007 0.986518 0.126384 -6 6 0 
7719 5 0.546282 0.969356 0.0941072 1 -4 -6 
6212 6 0.538751 0.954386 0.107747 0 4 6 
8575 5 0.926978 0.944422 0.120335 3 -4 4 
7103 5 0.941767 0.972153 0.100352 5 -7 5 
6336 5 0.967566 0.954134 0.0960967 6 -4 2 
7336 6 0.625648 0.97239 0.109593 -2 -4 6 
5392 6 0.904322 1.99709e-05 0.133432 8 -4 -6 
7083 6 0.258099 0.0184384 0.161424 3 -3 -1 
5890 6 0.767322 0.00786162 0.157166 2 3 3 
8672 5 0.967869 0.0477033 0.161731 7 3 -5 
6739 6 0.171213 0.104414 0.143104 0 5 -4 
6183 5 0.246319 0.0703279 0.119338 0 -4 -1 
5188 5 0.992216 0.0857263 0.160936 -1 0 2 
7076 6 0.551185 0.144903 0.152345 -10 7 2 
7992 6 0.860872 0.0896834 0.121845 0 -15 3 
8516 6 0.889276 0.0971785 0.125212 -7 -1 7 
7206 5 0.102208 0.198166 0.137245 -1 11 2 
6656 5 0.802929 0.187463 0.154391 0 4 -6 
5660 6 0.786625 0.151703 0.153622 -4 5 3 
6141 6 0.878232 0.169686 0.149274 -1 5 0 
5911 5 0.0697625 0.230378 0.122857 -2 -3 3 
8338 6 0.703689 0.167022 0.145196 4 -1 -2 
5845 6 0.66845 0.200369 0.147504 -4 3 5 
5411 6 0.26122 0.202372 0.181097 3 2 5 
6208 6 0.719595 0.191566 0.143438 3 -7 -3 
7925 6 0.0716412 0.300808 0.123165 -10 0 0 
8261 6 0.810671 0.233396 0.150631 0 -2 -1 
7434 5 0.555756 0.303093 0.138444 -3 1 -4 
7134 5 0.582985 0.298262 0.152107 -4 0 -6 
8966 6 0.614586 0.296893 0.140071 -2 -2 -9 
6111 5 0.705061 0.250553 0.141297 1 0 5 
7533 5 0.8606 0.260266 0.158975 -1 -4 10 
6045 6 0.0623173 0.314923 0.168948 -2 0 0 
5137 5 0.278656 0.344308 0.136811 -1 -2 0 
8837 6 0.367105 0.292176 0.146083 -2 1 -1 
5035 6 0.467164 0.32199 0.16937 9 5 6 
7664 6 0.773349 0.343635 0.16076 -8 10 -8 
8775 6 0.823549 0.317545 0.164502 2 2 2 
6884 5 0.0637526 0.370789 0.131107 -5 -6 3 
6110 5 0.0308075 0.356241 0.159356 -10 5 -7 
5193 6 0.674882 0.392334 0.151776 4 0 -1 
5397 5 0.744199 0.326261 0.145264 7 0 2 
5372 5 0.53945 0.395273 0.162771 -5 0 1 
7379 5 0.649179 0.39818 0.181649 8 -5 5 
7467 5 0.751665 0.408262 0.151242 -2 1 -2 
8848 5 0.993955 0.392768 0.15031 -4 -3 6 
7078 5 0.624848 0.432742 0.132038 -11 -5 -4 
5948 5 0.307031 0.400524 0.140402 3 -8 -3 
7897 5 0.374072 0.450894 0.135617 6 -3 5 
7700 6 0.97939 0.410493 0.120196 0 2 -9 
5171 6 0.550557 0.486451 0.0943629 0 -1 8 
8803 6 0.533238 0.457351 0.148302 9 1 -3 
5627 6 0.947534 0.44481 0.154948 3 -1 -1 
6364 6 0.223347 0.483526 0.160458 0 10 -1 
8712 6 0.307331 0.490308 0.156602 -3 -4 3 
7287 5 0.114695 0.569789 0.162071 -10 -7 0 
6680 5 0.618992 0.527621 0.156601 2 -1 4 
8083 6 0.0750678 0.57897 0.128553 -9 -8 10 
7440 5 0.367964 0.580148 0.17962 8 -1 3 
5738 6 0.645179 0.575852 0.131397 1 -3 -7 
6174 6 0.921981 0.594047 0.149266 1 -5 3 
8642 6 0.991503 0.559551 0.184184 9 -3 -1 
6331 5 0.213632 0.612698 0.146359 -1 4 -3 
8621 6 0.776346 0.638304 0.173414 0 -4 0 
6872 5 0.32769 0.645462 0.138204 0 -3 0 
5807 5 0.475641 0.596089 0.145815 4 0 -9 
7812 6 0.598457 0.605746 0.129166 3 6 -4 
5073 6 0.943174 0.658328 0.154527 8 3 -1 
8781 6 0.235181 0.66843 0.125805 6 1 0 
6310 6 0.667091 0.606996 0.151345 3 -5 -2 
8043 6 0.676269 0.648016 0.209889 1 -11 6 
5566 6 0.666352 0.645189 0.128412 3 1 -7 
8518 6 0.915405 0.617126 0.120231 -3 -2 3 
6906 5 0.13191 0.637582 0.115522 -8 4 -10 
8052 6 0.441741 0.654761 0.141833 0 -1 4 
6218 5 0.0183172 0.665504 0.137425 -4 -2 -4 
8317 6 0.479895 0.755569 0.168494 7 2 4 
5302 6 0.637373 0.680268 0.168648 -3 3 2 
5737 5 0.0691158 0.713364 0.118996 5 6 -1 
7570 5 0.244927 0.720491 0.154864 0 -2 0 
6222 6 0.403996 0.740581 0.151525 -4 -3 4 
8323 5 0.493562 0.713889 0.141778 -5 5 6 
7795 6 0.0463868 0.722723 0.163089 -2 0 -4 
8974 6 0.426449 0.793504 0.128758 -1 -13 1 
5409 6 0.650804 0.736896 0.144519 5 5 -1 
6966 6 0.163284 0.775488 0.153463 -4 -6 0 
5858 6 0.439849 0.776575 0.13019 0 0 2 
6515 6 0.78622 0.778326 0.135124 -3 3 7 
6027 6 0.961753 0.80411 0.1372 -5 2 3 
6464 6 0.342357 0.805113 0.126671 -6 -4 7 
8428 5 0.357653 0.827337 0.142539 5 4 -8 
6105 5 0.849401 0.813669 0.136774 2 1 2 
7294 6 0.857031 0.859561 0.161762 4 1 -5 
5610 5 0.149656 0.914361 0.155376 6 2 0 
8841 5 0.313315 0.851242 0.21585 2 0 1 
8174 6 0.948168 0.911814 0.145826 -2 0 -7 
8579 6 0.331193 0.8903 0.157421 6 -3 6 
6836 5 0.379919 0.913631 0.131613 2 -5 -3 
5004 6 0.546606 0.904544 0.142905 4 5 6 
6203 5 0.888241 0.90372 0.17464 -1 -3 4 
8286 6 0.0639104 0.94659 0.165851 4 -4 1 
7044 5 0.547281 0.937613 0.138371 -4 5 1 
7052 5 0.98287 0.944823 0.161102 -5 6 -1 
8259 6 0.180089 0.982854 0.143691 3 3 5 
8630 5 0.620696 0.985635 0.135717 1 0 0 
8980 5 0.244359 0.969477 0.183669 10 1 -1 
6985 5 0.0452585 0.0728709 0.14087 5 -9 5 
5461 6 0.0764903 0.0170757 0.192212 1 1 6 
7378 5 0.296198 0.0459223 0.17647 4 6 -5 
8625 6 0.845575 0.0528002 0.184801 -2 6 9 
7827 6 0.314005 0.0533164 0.158017 -2 4 10 
5539 6 0.508734 0.0568642 0.184737 2 -3 -2 
8093 6 0.576661 0.0602801 0.191434 -1 10 5 
5809 5 0.882604 0.0942167 0.199506 -7 4 -2 
7849 5 0.188168 0.114371 0.167521 -7 3 6 
8329 6 0.993881 0.115033 0.185582 0 -4 -3 
8965 6 0.425592 0.158605 0.183707 -2 2 5 
7545 6 0.842467 0.144799 0.172897 4 3 1 
7420 5 0.244812 0.148425 0.171262 -2 0 -5 
7729 6 0.0578196 0.172431 0.174352 5 5 5 
5141 5 0.0540739 0.246894 0.123814 -4 -6 -3 
5147 5 0.453613 0.242547 0.188937 0 4 7 
6024 6 0.660688 0.257286 0.158686 -1 0 1 
7989 5 0.794933 0.243602 0.132623 2 -3 3 
7683 5 0.944344 0.240182 0.185495 -1 -2 -1 
5621 6 0.0586727 0.262915 0.191487 -8 -2 2 
8615 5 0.285988 0.22899 0.161631 -2 -1 -1 
8147 5 0.521105 0.225276 0.175392 -2 4 1 
5613 5 0.0698266 0.318274 0.168195 0 2 -7 
8168 5 0.85638 0.285133 0.147552 0 -6 -7 
6704 6 0.879301 0.317352 0.167927 -1 2 4 
5716 5 0.0942816 0.298013 0.165228 5 0 4 
5836 6 0.144892 0.325354 0.173267 0 -1 5 
5826 6 0.386439 0.320474 0.166887 3 -2 1 
7229 6 0.679528 0.308439 0.137795 -7 2 -5 
5060 5 0.195855 0.366626 0.158642 0 -7 -5 
5767 6 0.386768 0.309509 0.104517 -3 10 5 
8697 5 0.518089 0.296822 0.146236 -3 3 5 
7388 5 0.838594 0.361571 0.148713 -5 1 7 
6262 5 0.112871 0.346093 0.187518 5 -1 -1 
7986 6 0.508345 0.364232 0.183278 -4 -5 1 
7079 6 0.140213 0.389046 0.166146 -1 0 -4 
6143 5 0.384515 0.384733 0.190564 -2 2 -1 
8738 5 0.372079 0.39349 0.147626 7 -6 2 
8855 5 0.452267 0.453574 0.182817 3 -6 6 
7394 6 0.425658 0.388986 0.19039 -4 4 2 
7658 5 0.795957 0.389954 0.205566 -4 10 0 
7555 6 0.123637 0.412649 0.113403 5 -8 -4 
8804 5 0.492613 0.45737 0.172169 1 2 6 
7945 6 0.859136 0.495672 0.145894 4 1 2 
7666 6 0.668051 0.43862 0.147913 4 0 0 
7682 5 0.417595 0.514352 0.120956 -1 2 -1 
6285 6 0.510119 0.454624 0.179587 -5 2 -2 
6466 5 0.894343 0.47563 0.152922 4 0 -3 
7261 6 0.0778556 0.48282 0.180272 -5 -6 2 
7684 5 0.531459 0.485069 0.158672 1 6 2 
8679 5 0.726846 0.493859 0.157909 -4 3 3 
5603 5 0.821941 0.533345 0.166014 -1 0 -1 
7268 5 0.829345 0.501629 0.18043 -4 1 5 
6176 6 0.936177 0.547485 0.20953 3 2 7 
6649 6 0.192543 0.626891 0.164512 1 -1 1 
6021 6 0.388268 0.599671 0.151229 0 7 -2 
7181 5 0.660888 0.589772 0.161148 0 5 6 
5825 6 0.132122 0.595511 0.152495 1 7 5 
7157 6 0.221997 0.618066 0.149448 3 3 -5 
5841 6 0.263233 0.624827 0.190386 0 6 1 
8339 5 0.385638 0.604792 0.140452 6 1 4 
7285 6 0.220884 0.679846 0.153139 -6 2 1 
8878 6 0.379591 0.687872 0.198961 -8 -1 2 
5387 6 0.636767 0.696481 0.192132 4 -4 -2 
7721 5 0.973463 0.646952 0.192425 -6 7 1 
7120 6 0.635839 0.636834 0.146176 -5 -3 -1 