ITEM: TIMESTEP
20000000
ITEM: NUMBER OF ATOMS
9000
ITEM: BOX BOUNDS pp pp pp
-75 75
-75 75
-75 75
ITEM: ATOMS id type xs ys zs ix iy iz 
7609 6 0.720704 0.0494915 0.0164158 0 2 -1 
7094 5 0.71064 0.00513841 0.962423 -1 0 2 
7083 6 0.927554 0.972121 0.983632 -1 0 0 
8342 5 0.870313 0.0616201 0.0110785 -2 0 1 
6365 6 0.163978 0.0504076 0.00348908 -1 2 -3 
8189 5 0.134964 0.0630438 0.998118 -1 -1 2 
7270 5 0.313309 0.1028 0.035797 -1 -4 -3 
6480 6 0.479679 0.0980192 0.998846 0 -6 0 
7227 6 0.513171 0.0626151 0.0385241 -2 -3 3 
5050 6 0.38539 0.147437 0.992589 0 1 -3 
5160 6 0.503042 0.140952 0.0344688 -2 0 -1 
5612 5 0.152789 0.160417 0.0378215 0 3 -1 
6085 6 0.767235 0.172735 0.955897 -2 1 -6 
7740 5 0.790976 0.25087 0.98359 2 -1 5 
7499 5 0.11508 0.243107 0.0212295 -2 -2 -1 
7242 6 0.523812 0.255386 0.0332159 0 5 3 
7428 6 0.672522 0.263499 0.0124496 0 0 0 
6156 5 0.734058 0.283028 0.0130812 2 -1 3 
7624 5 0.885813 0.238467 0.0149613 2 -1 0 
7991 5 0.126098 0.285476 0.981494 6 -1 -2 
7087 6 0.262297 0.302703 0.964664 -3 -1 -3 
7344 6 0.281107 0.27544 0.99695 3 0 1 
5339 5 0.0314266 0.292381 0.0153898 -6 -1 2 
7590 5 0.267991 0.299606 0.0384318 -1 2 1 
5196 5 0.477608 0.333732 0.062025 0 5 -1 
8751 6 0.541481 0.318765 0.987379 3 -3 -3 
8126 6 0.681368 0.282073 0.972435 -1 -4 -2 
7184 6 0.410269 0.354815 0.0520795 1 -3 4 
6054 5 0.597822 0.349831 0.050267 -2 -2 -2 
5613 5 0.749849 0.356403 0.985053 1 1 0 
6663 6 0.981774 0.396988 0.972846 -1 -2 -3 
5486 6 0.359184 0.409838 0.0120444 0 -1 1 
5334 6 0.568031 0.420258 0.0101641 -2 0 1 
7241 6 0.68493 0.449082 0.0432724 2 -4 -1 
8943 6 0.148787 0.462867 0.0063379 -1 -1 3 
6286 6 0.72323 0.440792 0.0170325 2 -7 -2 
8105 5 0.00898797 0.408277 0.991826 -2 -1 -5 
7866 5 0.614006 0.485953 0.996904 -5 5 5 
6528 6 0.0407209 0.513755 0.013135 6 -2 1 
8808 6 0.836624 0.527794 0.970135 1 3 -6 
8989 6 0.447472 0.548683 0.00386938 -4 -1 3 
5497 5 0.953222 0.59515 0.0443542 -2 -5 -4 
8174 5 0.0563048 0.571062 0.0293724 0 2 5 
8582 5 0.144145 0.580725 0.995143 -3 -6 -1 
8208 6 0.193728 0.558579 0.0145735 -1 6 1 
7288 5 0.636106 0.533774 0.00719571 3 1 -2 
5311 6 0.0039975 0.569313 0.00676459 -2 2 0 
6742 6 0.768411 0.618617 0.025835 3 -2 1 
7188 6 0.032268 0.587764 0.00754198 2 0 1 
7039 6 0.637409 0.625608 0.982995 -2 3 -4 
5899 5 0.197764 0.635225 0.0332706 -7 0 2 
5471 5 0.00281535 0.667148 0.0514491 -3 4 -3 
6901 6 0.178555 0.697668 0.941042 5 -6 -3 
5531 6 0.56486 0.684817 0.0161699 0 1 -2 
5779 5 0.0568449 0.697988 0.0235031 3 -2 -3 
5736 6 0.428427 0.690221 0.0193413 0 2 -1 
5027 6 0.827048 0.669099 0.074897 2 -1 6 
5120 6 0.336361 0.746887 0.995318 1 -1 -4 
8628 6 0.623105 0.766475 0.00950245 1 -4 -1 
6425 6 0.948457 0.768235 0.00922857 0 -2 0 
8315 5 0.556254 0.779134 0.00187464 0 5 -1 
8800 6 0.853806 0.809451 0.998096 -4 0 -2 
8030 5 0.148793 0.776362 0.00628303 4 -3 -1 
7299 6 0.29222 0.815689 0.967959 4 1 0 
5369 5 0.712972 0.820847 0.994564 -3 -1 -5 
7856 5 0.807886 0.80769 0.990769 0 -2 -4 
8206 5 0.195989 0.808882 0.965507 -7 -2 1 
6126 6 0.675326 0.869688 0.0373587 -4 0 3 
6682 6 0.974604 0.855018 0.0296688 -5 3 0 
7794 5 0.465629 0.884864 0.00284815 -3 1 4 
8601 6 0.145029 0.957878 0.0117177 5 -1 4 
8017 5 0.207972 0.892593 0.979477 -1 0 0 
8433 6 0.340553 0.947512 0.0502369 8 -7 3 
5656 5 0.483486 0.920135 0.0114256 -2 6 -1 
5475 5 0.974345 0.876122 0.992699 -1 -2 2 
5901 6 0.609513 0.958415 0.0114162 2 0 3 
8418 6 0.292066 0.993119 0.00570166 1 -1 -2 
7847 5 0.643349 0.96791 0.0507855 -4 -2 -3 
5344 6 0.572049 0.0143834 0.0358769 -6 -3 3 
5275 6 0.248651 0.160584 0.04757 0 1 -2 
6056 5 0.535089 0.115804 0.0810063 -3 3 2 
7563 6 0.57838 0.178027 0.0152429 -3 3 -1 
5572 6 0.830384 0.180211 0.0283987 -1 5 -5 
8313 6 0.212938 0.141143 0.0442375 0 1 2 
8360 6 0.32109 0.152864 0.0168113 0 2 -1 
5717 5 0.406888 0.179882 0.0577614 -1 2 0 
8583 5 0.397088 0.242685 0.0337336 -6 -2 0 
6075 6 0.0128626 0.230624 0.0442035 3 3 6 
6933 6 0.568192 0.258101 0.0202549 3 3 5 
5550 5 0.759124 0.271269 0.017135 -1 -3 4 
7375 5 0.241489 0.301072 0.99774 -4 2 1 
7033 5 0.507388 0.287568 0.027164 0 -7 -3 
5556 6 0.433615 0.325559 0.0468537 1 3 0 
5217 5 0.0712749 0.33065 0.0197235 -1 3 -1 
7614 6 0.41029 0.331415 0.0129601 4 5 1 
8365 6 0.117464 0.408543 0.0206546 -4 2 0 
5299 6 0.329929 0.388325 0.0192672 -1 3 1 
6484 5 0.337993 0.377284 0.024961 -4 -6 5 
6576 5 0.74297 0.367487 0.03157 -3 3 3 
5398 6 0.644721 0.460665 0.0330984 -2 1 1 
5605 6 0.729255 0.447164 0.032496 2 -1 2 
7004 6 0.187256 0.490835 0.0255378 2 -6 2 
7581 6 0.841603 0.558369 0.0335542 -1 0 6 
5170 6 0.318095 0.493582 0.990913 0 0 -2 
7168 6 0.702664 0.516737 0.0116343 0 -5 2 
7671 5 0.764543 0.499785 0.996138 -1 -1 4 
6094 6 0.920627 0.531637 0.976893 -1 3 -1 
8103 6 0.763292 0.549052 0.0289275 -2 -1 0 
6160 5 0.987273 0.625537 0.0167764 3 -4 3 
6418 5 0.976967 0.600511 0.0364528 0 0 6 
7918 5 0.12821 0.612024 0.0279766 1 3 -1 
8090 6 0.373307 0.656687 0.0183799 2 0 0 
7431 5 0.339858 0.637618 0.00904907 -5 3 -5 
5138 5 0.395107 0.639058 0.0339825 5 0 3 
6719 6 0.633963 0.649095 0.0509471 -6 -2 1 
7329 6 0.827225 0.62866 0.981045 0 1 4 
5005 6 0.239398 0.601995 0.0209479 0 3 4 
6253 6 0.305085 0.633397 0.0291056 7 -2 1 
6492 6 0.541719 0.651747 0.0505359 -2 0 -1 
7600 6 0.864727 0.679886 0.0465135 -1 4 -9 
5176 6 0.197574 0.693002 0.0488159 -2 -3 1 
7815 6 0.0563324 0.701237 0.0401671 0 -1 4 
8864 5 0.771116 0.718225 0.0201657 -2 1 0 
8503 6 0.91512 0.734116 0.0445016 -4 1 2 
8872 6 0.122403 0.779011 0.0434847 2 0 0 
7604 6 0.358823 0.739233 0.0271349 1 0 1 
5073 5 0.582905 0.763284 0.992354 -2 0 -4 
8664 5 0.659276 0.781648 0.0456858 5 -3 -5 
6405 6 0.187664 0.802017 0.0354993 -9 0 0 
7417 5 0.339616 0.801505 0.0227348 -1 -8 1 
5602 6 0.785129 0.807141 0.0496774 -2 -1 1 
5159 6 0.0602118 0.850489 0.0659747 0 -4 -2 
7052 5 0.132368 0.830035 0.0728269 7 1 -3 
6667 6 0.464676 0.806747 0.024717 -3 -2 4 
7293 5 0.155494 0.835089 0.0252556 -3 0 -1 
8216 6 0.261712 0.860965 0.0150793 2 -2 5 
7914 5 0.787147 0.854339 0.0135607 -3 -3 0 
5776 6 0.649302 0.892446 0.0491541 1 -3 8 
6359 5 0.644314 0.880616 0.0207784 7 3 -4 
6383 5 0.00245929 0.887238 0.0211906 1 -1 0 
5438 6 0.502456 0.938915 0.0221156 2 3 0 
6808 5 0.0435304 0.929016 0.0812705 2 -3 -4 
6731 6 0.113278 0.992176 0.0305103 0 4 1 
6880 6 0.303508 0.0511796 0.0934825 -6 -1 -1 
8605 5 0.504464 0.0320797 0.039309 2 -2 4 
5025 5 0.86201 0.11679 0.0588294 1 -2 -1 
5397 6 0.810272 0.0705625 0.0140921 2 -5 -2 
7153 5 0.909434 0.118692 0.0343717 -3 -5 5 
7569 6 0.658169 0.13459 0.0228014 3 -2 2 
8116 5 0.768837 0.146286 0.0953026 3 0 -3 
7446 5 0.859737 0.0932046 0.0361146 3 1 5 
6632 5 0.569811 0.197275 0.052333 0 0 6 
5291 5 0.862015 0.183213 0.0421125 0 1 3 
7125 5 0.260766 0.24997 0.0312662 2 4 -2 
8349 6 0.872659 0.219439 0.0263369 0 6 3 
6348 5 0.742229 0.291068 0.0239054 0 2 0 
8481 6 0.928797 0.247617 0.0949126 0 -4 0 
7260 5 0.703765 0.320614 0.0382053 -4 -2 -8 
5236 6 0.78774 0.309828 0.0775498 -3 2 0 
6991 6 0.0128461 0.324959 0.0765706 3 4 -3 
6624 6 0.674091 0.363749 0.069003 3 3 2 
6009 6 0.979206 0.377901 0.0374226 1 0 0 
5198 5 0.188106 0.402311 0.0594349 2 -1 1 
7049 5 0.0490966 0.449233 0.0515602 -1 0 -1 
5792 6 0.540795 0.454324 0.0974109 -3 1 -3 
7203 6 0.491589 0.500135 0.0766375 2 -2 -1 
8249 6 0.667641 0.461799 0.018582 -1 0 -3 
7670 6 0.734764 0.512443 0.0554253 2 5 0 
7274 6 0.70363 0.504247 0.0450092 -5 1 0 
6835 5 0.35878 0.549917 0.0417676 0 0 1 
7311 6 0.402618 0.542697 0.0673521 3 -2 1 
8717 5 0.440668 0.561072 0.0673565 -1 -1 -2 
6786 5 0.689803 0.55651 0.0491998 4 -4 1 
5928 6 0.74687 0.582442 0.0584654 -3 4 4 
5563 6 0.891167 0.562729 0.043033 0 4 2 
7017 6 0.448158 0.578883 0.0485224 -3 1 1 
8422 6 0.972409 0.569231 0.0385401 3 0 1 
7747 6 0.589344 0.636031 0.0535135 2 1 1 
5697 5 0.696257 0.589867 0.0535378 -4 -7 6 
8532 6 0.808593 0.617893 0.00762208 -3 -2 1 
7899 6 0.231624 0.613607 0.0392787 3 2 -1 
6903 5 0.451292 0.677788 0.0192303 4 0 -3 
5711 6 0.0557061 0.666816 0.0387437 8 5 -1 
6594 6 0.489573 0.649956 0.0348283 0 -6 0 
8746 6 0.144336 0.694504 0.019442 1 -2 0 
6722 6 0.796969 0.686276 0.0380626 5 2 -4 
6024 6 0.939778 0.713039 0.0589082 0 -5 -3 
5911 6 0.10515 0.698158 0.067633 -1 2 4 
7136 5 0.143944 0.771023 0.0984772 -1 4 7 
8010 5 0.610777 0.780176 0.0349177 -2 1 6 
7846 5 0.630483 0.745325 0.0443371 4 -2 -1 
8076 5 0.709916 0.734006 0.0903257 0 -3 2 
6292 5 0.358517 0.765514 0.0505438 0 3 2 
7512 6 0.472517 0.775953 0.032535 -2 5 4 
6997 6 0.0593456 0.822208 0.0635154 4 -5 7 
8312 6 0.228394 0.874265 0.0847781 0 -1 1 
5144 6 0.892125 0.87329 0.0692062 -1 2 0 
8019 5 0.129635 0.905819 0.0399564 4 -6 -3 
6776 5 0.612153 0.916839 0.0638279 3 -4 -1 
7264 6 0.732827 0.937325 0.050932 4 0 1 
7541 5 0.575577 0.899905 0.0364088 0 -2 -2 
8600 6 0.640064 0.00281166 0.0526907 6 -1 1 
6082 6 0.705043 0.955574 0.0683581 -1 -1 0 
8815 5 0.0173004 0.997677 0.0870458 5 3 6 
5487 5 0.110093 0.982566 0.0590297 -2 0 -2 
7454 5 0.149368 0.974437 0.0398123 1 -3 2 
5481 5 0.594246 0.0346844 0.0642987 2 1 2 
7648 5 0.303786 0.00277966 0.0865182 2 5 3 
5359 6 0.668947 0.00583864 0.101812 0 -1 0 
8167 6 0.880938 0.987405 0.110464 6 0 -3 
6194 6 0.19938 0.997454 0.0740702 1 2 1 
8961 5 0.227995 0.0623151 0.0811989 2 -6 0 
5022 5 0.888266 0.018222 0.0793744 -1 -2 -3 
6401 6 0.157161 0.0864563 0.0910163 0 0 -1 
8430 5 0.540449 0.0556568 0.0597411 2 -2 4 
7566 6 0.495889 0.076443 0.0592543 2 -2 2 
7774 5 0.162918 0.13024 0.0544616 3 -1 5 
5768 5 0.199092 0.130722 0.0880728 -3 1 6 
6370 5 0.0859268 0.119554 0.0337755 0 1 1 
5604 6 0.746878 0.128609 0.0393854 4 5 3 
8335 6 0.112018 0.153151 0.0796952 1 -1 -1 
7425 6 0.589456 0.156684 0.0536421 2 -9 -2 
8744 6 0.677 0.174568 0.072604 5 -5 6 
6233 6 0.215732 0.160404 0.0709499 4 4 1 
5148 6 0.940559 0.184082 0.0921876 2 4 -3 
8192 6 0.347 0.187745 0.0586909 1 -5 0 
6592 6 0.599773 0.182385 0.0882864 -4 -1 3 
6686 6 0.237112 0.207967 0.101129 1 -5 -2 
6812 5 0.299907 0.208514 0.0515658 1 0 4 
8616 6 0.476277 0.220905 0.114732 -1 6 7 
6965 6 0.720389 0.209281 0.0483373 -3 4 -2 
8080 5 0.908664 0.208715 0.0589496 7 -1 -2 
8797 5 0.0115539 0.249092 0.0987592 2 3 -2 
6789 6 0.0800541 0.259523 0.0723756 1 4 -3 
7513 5 0.407998 0.243445 0.116234 2 2 5 
7210 6 0.624836 0.281516 0.077986 -3 -2 -1 
7339 6 0.979687 0.256452 0.110536 -3 -1 1 
6979 5 0.0891071 0.282732 0.0684231 4 0 -3 
5715 6 0.623438 0.285903 0.0973806 -3 2 -1 
5735 5 0.509681 0.337312 0.0878605 -1 0 1 
8652 6 0.299372 0.353734 0.0778242 1 1 -3 
8018 5 0.540554 0.332496 0.0989544 4 2 5 
7316 5 0.34953 0.294396 0.0795436 1 2 0 
6796 6 0.734229 0.33715 0.0625483 -2 0 -1 
8636 5 0.746549 0.42609 0.0720155 -4 -2 0 
6627 5 0.567491 0.384548 0.0865072 0 0 -2 
6951 5 0.725523 0.427683 0.07778 2 1 -1 
6279 5 0.555335 0.508153 0.0829999 -2 -6 -5 
6980 6 0.148056 0.54278 0.070485 5 -5 1 
7441 6 0.267694 0.537806 0.106996 1 -1 1 
6055 6 0.383932 0.524476 0.0775206 -1 -1 -2 
8877 5 0.966915 0.600637 0.0631495 1 1 5 
7019 6 0.351287 0.566196 0.0645516 -3 -3 -1 
8795 6 0.850565 0.56709 0.0704864 -1 -2 0 
6985 6 0.964245 0.605862 0.0785336 -1 1 2 
7840 5 0.209188 0.625177 0.0786836 2 1 -4 
5378 5 0.683282 0.660679 0.0878799 -6 -1 0 
5191 6 0.615881 0.679427 0.0708928 4 -1 -3 
5533 6 0.0182541 0.663082 0.0308361 2 -1 0 
8461 6 0.387681 0.638656 0.0909819 -1 2 1 
6906 6 0.467354 0.673783 0.0507127 1 0 -5 
8108 6 0.292317 0.712325 0.0873284 -5 5 5 
7437 6 0.271622 0.720784 0.0276941 -2 3 2 
5833 5 0.787407 0.754295 0.100839 -4 -1 -1 
8816 6 0.850481 0.69987 0.0890503 -1 0 3 
5663 6 0.534742 0.763662 0.0929394 2 1 3 
7798 6 0.0142987 0.785639 0.0683985 3 0 1 
7764 5 0.128861 0.802078 0.0753404 -3 2 -1 
6628 5 0.340028 0.812038 0.0763721 1 2 1 
5662 6 0.183513 0.818864 0.0656403 6 0 2 
6995 5 0.907626 0.818832 0.0984913 -5 -1 4 
6237 5 0.180272 0.841362 0.0987312 -3 -2 4 
6420 6 0.321082 0.849211 0.0428001 0 1 4 
5226 6 0.424599 0.898786 0.100917 0 1 1 
8106 5 0.0453448 0.944695 0.098296 -3 -6 -1 
6770 6 0.231402 0.885857 0.133009 1 8 -5 
7412 5 0.318637 0.888531 0.0619129 -2 -1 2 
7619 5 0.0103004 0.955355 0.0754941 2 -3 -1 
5695 6 0.0327271 0.88868 0.109885 4 -9 3 
7009 6 0.212339 0.939067 0.0959371 -1 4 -2 
7924 5 0.692394 0.900864 0.079678 0 -3 -2 
8667 5 0.259679 0.95604 0.0918669 1 -3 2 
8143 6 0.320328 0.988644 0.0666336 0 1 0 
5688 6 0.926658 0.96718 0.07484 -2 2 -4 
8136 6 0.0816913 0.965177 0.108683 0 -2 1 
5317 6 0.193326 0.018088 0.0896326 2 -3 0 
8347 5 0.0235622 0.042552 0.115172 -5 0 1 
5690 5 0.0802526 0.0147036 0.156338 -2 -2 -1 
6020 6 0.17208 0.0580158 0.123671 -5 1 -2 
7820 6 0.221192 0.0190312 0.0655433 -5 -2 2 
7676 5 0.601456 0.0579703 0.0815096 -2 6 0 
6831 5 0.802335 0.0810515 0.123665 -1 -1 -1 
6150 6 0.944002 0.0803665 0.119097 -3 -1 -1 
5625 6 0.0731538 0.0602183 0.103503 5 1 0 
6093 6 0.700078 0.0886169 0.128317 0 4 3 
6994 6 0.715937 0.109211 0.0937706 2 -5 3 
8555 5 0.866909 0.0847631 0.129381 1 2 -3 
8027 6 0.104338 0.0809562 0.124596 -1 0 -2 
6672 5 0.821467 0.120747 0.0958444 -3 3 -7 
6658 5 0.141256 0.103011 0.110908 -3 -2 -3 
8885 6 0.558527 0.167747 0.115277 -5 2 0 
7273 5 0.599944 0.207253 0.113352 -1 5 -1 
5683 5 0.68941 0.164309 0.0497895 0 6 4 
7147 6 0.399966 0.22002 0.129809 -5 1 2 
8002 5 0.573302 0.263488 0.13363 -3 1 3 
7545 6 0.0294827 0.291569 0.108408 8 -2 2 
8538 6 0.463167 0.265887 0.0866523 0 0 0 
8594 5 0.812436 0.283828 0.120711 2 1 1 
5356 6 0.809903 0.298572 0.0764599 8 -3 1 
7423 5 0.910553 0.312626 0.161155 4 -4 5 
7552 5 0.742244 0.296161 0.119066 -2 -1 0 
5186 5 0.803044 0.325293 0.119289 -4 1 0 
7865 5 0.807798 0.320904 0.0880615 -3 -5 -1 
5879 6 0.963923 0.358505 0.0785851 -2 -1 2 
8127 6 0.256899 0.374892 0.112329 -3 -2 -2 
8318 6 0.713754 0.393025 0.109582 3 -1 -1 
5759 6 0.992001 0.400173 0.0778538 2 -1 -8 
7181 5 0.174037 0.411046 0.104867 2 2 -1 
7101 5 0.222982 0.364638 0.104586 0 -1 -6 
8277 6 0.435056 0.396918 0.124719 -5 -2 -4 
6234 5 0.243227 0.434326 0.0920007 0 1 0 
5763 6 0.0362622 0.411842 0.100716 -2 -5 4 
5322 5 0.798071 0.428524 0.0838146 -8 -2 3 
5127 6 0.882664 0.464979 0.0738728 3 -2 3 
6324 6 0.908765 0.446262 0.0890417 2 3 -2 
8520 6 0.840238 0.48498 0.0658909 2 0 -6 
6925 6 0.215112 0.497345 0.129309 -2 0 9 
5456 6 0.371876 0.540515 0.151012 -2 -2 0 
6801 6 0.270977 0.553316 0.106636 0 3 1 
7652 6 0.120935 0.539155 0.0848944 -4 1 -5 
6048 6 0.727405 0.559561 0.110979 0 -1 2 
7703 5 0.741937 0.575598 0.10465 8 2 4 
6766 5 0.276916 0.629104 0.0865743 -3 -5 7 
6591 6 0.516797 0.637565 0.133073 -2 0 -2 
6653 6 0.587692 0.666933 0.100842 -2 0 0 
6047 5 0.1956 0.640035 0.0872757 0 -2 -2 
5998 6 0.364765 0.660172 0.119724 2 -2 -3 
5419 6 0.752575 0.632661 0.100185 0 -1 4 
7752 6 0.0311631 0.685575 0.0547366 3 1 3 
7922 5 0.247825 0.726073 0.0989126 1 -1 10 
5070 6 0.64295 0.681769 0.0913466 1 1 1 
7302 5 0.990888 0.691461 0.131508 4 -4 4 
7925 6 0.780479 0.749916 0.129098 -1 2 7 
5948 6 0.988452 0.699237 0.0698566 -2 2 0 
6707 6 0.438675 0.775535 0.0788119 -1 -4 0 
5363 6 0.443488 0.770149 0.0742104 -7 -1 2 
5273 5 0.478949 0.796698 0.104676 -1 -1 0 
6762 6 0.536139 0.803579 0.091699 2 -1 1 
5978 6 0.798976 0.754157 0.146469 -1 -3 2 
6709 6 0.921181 0.780606 0.0689472 3 -2 -4 
6092 6 0.499238 0.78709 0.132644 5 0 0 
8266 5 0.0548066 0.847668 0.0707049 3 -2 -2 
6422 6 0.444283 0.837552 0.0826662 -2 -3 1 
7156 5 0.614193 0.83309 0.0996663 0 -4 -3 
7313 6 0.842622 0.841582 0.118338 2 0 0 
8822 5 0.574322 0.862554 0.100732 7 1 0 
7396 5 0.646466 0.863179 0.0897208 3 -4 2 
8261 5 0.729265 0.856365 0.0895893 -1 -1 -4 
6334 5 0.0392371 0.870298 0.101949 1 -2 5 
8146 6 0.413083 0.884745 0.101519 0 -1 0 
6041 6 0.895077 0.88974 0.0827702 -3 -3 4 
8494 6 0.931596 0.851286 0.0901321 1 -2 2 
7319 5 0.431248 0.897992 0.114141 -2 -4 4 
5169 6 0.35915 0.92239 0.124758 -1 5 3 
8224 5 0.618124 0.953599 0.0610517 0 1 1 
6145 5 0.480412 0.939532 0.119634 -4 0 1 
7143 5 0.555798 0.953468 0.0878984 1 -1 0 
8274 5 0.987193 0.991361 0.0725625 -3 -2 -2 
8916 6 0.15657 0.966411 0.0954408 -1 -1 1 
7807 5 0.125104 0.933042 0.134796 1 -2 -1 
8718 6 0.176769 0.0174418 0.132584 -1 -5 7 
7056 5 0.648052 0.984704 0.0845803 1 4 3 
5085 6 0.950468 0.991884 0.100178 0 -5 4 
8228 6 0.899024 0.0696515 0.139401 0 5 0 
7015 5 0.0744666 0.0715314 0.1204 -3 6 3 
7888 6 0.537859 0.124391 0.101145 4 -1 0 
7736 6 0.589333 0.113176 0.145002 6 5 -4 
8906 6 -0.000141564 0.104836 0.13623 1 -1 -2 
5722 5 0.469079 0.140598 0.121999 -3 3 -5 
5704 5 0.471984 0.153439 0.0945968 1 2 1 
7897 5 0.601055 0.119513 0.112087 -7 1 5 
8337 6 0.754338 0.122477 0.136529 0 2 3 
7695 5 0.495589 0.124968 0.0889592 1 3 0 
5750 5 0.0781496 0.165053 0.114227 7 4 1 
7653 6 0.358049 0.15298 0.122366 -1 2 0 
8809 5 0.281606 0.17396 0.103548 -2 -1 -2 
8016 5 0.437752 0.194591 0.165584 2 2 0 
8417 5 0.45031 0.233478 0.147094 -4 -4 -3 
7962 6 0.939967 0.208368 0.115526 0 -2 -1 
7429 5 0.324556 0.25893 0.127328 1 -2 1 
8501 5 0.47375 0.224934 0.161992 -3 -1 -2 
6677 6 0.684903 0.30591 0.116001 4 1 2 
6394 6 0.378482 0.305292 0.129586 -1 2 1 
7767 5 0.267427 0.33221 0.129025 4 0 0 
6400 5 0.634212 0.319737 0.134406 -2 3 -2 
5320 6 0.73725 0.370809 0.150086 -3 -4 -1 
7498 6 0.849171 0.346325 0.107159 -7 -4 3 
6376 6 0.923377 0.336179 0.131009 0 2 0 
5185 6 0.193552 0.424813 0.108908 0 -3 0 
5691 5 0.624081 0.394345 0.120554 0 -5 6 
7132 5 0.688317 0.476746 0.152211 -4 0 1 
8184 5 0.0285737 0.426758 0.133868 0 -6 2 
7902 5 0.0757165 0.451722 0.120328 -2 -1 -1 
8675 5 0.261706 0.43801 0.139443 1 1 -1 
7872 6 0.495225 0.463515 0.155902 -1 -4 0 
5969 6 0.105364 0.512384 0.144773 3 2 3 
7879 5 0.232209 0.478915 0.0938865 2 2 0 
8245 6 0.523472 0.490158 0.133596 -4 -2 -1 
8819 5 0.753026 0.493803 0.116924 -4 -2 2 
5104 5 0.0648218 0.487993 0.128067 -3 4 6 
6467 5 0.483226 0.553742 0.122077 -3 -2 2 
7020 5 0.797609 0.479123 0.121973 1 -3 -3 
5783 6 0.128898 0.553891 0.128927 -2 -2 -4 
8135 5 0.186936 0.543448 0.100601 1 5 1 
8637 6 0.364065 0.567817 0.112395 -4 1 2 
8592 5 0.386918 0.585099 0.126829 -4 1 0 
8326 6 0.476383 0.598887 0.14319 -4 -1 4 
7092 6 0.477239 0.646446 0.126998 0 2 0 
6937 6 0.549707 0.64127 0.116504 -1 0 2 
6553 6 0.250359 0.639023 0.147476 0 6 1 
6867 6 0.831185 0.605465 0.136375 -2 2 0 
8272 6 0.135361 0.676958 0.0996926 3 4 0 
7868 5 0.644693 0.682506 0.141494 0 -4 2 
6380 5 0.325337 0.686903 0.152573 -2 -4 2 
7792 6 0.338564 0.651278 0.136899 3 -2 -2 
5603 5 0.310234 0.720641 0.130808 2 3 -2 
5474 6 0.210023 0.664358 0.115282 5 -2 4 
6896 5 0.9647 0.751901 0.0932076 1 0 1 
6072 6 0.240704 0.739538 0.109195 4 1 4 
6473 6 0.5939 0.763509 0.101854 -1 1 0 
6062 5 0.145518 0.746794 0.112926 6 -4 4 
6557 5 0.480245 0.775661 0.135062 -3 0 2 
8865 5 0.12239 0.765841 0.151112 -6 -2 -5 
7415 5 0.372571 0.792536 0.12574 -1 -3 1 
8149 5 0.228499 0.763139 0.132609 3 2 -3 
8279 5 0.494168 0.820155 0.160268 3 -1 4 
7172 6 0.955962 0.829898 0.094886 6 1 3 
8276 5 0.999169 0.780861 0.110159 0 -2 1 
8472 5 0.124237 0.820159 0.126922 2 -8 -2 
5365 5 0.790433 0.824714 0.140591 1 -3 -1 
6888 5 0.827951 0.818094 0.128716 2 -5 4 
7388 6 0.271464 0.837982 0.115096 2 -7 -2 
8055 5 0.228645 0.876139 0.145851 2 0 -2 
6849 5 0.734952 0.852757 0.12276 1 -3 -7 
5211 6 0.804832 0.841927 0.102176 -4 -2 3 
8155 6 0.874999 0.875799 0.158974 1 2 2 
6926 6 0.810212 0.859609 0.140905 -3 1 2 
6201 5 0.912917 0.883082 0.130943 -3 3 3 
5591 5 0.141659 0.894095 0.0915747 4 -3 -2 
8527 6 0.328005 0.898695 0.135209 -6 -1 2 
5264 5 0.361823 0.932164 0.130054 2 -4 0 
5936 6 0.948231 0.915319 0.148538 1 0 -2 
6657 6 0.979348 0.90069 0.139623 1 -2 -2 
7110 6 0.709104 0.946114 0.15254 6 0 0 
6393 6 0.682339 0.943249 0.121772 3 3 1 
6753 6 0.605621 0.0300246 0.14455 1 -3 1 
7364 5 0.980552 0.979045 0.117281 -3 1 3 
6892 5 0.0235648 0.0210243 0.167248 2 4 -2 
7981 5 0.0861949 0.985234 0.155754 0 1 3 
6968 6 0.42055 0.0248431 0.143352 0 0 -4 
8210 5 0.662292 0.0140681 0.165793 1 2 -3 
7692 5 0.19535 0.0334061 0.118904 2 0 2 
7262 5 0.690458 0.0473575 0.166225 0 -3 2 
7620 6 0.221628 0.0509941 0.159856 0 2 2 
5131 6 0.704478 0.100354 0.179727 3 -1 1 
5809 5 0.125133 0.113597 0.146789 6 -2 1 
6073 6 0.305088 0.0723512 0.136231 0 -3 -2 
8947 6 0.753944 0.113407 0.107392 -4 -2 3 
7829 6 0.852678 0.141806 0.156705 1 2 3 
6433 6 0.053604 0.137881 0.141046 -3 -1 -3 
5702 6 0.072805 0.143566 0.153266 2 1 -1 
8971 6 0.343073 0.114301 0.125643 -2 5 -2 
5995 6 0.739396 0.160167 0.148019 -7 -1 -3 
8431 6 0.743698 0.138713 0.144304 1 5 1 
7195 6 0.322352 0.178825 0.156238 -1 6 2 
6895 5 0.319064 0.178429 0.0751874 2 -1 0 
5394 5 0.846292 0.185493 0.216382 -1 -2 5 
5224 5 0.0596581 0.188388 0.152509 0 -1 3 
8052 5 0.234037 0.283558 0.161551 3 -1 -3 
7286 5 0.373098 0.287008 0.151592 -2 -8 -2 
8412 6 0.281062 0.274429 0.12742 0 0 1 
5229 6 0.956803 0.316918 0.187559 3 0 -3 
5541 5 0.0173996 0.343048 0.12012 0 2 1 
8298 5 0.600548 0.303681 0.149809 4 1 1 
5323 5 0.171895 0.377066 0.166722 4 0 5 
5338 5 0.422512 0.380541 0.141282 -1 -1 0 
7780 6 0.897199 0.400541 0.134191 1 -2 -3 
6382 5 0.257874 0.398831 0.14819 0 -4 -2 
8200 6 0.4421 0.444655 0.144439 -1 5 1 
6004 5 0.989136 0.374242 0.146376 -1 -3 0 
6419 5 0.473475 0.440341 0.139134 -3 4 7 
8558 5 0.849761 0.446987 0.136155 2 -3 2 
6192 5 0.740026 0.483009 0.141876 0 1 1 
8839 6 0.52077 0.504662 0.152637 -2 3 -2 
7998 5 0.582005 0.534339 0.108809 0 3 3 
8000 6 0.912307 0.489687 0.169489 1 -2 0 
8104 6 0.964505 0.474465 0.133991 -3 0 -1 
5673 6 0.983418 0.508727 0.142433 -4 2 -1 
6868 6 0.041732 0.560655 0.125401 -1 1 4 
8729 6 0.724093 0.529201 0.169759 0 -2 4 
6519 6 0.410994 0.55418 0.121498 -2 5 -2 
7950 5 0.639406 0.56326 0.166875 2 2 -4 
8653 5 0.439132 0.57999 0.15649 -2 -5 3 
8603 6 0.594334 0.56858 0.140343 0 3 3 
7586 6 0.577069 0.565791 0.149744 -1 -4 1 
5589 6 0.985654 0.556614 0.151645 -2 1 -1 
7551 6 0.532551 0.577194 0.17148 0 0 4 
8469 6 0.576371 0.575573 0.153874 0 -2 -1 
6487 6 0.920365 0.597305 0.139328 -3 1 -1 
8995 6 0.567023 0.592961 0.190138 4 1 -2 
5853 5 0.751193 0.651159 0.157303 -6 2 8 
6708 6 0.337337 0.632352 0.138249 -1 1 0 
5206 6 0.922337 0.633014 0.140431 -5 1 5 
6650 6 0.0942738 0.693565 0.159485 0 -5 1 
6438 6 0.943383 0.636884 0.111334 -2 1 0 
8860 5 0.366904 0.66353 0.142034 -4 0 3 
7255 6 0.909239 0.68452 0.142807 8 3 4 
6084 5 0.933849 0.660431 0.155197 5 0 -2 
7957 6 0.25888 0.736638 0.12471 1 -4 5 
6687 5 0.376736 0.711996 0.16251 3 -5 1 
8896 6 0.834656 0.729843 0.162851 1 -4 -4 
8374 6 0.897251 0.736736 0.142128 -3 -3 -1 
6898 6 0.128601 0.724273 0.149157 2 1 -2 
6819 6 0.145598 0.714234 0.151913 -3 -2 -1 
5241 5 0.367928 0.755016 0.118347 -2 -6 1 
5741 6 0.360279 0.74118 0.135074 1 2 3 
5552 5 0.337999 0.73337 0.152229 -1 -4 -2 
8348 6 0.749059 0.736612 0.150632 -2 -1 -2 
5246 5 0.255156 0.77084 0.152242 -2 2 1 
8806 6 0.251761 0.788025 0.174015 0 1 1 
7547 5 0.79895 0.791462 0.159677 1 -1 -3 
7492 6 0.381207 0.839708 0.141223 1 1 -4 
7778 5 0.979029 0.932912 0.104549 3 -2 -3 
5415 5 0.991896 0.940173 0.171216 -4 -4 1 
7201 5 0.0723768 0.945484 0.162348 6 1 3 
8029 5 0.908288 0.998488 0.164422 -3 -1 1 
7450 6 0.863272 0.956222 0.118912 6 3 1 
8452 6 0.686876 -0.000941299 0.127117 -2 3 1 
6029 6 0.86097 0.970035 0.153986 0 3 2 
5313 6 0.86023 0.00565031 0.163999 1 1 -2 
8528 6 0.331388 0.0280431 0.158078 -5 0 0 
6124 6 0.812009 0.0379908 0.159355 1 5 1 
7341 6 0.897497 0.0167225 0.167206 -1 -4 3 
8262 5 0.2202 0.0492576 0.133045 1 1 -2 
6031 6 0.385754 0.0660842 0.165606 3 -3 2 
5227 6 0.223514 0.0935493 0.181071 -3 -7 -3 
7633 5 0.92064 0.100834 0.130039 0 -2 0 
6982 5 0.163953 0.130859 0.141769 2 -1 1 
7354 6 0.761931 0.12027 0.191265 1 1 2 
8487 6 0.194412 0.121226 0.205611 2 1 4 
5920 6 0.485627 0.154334 0.189144 1 -1 -1 
6693 5 0.6726 0.171301 0.179132 2 2 0 
8929 5 0.025253 0.143759 0.169243 3 -2 -3 
6347 6 0.361421 0.207139 0.207233 -1 3 1 
8345 5 0.410066 0.199966 0.182994 2 -1 0 
6227 6 0.93255 0.18348 0.181474 0 5 -1 
7337 6 0.467902 0.182148 0.19458 -2 6 1 
8782 6 0.812977 0.241148 0.144454 1 3 3 
7726 6 0.375324 0.274166 0.166018 0 -1 -2 
8969 6 0.350301 0.242032 0.140239 -3 4 0 
5600 6 0.807696 0.239429 0.17193 -2 0 3 
8468 6 0.987573 0.278102 0.140441 2 1 2 
6402 5 0.839699 0.308366 0.166252 3 -2 -4 
7507 5 0.271597 0.327625 0.173712 -1 -1 -2 
6339 5 0.696388 0.317169 0.170592 -2 4 6 
8788 5 0.159943 0.320121 0.148396 -1 -2 2 
6882 5 0.425215 0.378361 0.196688 2 0 -3 
7678 5 0.708927 0.422913 0.209584 -2 4 2 
7322 5 0.74931 0.359373 0.160949 -3 2 0 
6371 6 0.898683 0.39216 0.149813 -8 3 -2 
6556 6 0.556368 0.402568 0.151957 0 0 -4 
8590 6 0.0912405 0.377405 0.204171 2 -5 1 
7537 6 0.0430359 0.432488 0.142895 -2 -3 -6 
5991 5 0.678279 0.472346 0.178988 0 4 4 
5330 5 0.836065 0.426512 0.19228 2 2 1 
7005 5 0.891212 0.482809 0.155768 3 3 -4 
8979 5 0.962785 0.481065 0.171686 -4 0 5 
8502 6 0.433973 0.550594 0.150383 -3 3 -3 
8833 6 0.34402 0.509963 0.164995 -2 2 -2 
1197 2 0.572965 0.545247 0.198567 0 0 0 
7459 5 0.568051 0.536023 0.177183 4 -2 -1 
5308 5 0.658164 0.565193 0.162043 -3 -1 1 
7007 6 0.41626 0.582548 0.141861 5 4 0 
7496 6 0.436053 0.519662 0.16044 -3 1 2 
1183 1 0.562726 0.578849 0.181434 0 0 0 
1182 1 0.566959 0.576659 0.185849 0 0 0 
1195 2 0.570671 0.549284 0.188668 0 0 0 
1196 1 0.574951 0.548561 0.19352 0 0 0 
1194 2 0.567168 0.55373 0.185066 0 0 0 
1193 2 0.56115 0.553809 0.183555 0 0 0 
1192 2 0.555148 0.555053 0.182156 0 0 0 
1191 2 0.549653 0.558934 0.181527 0 0 0 
5093 5 0.901064 0.577345 0.137599 -1 -1 -3 
8882 5 0.214798 0.603789 0.143966 2 5 -1 
7687 5 0.25323 0.586363 0.18539 2 1 2 
5432 6 0.270032 0.562793 0.214693 -1 2 1 
1185 1 0.556008 0.577346 0.180067 0 0 0 
1180 1 0.570617 0.580863 0.181376 0 0 0 
1175 1 0.559688 0.587871 0.184177 0 0 0 
1174 1 0.555932 0.587666 0.18947 0 0 0 
1176 2 0.562079 0.585827 0.178659 0 0 0 
1177 1 0.566723 0.584234 0.174305 0 0 0 
1179 1 0.569371 0.586899 0.180634 0 0 0 
1184 1 0.559978 0.573958 0.184645 0 0 0 
1181 1 0.566575 0.582911 0.185481 0 0 0 
1178 1 0.572945 0.584231 0.175696 0 0 0 
8533 5 0.996595 0.573661 0.168219 -3 -2 -1 
6646 6 0.320455 0.572218 0.201063 2 0 0 
1173 1 0.561967 0.586951 0.191806 0 0 0 
6358 6 0.804001 0.57267 0.156296 7 -3 2 
5914 6 0.875995 0.572523 0.132535 -1 -1 -3 
6967 5 0.00198029 0.59847 0.140373 8 9 -2 
5970 6 0.304751 0.65524 0.155474 -3 1 -3 
8270 5 0.346132 0.639855 0.141734 1 -1 -1 
8818 5 0.575597 0.644223 0.151394 -1 -2 -1 
6340 6 0.927359 0.670438 0.152619 -3 -5 1 
6514 5 0.412093 0.707011 0.176249 1 1 1 
5421 5 0.541235 0.697924 0.161696 -2 3 3 
7553 6 0.521208 0.689206 0.180738 -5 1 6 
6780 6 0.765045 0.733045 0.187041 2 -2 0 
8395 6 0.349093 0.722797 0.177517 4 -2 -6 
7332 5 0.666911 0.708175 0.128074 -3 -2 -3 
5643 5 0.779307 0.733061 0.164541 -3 3 2 
8482 6 0.766629 0.788684 0.165312 5 1 2 
8823 5 0.041396 0.805542 0.175312 -1 3 2 
5724 5 0.0574875 0.806924 0.183127 3 2 -4 
8537 5 0.403487 0.821207 0.154061 2 2 0 
7841 6 0.468626 0.795858 0.187354 0 0 5 
6135 6 0.429632 0.865435 0.17678 1 1 2 
7577 5 0.495146 0.858708 0.159621 1 -2 0 
5154 5 0.654922 0.865179 0.148912 0 -4 6 
5332 5 0.797198 0.85348 0.168406 -2 -6 1 
6871 5 0.458838 0.933675 0.207386 0 -1 -4 
8711 6 0.330403 0.959226 0.141357 0 2 -3 
8559 5 0.50237 0.898983 0.144858 -1 -6 1 
6962 5 0.630334 0.946863 0.182625 -2 2 2 
8767 6 0.907481 0.927904 0.174163 2 -1 -1 
5626 5 0.0518641 0.982791 0.193593 0 -4 -1 
7915 5 0.296022 0.997763 0.197627 2 1 -1 
7111 5 0.827477 0.957715 0.20485 6 0 -4 
8749 6 0.837831 0.979798 0.169058 1 -4 0 
6034 5 0.272808 0.981914 0.216501 -4 2 3 
5987 5 0.39184 0.0267558 0.179793 0 3 0 
7235 6 0.919428 0.0116188 0.200218 -5 -5 0 
5014 6 0.779361 0.0324307 0.186037 -3 2 2 
8218 5 0.0798221 0.0632544 0.202117 2 0 1 
5732 5 0.0605554 0.0397833 0.175124 4 -1 0 
7223 6 0.162354 0.0667111 0.222279 2 1 -1 
6210 6 0.488713 0.106961 0.186024 -2 -1 2 
8991 6 0.898693 0.0840528 0.217442 -1 -1 7 
5700 6 0.447316 0.0860113 0.166182 -3 1 -1 
7404 6 0.0552457 0.123771 0.217368 2 -1 6 
6305 6 0.223281 0.1327 0.183308 -1 0 2 
7887 6 0.425982 0.10641 0.216211 2 -1 -2 
5635 5 0.179791 0.152994 0.215568 0 0 3 
8280 5 0.79366 0.157917 0.213269 -2 1 6 
7086 6 0.817915 0.134872 0.214059 0 0 3 
7571 6 0.0661558 0.191502 0.168449 2 0 -6 
8586 5 0.493017 0.134886 0.193956 0 -4 1 
8207 5 0.613582 0.207676 0.207343 0 1 -2 
5193 5 0.651691 0.168496 0.166346 -1 4 1 
8530 6 0.913689 0.211525 0.18121 -1 2 2 
7705 6 0.403413 0.219474 0.214236 -8 7 -2 
6157 6 0.684204 0.187306 0.223677 -2 -2 2 
7258 6 0.360551 0.199995 0.19128 4 4 5 
7656 6 0.5632 0.237775 0.220548 0 -2 0 
8465 6 0.823751 0.231035 0.157881 0 -2 -2 
5208 6 0.347459 0.250706 0.173425 0 2 -4 
7781 6 0.971569 0.24896 0.198888 -1 -3 -2 
8753 6 0.513781 0.30714 0.210957 -2 3 -1 
5231 5 0.817163 0.290754 0.240621 1 -2 -4 
6127 6 0.000574514 0.289907 0.211431 0 -5 0 
5213 5 0.731132 0.346036 0.218578 -2 1 -1 
8824 6 0.0508254 0.389468 0.148509 3 -1 -2 
7608 6 0.196468 0.321662 0.186744 5 3 4 
7637 6 0.704243 0.330738 0.176673 1 0 -4 
5593 6 0.972779 0.347364 0.197016 -1 -2 -3 
6930 5 0.0851091 0.389414 0.20826 3 -2 -2 
8988 6 0.414523 0.372933 0.181737 5 0 2 
8890 6 0.94426 0.335289 0.206618 -1 -1 -3 
7584 5 0.0559024 0.442723 0.165237 -1 0 -3 
8037 5 0.872453 0.439126 0.174955 -2 1 3 
6123 6 0.980045 0.481022 0.219784 -9 -4 -2 
6885 6 0.694942 0.496376 0.211974 -1 -1 -2 
6242 6 0.804032 0.444081 0.218631 -1 1 -2 
7579 5 0.282123 0.475649 0.227156 -3 3 2 
1208 1 0.528961 0.529537 0.204678 0 0 0 
1206 1 0.527346 0.522046 0.204685 0 0 0 
1204 2 0.539863 0.522863 0.203378 0 0 0 
8458 6 0.270539 0.514431 0.177914 1 4 5 
8265 6 0.331925 0.552271 0.186378 -1 -2 2 
5608 6 0.491646 0.508566 0.205103 1 0 0 
1205 1 0.533596 0.521272 0.20536 0 0 0 
1207 1 0.530163 0.525724 0.199677 0 0 0 
1209 1 0.529672 0.533376 0.199676 0 0 0 
1211 1 0.533591 0.537631 0.203397 0 0 0 
1210 1 0.535654 0.531834 0.20164 0 0 0 
1202 1 0.552152 0.52674 0.204114 0 0 0 
1203 1 0.546027 0.525093 0.204604 0 0 0 
1201 2 0.558201 0.528789 0.203981 0 0 0 
1200 2 0.56355 0.531838 0.203817 0 0 0 