ITEM: TIMESTEP
20000000
ITEM: NUMBER OF ATOMS
9000
ITEM: BOX BOUNDS pp pp pp
-75 75
-75 75
-75 75
ITEM: ATOMS id type xs ys zs ix iy iz 
6794 6 0.279051 0.0509165 0.00611597 3 3 1 
8695 6 0.19786 0.0459802 0.983951 1 5 1 
7188 6 0.337686 0.0488032 0.0665068 1 3 0 
8065 5 0.40045 0.0619123 0.0479487 -2 1 3 
5623 5 0.891668 0.0698787 0.0590885 -2 6 2 
8519 5 0.077658 0.0621633 0.0317257 -1 -3 3 
8809 6 0.559432 0.073378 0.968194 -5 -4 0 
7195 6 0.313844 0.0768979 0.0293544 1 -8 3 
8741 6 0.914102 0.143419 0.0174892 -1 0 6 
8351 6 0.114998 0.158098 0.0186092 1 -7 -2 
8021 5 0.110603 0.165558 0.999317 1 3 1 
5946 6 0.560621 0.153444 0.977069 0 2 0 
7489 6 0.0467449 0.155684 0.995209 2 2 5 
6905 6 0.0951177 0.189333 0.994203 -2 -4 -5 
7651 5 0.952069 0.196875 0.98363 6 2 4 
8965 5 0.119582 0.194594 0.0276755 -2 1 0 
7824 5 0.286708 0.26228 0.0284843 -2 2 -2 
7819 5 0.692356 0.204484 0.0126969 -4 -3 1 
8757 6 0.521497 0.287137 0.033485 2 -1 -4 
6426 6 0.853965 0.198104 0.057176 0 2 -1 
6761 6 0.402609 0.291346 0.0220986 1 1 -2 
7506 6 0.695058 0.284299 -0.00276899 -2 4 2 
5430 5 0.942103 0.272276 -0.00096007 2 -1 -1 
8234 5 0.00456695 0.295975 0.988934 0 -1 -1 
8226 6 0.267104 0.327232 0.015766 -2 2 -2 
6262 5 0.179672 0.30006 0.0149184 3 1 1 
8905 5 0.399991 0.30779 0.016807 4 -3 2 
8505 6 0.432221 0.333202 0.0229438 4 -4 4 
6401 6 0.888021 0.393765 0.0537061 2 -3 5 
6231 5 0.114561 0.334468 0.0284089 -1 1 3 
8253 5 0.386563 0.391277 0.0118602 1 2 -2 
8881 5 0.378877 0.386197 0.0298928 -3 -4 2 
6727 6 0.600274 0.442889 0.00946998 -3 -10 1 
6788 5 0.472672 0.44847 0.990609 2 0 -5 
5462 6 0.803803 0.413076 1.00231 1 1 -4 
7587 5 0.340497 0.453241 0.993384 -1 -1 5 
6918 5 0.527018 0.510437 0.02295 4 -2 6 
8689 5 0.967805 0.500573 0.0335245 0 0 -2 
6505 5 0.447723 0.499609 0.992111 -2 1 -3 
5169 5 0.644117 0.502815 0.0169749 5 1 0 
6232 6 0.724971 0.54322 -0.000710259 4 -5 -6 
8921 6 0.952197 0.497349 0.0364955 -2 3 2 
8659 5 0.244525 0.592526 0.962456 0 -1 -2 
6838 5 0.576567 0.590931 0.00866618 1 3 -4 
8205 6 0.599702 0.551522 0.0455991 -3 0 -1 
8026 5 0.988803 0.587085 0.0290963 0 1 -2 
5318 6 0.0651224 0.572442 0.0110595 4 0 1 
5109 6 0.120315 0.604651 0.998847 2 -1 4 
7692 5 0.305303 0.574798 0.0268222 -3 2 2 
6501 6 0.396098 0.600156 0.0100096 4 -1 -3 
5031 5 0.652643 0.623638 0.993569 -2 3 4 
8243 5 0.668381 0.579962 0.00126972 5 4 2 
6292 6 0.723332 0.593955 0.00293181 3 5 -2 
7176 6 0.287378 0.628192 0.00936173 -2 5 2 
5029 5 0.358905 0.667198 0.0135349 -1 -4 1 
6902 6 0.491939 0.686869 0.0227417 -2 -3 -2 
7082 5 0.277423 0.672061 0.998873 1 2 1 
8012 6 0.982692 0.738649 0.996332 1 3 1 
6514 5 0.152556 0.742187 0.978674 -2 0 2 
6131 6 0.0945369 0.7679 0.0150807 -1 4 0 
8051 5 0.413753 0.822007 1.00271 -4 0 3 
8577 6 0.664702 0.8609 0.00284545 1 2 -2 
8734 6 0.934738 0.817964 0.98856 3 -2 5 
6105 6 0.484289 0.841599 0.0345732 -1 -2 4 
5552 6 0.71962 0.784476 0.0372636 1 2 1 
8812 5 0.736115 0.848103 0.00364564 0 0 0 
8732 6 0.787867 0.874141 0.0188536 -2 0 -3 
6491 5 0.188493 0.851611 0.990299 1 -1 2 
7635 6 0.654375 0.920243 0.00334418 2 -4 1 
6645 5 0.919711 0.859232 0.0468838 2 1 3 
5931 5 0.444916 0.911784 0.0709717 0 -2 -9 
6796 5 0.949476 0.875175 0.989339 2 3 -1 
8886 6 0.108232 0.967971 0.00237825 2 -4 -2 
5786 6 0.201356 0.977295 0.0141803 -2 -4 2 
6471 6 0.183346 0.938031 0.0217911 2 1 -3 
6657 5 0.134476 0.0374853 0.997261 -1 1 -5 
6667 6 0.497269 0.990459 0.0291808 0 2 1 
8315 5 0.0107571 0.0129498 0.00378271 0 -3 1 
5501 6 0.108304 0.00310977 0.0486291 2 -3 1 
5529 5 0.872794 0.0220552 0.0195475 1 0 -1 
5045 6 0.17868 0.069899 0.0530519 5 4 2 
6096 5 0.502501 0.0496996 0.00859219 -2 1 5 
5659 6 0.903122 0.111499 0.00244383 1 2 -2 
7360 6 0.322849 0.0630123 0.0190332 4 -1 1 
6334 6 0.333786 0.0785502 0.99223 -7 -6 2 
6889 6 0.518738 0.103838 0.0671765 1 2 9 
9000 6 0.045807 0.130449 0.0639877 -1 2 1 
5413 6 0.23431 0.155345 0.0378548 2 1 3 
7407 5 0.358323 0.10054 0.0846346 6 1 0 
6968 5 0.293813 0.185074 0.0558373 -1 -2 -7 
5402 6 0.717164 0.121119 0.0370188 3 -8 -1 
7850 5 0.227874 0.194678 0.0456032 -1 -5 3 
6299 5 0.330607 0.182594 0.0484814 0 3 2 
6991 5 0.523032 0.172053 0.00637005 -1 3 -1 
7859 6 0.550524 0.174596 0.0133126 -1 -1 -3 
8666 6 0.898072 0.204445 0.0432233 1 4 1 
6458 5 0.434863 0.186457 0.0789217 5 1 0 
6992 5 0.83872 0.164068 0.0590892 -3 -5 1 
8050 5 0.920764 0.203451 0.0323555 -1 -1 3 
7872 6 0.249652 0.203753 0.0283601 6 1 1 
6183 6 0.923652 0.227959 0.0274521 -2 0 -1 
5253 5 0.354937 0.267968 0.0264595 -2 5 5 
6581 5 0.670465 0.309228 0.0257685 -5 -5 -4 
8206 6 0.812331 0.267309 -0.00102341 1 -5 3 
7434 6 0.899901 0.286335 0.0450094 1 2 3 
5395 5 0.0578405 0.288041 0.0326045 -1 3 -1 
5588 6 0.626753 0.301429 0.0234624 -4 -2 2 
7370 5 0.936408 0.281788 0.0319156 -2 -6 0 
7199 5 0.0408964 0.325996 0.0320872 2 0 4 
5562 6 0.592783 0.289653 0.0386809 -4 3 3 
8955 5 0.225137 0.316783 0.0392674 -3 -1 1 
8019 6 0.342885 0.371053 0.0147795 5 -4 -2 
6711 6 0.472454 0.336183 0.0397897 0 -7 -3 
5004 5 0.50019 0.33333 0.0675681 0 -4 2 
8081 6 0.953486 0.37482 0.0705325 4 2 0 
6395 5 0.0611423 0.399088 0.0381512 6 2 1 
6007 6 0.116584 0.426537 0.0463066 -2 3 5 
6736 5 0.240396 0.414571 0.987978 -1 -1 -5 
7361 6 0.403382 0.443705 0.0124718 1 -1 3 
7342 6 0.3899 0.406259 0.0130886 -1 0 -3 
8496 6 0.376486 0.435328 0.0148675 -2 1 0 
6067 5 0.682635 0.389132 0.0150126 1 2 -2 
6182 6 0.698604 0.385857 0.017833 -4 7 -3 
6729 6 0.469119 0.404291 0.0440862 -1 -2 0 
5419 5 0.667089 0.461288 0.0444204 -5 3 1 
5612 6 0.703181 0.429484 0.0390596 1 -1 1 
5908 5 0.189065 0.454342 0.0647232 5 -1 2 
6666 6 0.91482 0.467178 0.0238482 -2 -1 2 
7705 6 0.215235 0.534441 0.0105963 3 2 2 
8952 5 0.381893 0.487112 0.0444513 1 1 -2 
6499 5 0.706517 0.479477 0.039081 -4 -1 1 
8557 5 0.962983 0.459429 0.0918423 0 -1 -2 
5014 5 0.967887 0.498981 1.00591 -1 0 -3 
8984 6 0.704773 0.513654 0.996818 -2 0 0 
8318 5 0.345081 0.57357 0.0261538 -4 0 -4 
8537 6 0.65015 0.563095 0.0228191 2 -3 6 
7357 5 0.0391234 0.603317 0.991643 0 5 1 
5802 5 0.342937 0.594155 0.0452246 -1 3 -3 
6855 5 0.789427 0.598768 0.0481662 -2 1 -5 
8408 5 0.459699 0.620431 0.0735003 6 -3 -5 
8342 5 0.589305 0.630972 0.0766137 3 1 -1 
7513 5 0.0170225 0.637694 0.0615717 4 -4 -5 
8869 6 0.564049 0.633691 0.0278806 -4 -1 -2 
8843 6 0.186077 0.71664 0.0324721 -7 2 -3 
5524 5 0.542879 0.648432 0.0212631 5 -2 4 
7437 6 0.195675 0.701022 0.0785112 -1 -2 0 
7589 5 0.497593 0.718146 0.0201588 3 2 -2 
7221 6 0.635643 0.685479 0.00542503 4 1 -2 
6923 5 0.528702 0.742391 0.000211025 9 0 4 
5174 5 0.676249 0.725452 0.0649571 3 -3 0 
5139 5 0.8433 0.726163 0.0467812 -2 4 2 
5101 5 0.940918 0.735607 0.0388816 -2 -1 -1 
8093 5 0.053334 0.769112 0.0466635 2 -2 0 
8526 6 0.410401 0.756156 0.0266337 -2 0 -3 
6453 5 0.729877 0.736152 0.0508099 4 2 4 
7936 5 0.23353 0.760229 0.0589003 2 -3 -3 
5272 5 0.640178 0.773157 0.0199908 -1 1 -4 
7546 6 0.81472 0.780832 0.0519862 5 2 2 
8003 6 0.425941 0.830852 0.0507492 0 0 3 
6744 6 0.738031 0.822689 0.0440359 -3 3 -2 
7882 6 0.775904 0.793589 0.052605 -9 2 0 
5970 6 0.976162 0.854773 0.0255333 -2 0 0 
7421 5 0.861525 0.874084 0.0601301 3 3 1 
8853 6 0.00682974 0.872008 0.0186084 5 2 -2 
5737 5 0.468896 0.854923 0.0335895 1 6 4 
6769 6 0.987775 0.876592 0.0250411 3 4 1 
7135 5 0.230001 0.895217 0.0274192 3 1 4 
8194 6 0.818801 0.923305 0.040446 -1 -4 3 
8030 5 0.0556401 0.938552 0.0341346 0 -3 -1 
6540 6 0.403186 0.879254 0.0290602 0 -1 1 
7700 6 0.587412 0.95084 0.034547 3 -2 3 
8136 5 0.911811 0.920615 0.0585768 -1 -3 3 
7849 5 0.237031 0.919431 0.0485493 1 1 2 
5538 6 0.50354 0.946526 0.0179974 -1 -3 -5 
8523 6 0.860129 0.974051 0.990397 4 -1 2 
6211 6 0.335986 0.954181 0.0735492 2 -1 0 
5134 6 0.40626 0.940674 0.00899566 3 -8 -2 
6816 6 0.450179 0.958932 0.993424 1 -3 -3 
5773 6 0.711192 0.988874 0.031501 0 -6 -2 
7920 6 0.0808728 0.971339 0.0837432 0 0 0 
8779 6 0.0592168 0.00749858 0.0530379 0 -7 -3 
6564 6 0.983421 0.0454165 0.0641258 -1 -4 1 
5213 6 0.659144 0.0470558 0.0459537 -1 -1 2 
7789 5 0.615243 0.0402213 0.0808739 -7 -2 3 
8900 6 0.0518688 0.0584863 0.0498074 1 7 1 
6740 5 0.241475 0.0918771 0.0560994 0 0 3 
6112 6 0.198316 0.146194 0.0689102 6 1 2 
6100 6 0.636197 0.112944 0.113498 -3 -2 -5 
6598 6 0.705579 0.139221 0.101278 -3 3 3 
6492 6 0.256752 0.187341 0.0747942 2 -2 -1 
7570 5 0.696225 0.201395 0.0315346 -2 4 0 
7390 6 0.713822 0.162292 0.057148 0 -3 -1 
7890 5 0.973375 0.176854 0.0650783 1 4 5 
6070 6 0.975372 0.19029 0.056546 -1 0 0 
5367 6 0.940808 0.172149 0.0555563 1 -3 -2 
5567 5 0.0977732 0.230032 0.0707484 0 -1 2 
8499 5 0.591928 0.229649 0.0571424 7 1 2 
5041 5 0.604843 0.286269 0.0196333 3 1 5 
8178 6 0.427468 0.272509 0.0672411 0 -2 2 
8614 5 0.454261 0.30461 0.0455426 0 -3 0 
5997 6 0.60384 0.23987 0.0489147 0 1 3 
8784 6 0.993359 0.356492 0.0668862 1 -3 2 
7130 6 0.750301 0.287156 0.0771533 1 0 1 
7044 5 0.658056 0.386536 0.0639667 -2 1 -4 
6218 6 0.743331 0.348627 0.0339682 5 4 4 
8866 6 0.179028 0.367213 0.0523989 0 2 -2 
5268 5 0.979853 0.449547 0.0468695 -2 1 -2 
7252 6 0.0436051 0.386395 0.0560561 6 0 3 
6876 6 0.119614 0.411035 0.0662708 5 3 1 
8904 5 0.907 0.400798 0.0619709 7 -2 -1 
8833 5 0.255182 0.436918 0.074313 -2 -4 -1 
7251 5 0.626065 0.438087 0.0725392 -2 -2 3 
6169 5 0.0324646 0.415574 0.0718581 0 0 3 
5123 5 0.109246 0.448154 0.0958113 2 -4 -1 
5067 6 0.362761 0.460392 0.0423501 -2 -3 2 
7046 6 0.479077 0.470218 0.062118 -1 1 1 
6228 6 0.548053 0.456584 0.0425326 3 -2 0 
6238 6 0.743724 0.472079 0.0832334 0 -2 -2 
5735 5 0.95156 0.417687 0.05971 5 0 -1 
5582 5 0.997852 0.411463 0.0571563 3 5 -4 
6887 5 0.120948 0.440012 0.076917 -2 1 0 
6088 6 0.300836 0.50145 0.0750592 3 -1 1 
6162 6 0.288267 0.49254 0.0624307 4 -1 4 
5922 6 0.419912 0.538457 0.0786546 1 -3 1 
5003 6 0.762811 0.556199 0.0561197 0 -3 0 
5790 5 0.853338 0.551477 0.0684798 3 2 4 
5640 5 0.483969 0.52725 0.0931739 -1 -7 -3 
5428 5 0.16294 0.598123 0.0377625 4 3 -2 
6430 5 0.129815 0.692488 0.0280138 -3 -3 3 
5660 6 0.808439 0.682569 0.0482842 2 -1 5 
6003 6 0.685796 0.684203 0.0293721 -2 -2 -4 
5570 6 0.520603 0.756211 0.0138991 0 0 0 
6691 5 0.81593 0.760075 0.0581309 0 -2 -1 
8769 6 0.0703619 0.845581 0.0249637 0 -4 7 
8735 6 0.947124 0.776227 0.0417653 0 3 3 
6143 5 -0.00701063 0.828619 0.0324826 -2 1 6 
5125 6 0.739294 0.874667 0.0747384 -5 1 0 
6708 5 0.919676 0.828621 0.100158 1 2 -2 
5365 5 0.00142675 0.862435 0.0683711 2 3 5 
7951 5 0.0566557 0.904521 0.0452629 3 0 2 
5911 6 0.256139 0.861306 0.0308273 1 1 -4 
8647 5 0.808681 0.903163 0.0704133 -5 -3 -4 
7743 6 0.622952 0.903338 0.0187986 -3 -4 3 
6371 6 0.806673 0.945906 0.0752081 -2 -1 7 
6786 5 0.0479518 0.96638 0.0793188 1 -2 -4 
7848 6 0.12459 0.985271 0.0783002 4 -2 -1 
5007 6 0.339369 0.956439 0.0428172 -2 -1 -1 
8140 5 0.560244 0.954256 0.0671838 4 -3 -5 
6339 6 0.189264 0.99627 0.0490837 -3 3 -1 
6925 5 0.290974 0.000918074 0.0838073 1 3 -2 
5105 6 0.319429 0.962388 0.041901 1 3 3 
6864 6 0.144341 0.00644284 0.116111 5 7 -1 
7402 6 0.521659 0.0344512 0.0867474 -1 3 2 
7690 6 0.585573 0.98281 0.0887395 -2 0 -1 
7211 6 0.175217 0.0575076 0.109051 0 5 3 
7532 5 0.230547 0.0500269 0.0928916 5 1 -4 
7197 6 0.914324 0.0824569 0.0766141 6 5 4 
5560 5 0.218054 0.100318 0.0984021 0 -2 -2 
8525 5 0.856701 0.0999405 0.100333 3 6 -2 
7981 6 0.533196 0.116505 0.0806741 4 3 2 
5667 5 0.864276 0.11767 0.109626 4 -2 -4 
5159 6 0.0812727 0.193836 0.0970462 1 2 4 
7598 6 0.739599 0.178719 0.100056 5 -1 1 
5489 6 0.90487 0.190211 0.0864149 -1 -2 2 
8899 5 0.655652 0.172549 0.110411 1 2 2 
8090 5 0.174779 0.222187 0.102106 4 3 -1 
8795 6 0.401318 0.216077 0.107731 1 -1 2 
8738 6 0.596806 0.235059 0.0614163 -2 2 0 
5928 5 0.784951 0.207409 0.0534582 -2 1 1 
5907 5 0.0007675 0.26484 0.0807684 1 1 3 
6338 5 0.568183 0.275969 0.081413 -5 -2 0 
6009 6 0.837021 0.282262 0.0761453 2 -4 2 
7435 6 0.919904 0.247704 0.0812872 -2 4 6 
5989 6 0.332481 0.298318 0.0760295 2 -5 -1 
5404 6 0.963571 0.308285 0.0762348 4 3 3 
5137 6 0.419515 0.333605 0.0778229 -3 0 8 
5315 5 0.618003 0.373573 0.0736118 -2 -1 2 
7580 5 0.800725 0.37893 0.0546074 0 0 2 
7363 5 0.882904 0.401306 0.061612 2 -2 -2 
8410 5 0.695125 0.392377 0.105496 -1 -3 -2 
5204 5 0.981498 0.397355 0.0637489 2 -4 -2 
7261 6 0.464869 0.416557 0.0202679 -2 -2 4 
5772 5 0.412345 0.431787 0.0524275 2 -2 0 
8792 6 0.0962767 0.469364 0.0978788 -2 5 -1 
5768 5 0.23203 0.467393 0.0995159 3 1 -5 
5179 6 0.770385 0.505034 0.085661 -1 -3 6 
7969 5 0.941665 0.461232 0.0575783 0 -4 -3 
6500 5 0.439157 0.489175 0.0756382 -5 1 -4 
6622 6 0.894546 0.515236 0.08475 -2 -2 1 
6393 6 0.129411 0.521671 0.115751 -1 -4 -4 
6870 6 0.0729622 0.590374 0.122861 7 2 2 
7608 6 0.35338 0.546757 0.104273 2 0 2 
7884 5 0.713782 0.589801 0.0500059 0 1 2 
6676 5 0.895627 0.560868 0.0936878 -2 -1 2 
8425 5 0.256319 0.630336 0.0419447 -2 1 -2 
7341 6 0.0279492 0.625843 0.10738 2 -1 0 
8204 6 0.525407 0.652489 0.0152154 1 -2 0 
8698 5 0.527455 0.651949 0.0891798 -2 -1 1 
6946 5 0.636045 0.676893 0.108205 -4 4 4 
5491 6 0.795301 0.66543 0.0822298 2 2 3 
6013 5 0.05898 0.732893 0.0718347 1 -4 3 
7527 5 0.293333 0.658502 0.0656371 -2 4 -7 
5254 5 0.492002 0.690137 0.0952818 -6 4 2 
5632 6 0.480278 0.675511 0.0827935 1 0 -3 
7655 5 0.938516 0.676639 0.10182 5 -7 -6 
8379 5 0.965294 0.655466 0.082112 3 4 2 
8761 6 0.311018 0.755542 0.101609 3 -1 2 
8660 6 0.644207 0.738781 0.0697052 -3 3 -4 
6208 6 0.213267 0.771684 0.0611944 -1 1 1 
6921 6 0.542261 0.781543 0.0853447 0 -4 2 
8112 5 0.680369 0.745102 0.0361633 2 0 0 
7628 6 0.724722 0.778482 0.113004 -2 1 3 
6868 6 0.0272088 0.820804 0.0987162 -4 -5 -1 
7372 5 0.0194062 0.818843 0.0624923 2 -3 -2 
6637 5 0.330774 0.871514 0.110266 5 1 -1 
5408 5 0.840324 0.899476 0.103118 -2 1 -2 
8936 6 0.0304792 0.961014 0.100893 0 -5 2 
5734 6 0.359701 0.942739 0.088994 2 -3 2 
7340 6 0.419101 0.965809 0.051764 3 0 2 
6109 6 0.804542 0.951375 0.0885892 -4 -2 -1 
7074 5 0.0566735 0.953569 0.100761 -3 1 6 
7404 6 0.708858 0.0162919 0.0982267 -3 1 -2 
8077 5 0.423381 0.00623517 0.121772 6 3 -3 
7500 6 0.153885 0.0653066 0.095454 -3 -4 -2 
8978 5 0.704533 0.00559878 0.111886 1 -1 2 
6586 6 0.139662 0.0497095 0.116354 3 -1 -6 
8176 6 0.355367 0.0582443 0.0957678 -1 -2 -1 
7114 5 0.361699 0.0657471 0.077542 1 0 -1 
5904 6 0.966202 0.0491904 0.136898 -1 2 1 
6713 6 0.145497 0.11065 0.0711641 4 -1 0 
5721 6 0.990035 0.0542415 0.0799957 -6 6 3 
7558 5 0.152384 0.0936072 0.0910631 2 -3 -1 
6556 5 0.448598 0.164324 0.126176 5 3 -1 
8888 6 0.75853 0.165258 0.0989369 -3 3 -2 
7796 5 0.83087 0.157172 0.135872 2 3 5 
6433 5 0.159067 0.210048 0.11687 0 3 -2 
8616 6 0.319806 0.218775 0.145234 7 1 3 
5648 5 0.517284 0.24518 0.0593854 5 -1 1 
8755 6 0.695311 0.219911 0.0599091 -1 4 -4 
5605 6 0.839713 0.298245 0.117824 2 0 2 
6121 5 0.151575 0.290103 0.107395 0 5 1 
5649 5 0.955533 0.287617 0.0975165 2 0 -3 
5823 5 0.516513 0.333874 0.105084 3 -3 -2 
7259 6 0.34218 0.317336 0.0766419 -1 1 0 
8404 6 0.428838 0.327818 0.150373 -1 -5 5 
7973 5 0.42816 0.352446 0.140993 -2 -2 1 
7378 5 0.622406 0.368496 0.0786887 -4 3 5 
6344 5 0.716676 0.386692 0.0882737 -1 4 4 
5639 6 0.142003 0.372961 0.134645 8 1 -1 
8532 6 0.601437 0.43639 0.120773 -1 1 3 
6997 5 0.934298 0.425155 0.100502 3 -3 -4 
5573 5 0.103608 0.444532 0.0990148 1 2 5 
8931 5 0.50103 0.426422 0.124366 -1 0 0 
8005 6 0.353398 0.504519 0.121487 5 -2 1 
5256 5 0.196556 0.439826 0.0950743 1 1 1 
8729 6 0.885819 0.479966 0.0714449 -6 1 0 
7272 6 0.0752155 0.516327 0.116512 -3 1 0 
7062 6 0.510588 0.472179 0.101145 0 1 -1 
5274 5 0.586146 0.545782 0.0992924 -3 3 0 
7543 5 0.643257 0.521087 0.0619519 1 2 -7 
8595 5 0.948682 0.560483 0.109637 -2 -2 3 
7356 5 0.0882181 0.536104 0.0989389 -4 0 1 
8340 5 0.515594 0.569198 0.102883 -1 -2 -1 
7440 6 0.0383286 0.585314 0.121221 -1 2 0 
5032 5 0.116797 0.595843 0.0942368 0 -5 4 
5215 5 0.814138 0.598624 0.107335 0 2 3 
5779 6 0.858995 0.586562 0.140712 -4 0 3 
8939 6 0.598674 0.619442 0.0956146 -1 -2 -3 
8540 6 0.0103551 0.621181 0.0838065 1 2 -2 
8766 6 0.482154 0.656862 0.118002 6 -6 -3 
7547 6 0.21064 0.673636 0.0960707 -2 -1 -5 
5761 6 0.752646 0.674399 0.110763 3 -2 3 
7425 5 0.952185 0.668121 0.127108 -6 0 6 
5578 6 0.38056 0.685552 0.123568 2 3 0 
8082 5 0.402632 0.697588 0.114139 0 1 -1 
6328 5 0.088113 0.730387 0.0840995 0 1 -3 
8338 6 0.3253 0.74943 0.123446 -1 5 -1 
5832 6 0.541212 0.724147 0.108203 1 -1 2 
6349 6 0.111173 0.742076 0.0848891 2 -2 -1 
5147 6 0.993257 0.766231 0.080115 4 1 4 
7707 5 0.992055 0.720458 0.113156 3 -1 0 
8482 5 0.784209 0.784602 0.117486 -3 -2 1 
8391 5 0.788174 0.707842 0.103987 4 -1 -6 
8982 5 0.201435 0.801697 0.131001 -2 1 0 
6850 5 0.656376 0.770394 0.128431 -4 4 -3 
5012 5 0.156303 0.816328 0.093044 2 0 4 
6078 5 0.598672 0.820617 0.086251 -3 1 4 
6834 5 0.0116849 0.844702 0.10951 0 4 1 
5412 6 0.0300408 0.865326 0.086584 1 -4 1 
5918 5 0.845222 0.819397 0.138748 -3 4 3 
8712 5 0.950419 0.878976 0.115132 -4 3 1 
8365 6 0.328965 0.889928 0.125068 -1 0 2 
8871 5 0.557498 0.858848 0.10071 -2 -2 -3 
7858 5 0.0718237 0.946719 0.0897018 -4 1 -1 
6787 5 0.509277 0.955111 0.0599872 0 2 2 
6187 5 0.576531 0.965565 0.134419 3 -2 1 
6019 5 0.0890429 0.961251 0.0915724 0 8 2 
5439 6 0.519026 0.016046 0.117498 6 7 4 
8582 6 0.770817 0.0339313 0.120551 -1 -2 -4 
6373 6 0.053835 0.0397378 0.127491 0 7 0 
7590 5 0.538835 0.0493598 0.152169 3 -5 -1 
6332 5 0.537832 0.0672664 0.123814 -4 0 1 
5438 5 0.814318 0.0875437 0.0765481 -5 2 6 
7245 5 0.852885 0.121404 0.13869 2 -2 4 
8903 6 0.691552 0.121517 0.122596 -1 -8 4 
6494 6 0.936177 0.159311 0.155266 -3 1 2 
5785 6 0.450215 0.144908 0.122288 -3 -3 -5 
7301 6 0.272111 0.137187 0.182293 -1 1 -2 
8923 6 0.367628 0.188519 0.160533 -4 -2 1 
5743 6 0.958388 0.15709 0.11332 4 4 1 
6417 5 0.285037 0.222568 0.0913682 -5 2 -2 
6658 6 0.344242 0.17756 0.172174 2 -1 -4 
5084 5 0.333476 0.190789 0.134084 0 0 4 
6480 5 0.82387 0.215684 0.0435112 -4 0 2 
6308 5 0.256961 0.261669 0.138224 4 3 -2 
6994 6 0.334931 0.323712 0.123128 3 2 4 
8162 5 0.622278 0.279181 0.143292 1 4 4 
8597 6 0.87636 0.269645 0.121441 -2 2 -1 
7349 5 0.833469 0.287565 0.1152 0 -2 3 
7525 6 0.998593 0.302237 0.12077 2 1 -4 
6434 6 0.113276 0.300534 0.12703 -1 1 -2 
7727 6 0.68639 0.297331 0.112033 -4 -6 -3 
5152 5 0.764784 0.262837 0.110241 2 1 4 
7007 5 0.998263 0.3296 0.131205 -1 0 0 
5925 5 0.0525252 0.328731 0.125533 -4 3 -1 
7309 5 0.890005 0.309273 0.082269 0 1 2 
6496 6 0.14507 0.302432 0.147233 4 2 -2 
8407 5 0.0425746 0.347116 0.140036 -4 3 -2 
6518 6 0.488813 0.3997 0.0965814 -1 2 0 
6557 5 0.561748 0.37376 0.127078 1 2 -7 
5173 6 0.523463 0.421745 0.128353 2 8 4 
6090 6 0.0416806 0.43184 0.112916 -5 4 0 
7246 5 0.918079 0.448922 0.125736 -2 2 6 
6922 5 0.0120446 0.460685 0.140848 1 -3 0 
6982 6 0.383294 0.485617 0.154237 -1 1 4 
7174 6 0.400249 0.499996 0.111041 -1 3 0 
6843 6 0.432727 0.514895 0.105778 0 3 2 
6189 6 0.501866 0.480467 0.115183 0 -3 0 
8667 6 0.849312 0.463718 0.120439 -5 3 0 
6011 6 0.977501 0.481284 0.17599 1 1 -2 
6145 6 0.618915 0.507943 0.122195 -2 2 0 
5086 5 0.876591 0.499176 0.135687 5 0 3 
6966 5 0.301011 0.533553 0.1242 3 -3 -6 
5555 6 0.537876 0.554333 0.152455 4 -1 3 
7222 5 0.696662 0.593384 0.117003 -3 1 -2 
5358 5 0.699264 0.60111 0.115721 0 0 2 
6680 5 0.956992 0.54747 0.106906 3 -4 8 
6468 5 0.170616 0.583223 0.128069 3 0 3 
7568 6 0.815826 0.588193 0.121922 0 2 -1 
8101 6 0.897373 0.595409 0.111071 -2 -3 -1 
8538 6 0.19478 0.626371 0.158578 -2 -3 0 
8573 6 0.874665 0.576191 0.095606 6 -1 1 
7845 5 0.905334 0.631176 0.152726 5 -1 1 
6717 6 0.387019 0.646661 0.126318 1 4 2 
7011 5 0.436807 0.645794 0.149614 3 1 2 
7886 6 0.71471 0.647703 0.130711 0 1 -4 
7674 5 0.346218 0.702383 0.124529 2 -2 2 
8451 6 0.266986 0.713825 0.12971 3 2 2 
6771 5 0.614764 0.713566 0.139083 -2 -2 -1 
6910 6 0.722553 0.727197 0.105124 -2 -4 2 
7874 5 0.572564 0.764721 0.11382 -4 -1 -2 
8848 6 0.185349 0.79563 0.111837 -4 -3 -2 
7412 5 0.352681 0.770239 0.144244 3 2 -2 
8770 5 0.794235 0.810355 0.113577 -3 3 -5 
7160 6 0.406161 0.822746 0.149682 1 0 -5 
5974 5 0.947465 0.823598 0.137996 0 0 -4 
7889 6 0.913191 0.85437 0.132104 2 3 -5 
8699 5 0.227235 0.876971 0.132332 -3 -3 -7 
8114 5 0.943755 0.870443 0.148158 -6 -1 -2 
7056 5 0.571993 0.936087 0.115096 -2 -10 3 
7131 6 0.719638 0.897584 0.130345 2 2 -3 
5805 6 0.271551 0.910433 0.107735 -2 4 4 
7784 6 0.31221 0.898489 0.134676 -2 -6 5 
5620 5 0.798608 0.931576 0.133039 0 4 3 
6774 5 0.436997 0.939472 0.151463 2 -4 -6 
8834 5 0.68185 0.957261 0.145728 4 1 0 
7806 5 0.890108 0.922227 0.123989 -5 -7 5 
5311 6 0.383096 0.950035 0.154435 -2 4 -2 
8719 5 0.458767 0.945081 0.097278 -1 -2 1 
8132 6 0.727384 0.961031 0.164753 0 0 -4 
7853 6 0.096562 0.00669069 0.122422 0 3 -1 
7805 5 0.46521 0.0144947 0.100804 -3 1 1 
7040 5 0.451693 0.993765 0.108824 -4 0 1 
6973 5 0.288516 0.0382705 0.120478 3 1 -2 
8961 6 0.520432 0.972826 0.154952 -4 -3 -3 
7644 6 0.549159 1.00244 0.141291 -1 3 5 
8417 5 0.844577 0.00917836 0.147471 1 1 -1 
8179 6 0.896181 0.0382949 0.138437 1 -1 0 
6351 6 0.0696794 0.0382694 0.136314 -5 0 0 
8911 6 0.661537 0.0156302 0.13689 2 1 0 
7833 6 0.19134 0.0382803 0.12647 -5 5 0 
6892 6 0.273056 0.0787991 0.157245 0 5 0 
5995 6 0.524147 0.0593314 0.134143 -3 -4 -2 
8055 5 0.558272 0.0703768 0.167854 1 1 2 
8777 6 0.861739 0.0233501 0.15993 -2 -1 4 
7759 5 0.298221 0.100707 0.172086 1 1 0 
5054 5 0.835994 0.0693796 0.161031 -2 3 1 
6023 6 0.0164218 0.140011 0.104605 -6 -2 4 
8381 6 0.145104 0.136494 0.167073 1 1 -4 
5264 5 0.3416 0.106286 0.16214 7 -3 1 
5638 5 0.677248 0.110834 0.152512 -2 0 -1 
5634 6 0.15356 0.113798 0.164525 -2 -3 0 
7336 5 0.622276 0.139335 0.139847 -4 1 -4 
7310 6 0.845407 0.150904 0.168319 2 1 -2 
5421 5 0.0247411 0.149068 0.127645 -1 3 4 
8273 6 0.0591024 0.128739 0.179848 3 1 7 
6329 6 0.215764 0.159548 0.179372 1 -1 -1 
7308 5 0.907759 0.117541 0.124383 4 1 0 
6689 5 0.024835 0.13032 0.202715 1 -1 -3 
7365 5 0.343937 0.204774 0.101508 5 1 3 
7638 5 0.644731 0.205362 0.159951 -3 1 -1 
8816 6 0.300313 0.255542 0.15322 1 0 1 
8497 6 0.661316 0.252069 0.154964 0 -4 -5 
5280 6 0.480811 0.291324 0.142466 -3 0 6 
5813 5 0.54842 0.294359 0.128192 -3 -1 2 
5149 6 0.58479 0.277901 0.114603 -2 -5 2 
8452 6 0.752811 0.293024 0.119651 -1 3 4 
5260 5 0.633745 0.323345 0.148495 1 6 -1 
5647 6 0.828566 0.307831 0.174498 0 2 -2 
8129 6 0.945978 0.29288 0.145621 1 2 -1 
5598 5 0.289042 0.321578 0.127083 -3 1 -2 
8925 6 0.457878 0.334629 0.126225 -4 6 -1 
6758 5 0.637349 0.334032 0.0696622 0 1 2 
6080 5 0.66175 0.305181 0.133304 0 2 2 
6979 6 0.165609 0.342966 0.117039 2 6 0 
5841 6 0.284365 0.361972 0.167434 -2 4 3 
5514 5 0.992533 0.33971 0.155211 -2 3 3 
5166 5 0.462566 0.382192 0.134832 2 0 0 
6833 5 0.369334 0.405913 0.158562 -2 -4 6 
8212 5 0.753708 0.448721 0.158828 0 -2 1 
7502 5 0.793726 0.394878 0.149342 2 3 -2 
5765 5 0.155495 0.384726 0.169814 4 2 1 
6854 5 0.704162 0.392579 0.133395 -2 4 -3 
5120 6 0.92039 0.421018 0.153003 3 -3 0 
5683 6 0.590781 0.445221 0.137642 0 5 2 
7078 5 0.869037 0.456591 0.138176 -4 7 -3 
5277 6 0.238294 0.453631 0.143683 0 0 -6 
8610 5 0.597553 0.482376 0.159732 0 0 -6 
5188 5 0.046811 0.51509 0.142074 2 -2 -4 
6720 6 0.4136 0.513406 0.131816 4 -1 3 
6592 5 0.299003 0.547051 0.17523 2 3 1 
5371 6 0.471284 0.524788 0.12338 0 -3 2 
6527 5 0.139145 0.546019 0.177395 4 4 4 
8155 5 0.427531 0.573989 0.163102 7 0 2 
7081 6 0.686684 0.561313 0.161578 -1 -3 0 
7799 5 0.159542 0.623305 0.142614 4 -6 2 
5228 5 0.206261 0.557144 0.126383 2 3 1 
7250 5 0.718667 0.580332 0.173118 -1 2 -2 
7296 6 0.762665 0.598003 0.123339 1 0 0 
8563 5 0.0329813 0.603672 0.14168 6 -1 2 
8671 6 0.0452777 0.595981 0.142288 3 2 -1 
8862 6 0.216804 0.670599 0.162149 1 1 1 
6223 6 0.657649 0.622764 0.135911 3 0 4 
7904 6 0.00846116 0.644278 0.138931 1 0 2 
7179 6 0.102307 0.656475 0.156041 2 1 -1 
7745 5 0.219586 0.61499 0.137304 1 -3 2 
8884 5 0.463766 0.665644 0.170828 3 -1 -1 
8675 6 0.523052 0.704077 0.140715 3 2 0 
8354 6 0.155756 0.717161 0.128496 -5 -3 -1 
8940 5 0.418829 0.678172 0.158701 -5 3 10 
6235 6 0.749101 0.713831 0.118975 -2 -4 1 
7217 5 0.533685 0.725804 0.145995 -5 0 -5 
7844 6 0.744155 0.699174 0.14776 3 -3 1 
6383 5 0.799696 0.729717 0.117752 -5 -4 -3 
6129 6 0.624117 0.765922 0.130107 2 -1 -1 
8096 6 0.823796 0.762469 0.150386 -1 2 -1 
7779 5 0.7332 0.735511 0.152633 2 0 1 
6907 5 0.252321 0.815831 0.149726 1 1 1 
8048 5 0.314467 0.811799 0.16032 -8 -3 6 
6721 5 0.962035 0.800946 0.12296 -4 1 -1 
6846 5 0.471228 0.796499 0.157882 -2 -3 -2 
7063 6 0.688378 0.810448 0.154705 2 -1 4 
5973 6 0.331203 0.823959 0.13673 -2 4 -5 
5839 5 0.634746 0.867899 0.155417 -1 -1 -3 
6234 6 0.254566 0.854813 0.120029 0 10 0 
8196 5 0.973021 0.904761 0.156233 2 0 -2 
5991 6 0.040706 0.924893 0.183195 7 -2 1 
5433 6 0.210968 0.923943 0.159639 0 -5 1 
8956 6 0.337667 0.894518 0.143279 -2 0 7 
8211 5 0.736156 0.875019 0.176816 -2 3 4 
6672 6 0.103073 0.915577 0.133624 -1 -3 3 
5917 5 0.323518 0.93108 0.142383 2 0 0 
7020 6 0.370552 0.927812 0.173949 -3 0 1 
6756 5 0.268339 0.98977 0.127741 -6 0 -6 
8545 6 0.288466 0.940279 0.145847 2 -2 -2 
5317 5 0.175164 0.954832 0.127293 -1 2 -1 
7998 5 0.31449 0.0176568 0.14189 2 -1 6 
8865 5 0.645034 0.0262155 0.174257 -5 7 5 
7945 6 0.875478 0.0431513 0.187451 -4 1 -2 
5205 6 0.209241 0.0332601 0.197826 0 1 -3 
7914 5 0.760972 0.0200807 0.176619 1 0 1 
8817 5 0.221999 0.0756912 0.159706 0 1 0 
6247 6 0.827133 0.0389767 0.164735 3 1 3 
8453 6 0.907731 0.0447119 0.13804 2 1 -4 
5225 5 0.845831 0.0464365 0.16154 4 3 -1 
6888 5 0.87674 0.0577147 0.185992 2 -4 5 
8528 6 0.66136 0.0963902 0.168075 4 0 0 
6852 5 0.861609 0.159821 0.168651 0 -1 0 
5243 5 0.120477 0.112002 0.151048 -3 6 2 
8460 6 0.484821 0.153468 0.180048 1 -8 -1 
5724 6 0.445444 0.173521 0.15666 -3 3 -1 
8487 6 0.613879 0.150132 0.149751 -4 -2 -2 
8942 6 0.826697 0.182642 0.142414 0 0 -4 
5878 6 0.724293 0.182518 0.167078 4 3 1 
5285 6 0.830149 0.179126 0.172054 1 -2 -1 
5356 6 0.739914 0.241726 0.144418 -2 -8 5 
6127 5 0.850102 0.248061 0.162389 5 -1 6 
6377 6 0.0204353 0.225942 0.177348 -6 0 -3 
6194 6 0.8424 0.230817 0.176853 1 0 -4 
8009 5 0.597871 0.250771 0.150948 2 -2 3 
5322 5 0.790529 0.22848 0.201891 0 1 -1 
7586 5 0.909229 0.23549 0.179303 2 0 -3 
8173 6 0.915385 0.287567 0.165313 -1 2 1 
8328 6 0.0146938 0.308813 0.175703 2 2 0 
5511 6 0.890588 0.328763 0.143375 1 -2 -1 
7317 5 0.82626 0.303717 0.164313 -2 0 0 
8389 6 0.962867 0.335471 0.163313 0 2 0 
6418 5 0.93937 0.340918 0.184668 -7 7 -3 
5503 5 0.760882 0.405904 0.161822 -2 0 4 
6286 6 0.14725 0.353259 0.157758 1 0 -4 
8111 6 0.887318 0.369535 0.156877 -5 1 0 
5452 6 0.746926 0.403739 0.197198 -2 -3 2 
7042 6 0.0584419 0.434788 0.149786 0 0 1 
6898 6 0.368328 0.455849 0.162241 1 1 -1 
7677 5 0.645016 0.459898 0.180861 -6 3 4 
5393 5 0.991104 0.471152 0.191375 -5 -1 1 
5800 5 0.290618 0.454328 0.200474 5 -3 5 
7144 6 0.603998 0.46861 0.15444 -3 0 4 
8063 5 0.717733 0.530125 0.18386 1 1 1 
8860 5 0.440662 0.5369 0.173583 -1 2 1 
6694 6 0.570891 0.553955 0.174194 0 -4 0 
6690 6 0.111987 0.567516 0.198803 4 -1 1 
5657 6 0.484635 0.542232 0.203507 -1 4 -2 
6323 5 0.766012 0.570842 0.209212 2 -4 0 
6823 6 0.969626 0.569043 0.155804 3 0 0 
7967 6 0.157063 0.604182 0.152058 1 -2 0 
5961 6 0.165791 0.60193 0.155053 2 5 0 
6451 5 0.799889 0.620957 0.195572 0 3 6 
7132 6 0.928683 0.574064 0.191999 0 -2 1 
6871 6 0.0123413 0.618397 0.199022 0 2 -2 
7005 5 0.106651 0.630812 0.131236 5 4 2 
7607 6 0.420719 0.632823 0.128068 -1 1 1 
7321 5 0.847482 0.638052 0.167839 1 4 -2 
7098 5 0.613908 0.687112 0.1721 0 3 -1 
6566 6 0.766491 0.635013 0.218503 1 0 -1 
6692 5 0.077005 0.684278 0.142984 1 -3 1 
7348 5 0.512898 0.65959 0.198318 0 -3 -3 
8238 6 0.945779 0.675962 0.196549 -3 3 2 
5390 5 0.84861 0.657225 0.166991 3 -1 -2 
7463 6 0.0736223 0.709451 0.197614 4 0 -3 
7285 5 0.883905 0.715202 0.167056 -2 3 -3 
6945 6 0.662049 0.742386 0.17429 -1 -2 4 
8427 5 0.897203 0.752454 0.160752 2 1 0 
7880 5 0.415091 0.808044 0.166892 3 2 -1 
7722 5 0.000624532 0.802206 0.134529 -4 3 3 
6795 6 0.754743 0.774476 0.187903 1 0 0 
8171 5 0.806786 0.914845 0.16197 -1 -1 0 
6508 5 0.858722 0.893005 0.149661 0 0 -1 
8974 5 0.0283084 0.932598 0.202496 3 -2 2 
7445 5 0.964892 0.910906 0.189778 0 2 0 
7772 5 0.504843 0.96538 0.208592 2 4 -2 
8558 5 0.488079 0.975356 0.172451 -1 0 3 
5902 5 0.65414 0.982211 0.164671 2 -3 1 
8263 6 0.159552 0.0178741 0.188717 0 -4 3 
8337 6 0.769995 0.0419793 0.186465 2 -1 2 
8357 6 0.358409 0.0288458 0.196624 -1 3 0 
8509 6 0.644847 0.0732913 0.219777 4 1 5 
7616 6 0.111683 0.12557 0.196228 -3 1 -3 
7294 5 0.76144 0.137496 0.192487 8 3 -2 
8690 5 0.996804 0.168618 0.216241 -1 -3 2 
8364 6 0.282276 0.239341 0.196683 -2 -2 2 
5052 6 0.173786 0.275317 0.225231 -3 -2 4 
5192 6 0.908735 0.278803 0.230809 1 7 6 
6410 6 0.0753716 0.327441 0.235166 4 -3 6 
8464 6 0.674855 0.306405 0.206697 1 -2 3 
8634 6 0.838404 0.305592 0.167638 -3 -3 0 
5185 6 0.43327 0.301845 0.236188 -1 0 3 
8728 5 0.811807 0.287154 0.193026 0 -1 7 
5849 6 0.977158 0.296612 0.195316 1 7 1 
6040 5 0.959273 0.325805 0.210102 -2 -3 -1 
5484 5 0.1254 0.34179 0.196271 0 -1 -3 
7227 5 0.207298 0.318848 0.177498 1 1 2 
6567 6 0.46136 0.334749 0.220606 4 2 0 
7158 6 0.507989 0.32709 0.183352 2 -4 0 
5862 6 0.867862 0.338202 0.197026 -1 -3 -5 
6856 6 0.443404 0.36121 0.183486 1 0 -2 
8585 6 0.954822 0.371941 0.156755 0 2 2 
7256 6 0.168304 0.37872 0.17884 2 2 -3 
7714 6 0.24001 0.37142 0.188501 -3 6 -4 
5544 6 0.568084 0.325754 0.179842 1 0 -2 
7307 5 0.157115 0.43109 0.212874 0 2 4 
5626 5 0.231885 0.379264 0.178818 -1 3 -2 
6366 6 0.377569 0.368398 0.186502 3 -7 -4 
6340 6 0.787926 0.408756 0.187126 -5 2 -4 
6793 5 0.828059 0.403278 0.184907 3 -2 3 
8075 5 0.0457318 0.420684 0.185168 0 3 0 
6241 6 0.123731 0.429313 0.186252 -1 3 -1 
6489 6 0.528912 0.416748 0.219085 2 -2 -2 
8396 5 0.809309 0.472449 0.201142 2 -3 -5 
7292 6 0.113416 0.47864 0.183329 -2 3 3 
8530 5 0.535009 0.461284 0.193247 -2 -2 6 