ITEM: TIMESTEP
20000000
ITEM: NUMBER OF ATOMS
9000
ITEM: BOX BOUNDS pp pp pp
-75 75
-75 75
-75 75
ITEM: ATOMS id type xs ys zs ix iy iz 
8199 5 0.0289262 0.989844 0.0153146 -3 0 -2 
8505 5 0.51483 -3.87029e-05 0.00453586 -2 -2 3 
5073 6 0.788603 0.0320406 0.980489 2 -1 -4 
6772 6 0.717861 0.0282915 0.0354241 1 2 -2 
8424 5 0.175073 0.00374343 0.986104 1 -3 -7 
7716 6 0.686742 0.0385024 0.988655 0 0 3 
8537 6 0.564903 0.0518417 0.00794408 -6 3 -1 
7736 6 0.588497 0.0791412 0.0117167 0 -2 1 
7335 6 0.875856 0.099338 0.0201163 5 4 0 
7625 5 0.116953 0.121765 0.00888091 4 -2 -2 
6433 6 0.705671 0.0827946 0.0103409 0 5 2 
5214 5 0.693029 0.11743 0.0203506 -1 -3 0 
8930 6 0.911999 0.113849 0.0175276 0 1 -1 
7458 6 0.419216 0.194435 0.0234427 1 2 2 
8809 6 0.876915 0.202013 0.0446851 0 1 2 
8482 6 0.608977 0.142254 0.0331573 2 0 -1 
5898 6 0.56505 0.207401 0.0336762 -3 0 -2 
8400 5 0.828966 0.188234 0.991217 2 1 -2 
7312 5 0.482802 0.187556 0.0440879 1 -1 1 
8077 6 0.87871 0.264323 0.0170636 0 -4 -4 
7037 5 0.178532 0.263924 0.00173856 -5 -2 -2 
5026 6 0.156821 0.215336 0.0198139 2 3 0 
5166 5 0.00548696 0.355243 0.99071 -2 0 2 
5057 5 0.251122 0.401978 0.0363715 1 3 -5 
7872 5 0.491233 0.369726 0.018832 1 0 0 
7606 6 0.723575 0.385991 0.975446 -4 -6 -3 
7283 6 0.958716 0.354321 0.0194653 1 -1 1 
5276 5 0.310242 0.391093 0.0171716 -3 -1 -3 
7579 6 0.100656 0.470659 0.0120018 1 2 -2 
5846 6 0.777112 0.414018 0.0282593 2 -5 0 
7611 5 0.46984 0.413744 0.0237727 0 -1 -1 
8755 6 0.79938 0.494517 0.0232164 0 -2 6 
8130 6 0.236071 0.505207 0.999008 -3 2 -2 
5392 5 0.300336 0.519304 0.0520533 3 -1 -3 
5448 6 0.348405 0.535615 -0.00113846 -6 -3 0 
7232 5 0.952445 0.526738 -0.00025471 -3 2 -1 
7352 6 0.338861 0.534464 0.0229568 -2 4 1 
6419 6 0.716662 0.52719 0.985621 -1 1 -1 
5178 5 0.763193 0.55941 0.986771 -2 2 -1 
5180 6 0.86468 0.603666 0.0246061 -2 1 1 
6549 5 0.869338 0.582005 0.0207812 1 -2 6 
6821 6 0.658445 0.642059 0.0496199 -1 -3 -1 
8115 5 0.813575 0.667049 0.0496118 -5 -3 3 
8458 6 0.648199 0.669379 0.0369513 -2 -3 8 
6784 6 0.0760892 0.678487 0.987716 3 2 -6 
6120 6 0.308184 0.646652 0.990758 0 -3 2 
8116 5 0.486692 0.63991 0.0110539 2 -1 5 
7144 6 0.282584 0.705706 0.0144682 3 0 -3 
5900 6 0.401213 0.711575 0.00643568 1 0 1 
8380 6 0.441914 0.760975 0.0284318 4 2 1 
6365 6 0.460201 0.788892 0.0268258 2 -6 -1 
5322 5 0.455773 0.764652 0.0197087 -3 2 0 
8225 5 0.701866 0.799207 0.996806 0 2 0 
7077 5 0.436728 0.892188 0.012062 4 1 1 
6709 6 0.681449 0.862147 0.00193577 1 4 -6 
7121 6 0.0520334 0.879268 0.0214245 -4 3 2 
6760 5 0.63209 0.87497 0.998135 -2 -4 0 
6662 6 0.0587065 0.957328 0.0188791 -4 0 5 
8590 6 0.0598006 0.966918 0.0152278 -3 -2 1 
7446 6 0.952264 0.986974 0.976456 -3 -3 -2 
7222 5 0.0864123 0.970613 0.0221118 2 3 -3 
6724 5 0.539713 0.0104897 0.0323464 -4 0 -4 
6283 6 0.767484 0.0119654 0.0186136 -1 -3 -1 
5747 5 0.344431 0.0389391 0.0563714 -2 -1 0 
5597 5 0.535234 0.99028 0.0335957 2 1 1 
8283 5 0.741527 0.0100181 0.01396 -2 2 0 
8495 6 0.450647 0.0574558 0.000863587 5 -2 -2 
6241 6 0.355783 0.0727235 0.0583664 -5 1 0 
5384 5 0.811095 0.0958324 0.01275 2 3 -2 
8569 6 0.171604 0.128243 0.00322069 4 0 6 
7861 6 0.451796 0.140254 0.997482 -2 1 -1 
7082 6 0.645132 0.132336 0.0332464 -2 3 1 
7306 6 0.626995 0.140657 0.0610212 4 -1 2 
5030 6 0.00320209 0.14705 0.0494799 -1 0 -1 
7273 6 0.199801 0.170648 0.054049 -1 2 2 
7394 5 0.820116 0.178982 0.0548469 2 0 1 
8879 5 0.233042 0.201787 0.995575 -3 0 1 
8936 6 0.412448 0.26881 0.00743679 -1 3 -3 
6429 6 0.0491187 0.222086 0.0270567 2 -3 3 
8409 6 0.426196 0.231941 0.0459057 -2 2 0 
6511 5 0.833604 0.254142 0.00135909 2 4 2 
7771 5 0.107715 0.302867 0.0221986 -3 0 -2 
8018 5 0.320619 0.300296 0.035577 -4 -5 1 
6064 5 0.079847 0.349752 0.0276218 2 3 3 
5740 5 0.0366735 0.329995 0.0338404 -4 -2 2 
8399 5 0.928087 0.388899 0.0269441 -3 -2 1 
6350 6 0.202457 0.410139 0.0425115 -1 0 3 
8515 6 0.478427 0.408961 0.00819732 -3 -3 -9 
6036 6 0.965682 0.443063 0.055984 -3 -7 -3 
7396 6 0.258881 0.446077 0.0231405 -2 3 1 
8988 5 0.105088 0.475112 0.0541572 0 -4 7 
8848 5 0.330175 0.459988 0.0164438 2 0 -1 
8554 6 0.0789584 0.473301 0.990223 1 1 -4 
7280 6 0.131391 0.506907 0.0481463 -4 1 1 
8226 6 0.774568 0.499853 0.0291668 -3 1 0 
8067 5 0.557011 0.562948 0.0487924 2 -3 5 
7996 5 0.619469 0.541418 0.0239259 4 3 -2 
8158 5 0.774145 0.594458 0.0311592 -3 2 -1 
5587 5 0.850974 0.589439 0.0706738 -5 -3 -3 
8259 5 0.131425 0.594513 0.0256691 5 3 -1 
5970 5 0.226274 0.622563 0.0141779 -1 -1 -6 
6653 5 0.274962 0.595551 0.00600984 2 -3 -3 
5790 5 0.779464 0.553937 0.0568562 -5 0 -4 
5624 6 0.871392 0.594178 0.0217515 1 2 2 
5417 6 0.136171 0.619096 0.0789982 3 -2 -3 
5808 6 0.164013 0.639073 0.0165185 5 -2 1 
6057 5 0.150573 0.644964 0.0383585 1 -3 2 
5739 6 0.450546 0.624768 0.988759 -1 -2 -1 
6869 6 0.576617 0.673938 0.00890568 2 6 -4 
7952 6 0.437386 0.757262 0.0534784 3 -5 -5 
7696 6 0.43862 0.750189 0.0236323 2 -1 1 
5159 5 0.927041 0.810883 0.0223425 -2 0 -4 
8108 6 0.920939 0.795981 0.995386 -1 3 -6 
7764 5 0.945707 0.79601 0.0285495 -3 -4 0 
6851 6 0.981942 0.856201 0.0375052 4 -1 -1 
7063 6 0.341688 0.892385 0.0307096 3 -1 5 
5110 6 0.540145 0.843422 0.00245679 1 -3 3 
6744 5 0.246207 0.926391 0.050916 0 3 1 
6932 5 0.363417 0.870689 0.0301416 -2 -3 2 
7881 6 0.528656 0.896712 0.0480399 0 -4 1 
6943 5 0.207155 0.891531 0.0236926 2 4 0 
8450 6 0.176025 0.947022 0.0312891 -3 -1 2 
6250 6 0.252506 0.893013 0.0225997 -3 -4 1 
8350 6 0.305554 0.905715 0.988707 1 -1 -2 
5041 6 0.473898 0.926091 0.00174976 -2 1 0 
6938 6 0.307093 0.967788 0.98065 -3 4 -2 
8818 5 0.534395 0.937682 0.0504967 -1 -4 1 
7518 5 0.250063 0.988466 0.0859833 -1 4 -3 
8058 5 0.389155 0.980324 0.0928251 -4 -3 -1 
7829 5 0.0285122 0.0110195 0.019938 4 1 3 
8854 6 0.426613 0.0184303 0.053817 -1 2 2 
5141 5 0.963748 0.00704606 0.0440883 3 2 5 
6082 5 0.498694 0.0562829 0.0561672 -1 -2 2 
8048 6 0.484686 0.0630191 0.0436243 3 3 1 
5028 6 0.649547 0.0750988 0.0682892 3 0 -4 
7216 5 0.04388 0.0961919 0.069851 -5 4 -1 
5708 6 0.319796 0.133284 0.076818 5 -1 2 
7803 5 0.336631 0.167843 0.052339 1 1 4 
6335 5 0.925212 0.14888 0.0628025 9 3 -2 
6958 5 0.0419547 0.159325 0.0524358 0 -3 2 
5593 6 0.750866 0.189591 0.0984209 0 3 0 
7366 6 0.976911 0.208819 0.038555 -1 3 2 
6539 6 0.0505509 0.222376 0.0501933 1 2 5 
5109 5 0.936925 0.181555 0.0528235 1 3 -1 
6055 6 0.252664 0.252263 0.0691639 1 0 2 
7294 6 0.7587 0.225289 0.060965 4 -1 1 
8915 5 0.361346 0.245672 0.0280936 -2 2 3 
5561 5 0.745715 0.308931 0.0492851 2 0 -4 
8150 6 0.285917 0.323684 0.0587015 3 -1 3 
6733 5 0.991661 0.364363 0.02934 -6 -2 -4 
5047 6 0.727492 0.365728 0.0484908 -1 2 -1 
6728 6 0.0286465 0.419845 0.0531332 3 4 2 
5732 5 0.114882 0.411356 0.0341142 0 4 3 
5855 5 0.308262 0.454482 0.0773601 2 6 2 
6642 5 0.512418 0.42965 0.0878381 1 5 1 
7811 5 0.832784 0.453139 0.0756542 1 -2 4 
8479 6 0.973854 0.466038 0.0619718 -3 3 -4 
7292 6 0.864632 0.473144 0.0644204 2 2 0 
7528 6 0.911097 0.487013 0.0673263 2 0 2 
5129 6 0.250222 0.51561 0.0546946 1 -1 1 
6620 6 0.388089 0.499578 0.0541957 3 2 5 
8089 5 0.885784 0.52929 0.0724378 -2 -2 -1 
7847 5 0.803609 0.529225 0.0603914 -3 0 1 
5769 6 0.434361 0.566704 0.0613255 0 -1 3 
8154 6 0.206929 0.540789 0.0772597 -3 5 -6 
8302 5 0.448793 0.559169 0.0640279 -1 3 1 
6608 5 0.0690394 0.554932 0.0167747 0 2 -5 
7382 5 0.610988 0.593263 0.0637385 4 1 8 
7057 6 0.114567 0.64366 0.0723529 -1 1 0 
8612 5 0.653836 0.612588 0.0637877 0 1 -3 
6349 5 0.185015 0.655397 0.0452902 1 0 2 
7574 5 0.70001 0.675081 0.0310771 1 -2 1 
6783 6 0.00370811 0.665951 0.0290605 2 0 0 
8263 6 0.213145 0.675146 0.0842059 1 -4 -5 
6471 5 0.547198 0.725628 0.106109 0 1 3 
5029 5 0.507266 0.7205 0.0449451 6 1 0 
5173 5 0.097568 0.749947 0.0686522 -4 -5 2 
7796 5 0.150714 0.794945 0.0443189 -2 1 5 
5466 5 0.320522 0.774579 0.0301968 1 0 1 
6651 6 0.374082 0.73298 0.0724254 4 1 0 
7722 6 0.642315 0.754781 0.0694828 0 0 4 
6807 6 0.352161 0.798668 0.0513765 2 -3 0 
8023 6 0.383211 0.81884 0.0676922 -5 -5 0 
8545 5 0.641867 0.811651 0.0322431 0 -1 -1 
7330 5 0.773793 0.794666 0.0661969 1 3 3 
5470 5 -0.000136407 0.792594 0.0794483 3 0 0 
8494 6 0.294023 0.830279 0.0260978 3 -2 -3 
8714 6 0.201952 0.865604 0.0522852 0 2 1 
7410 5 0.932357 0.845042 0.0615519 -3 3 4 
7158 6 0.771459 0.920284 0.0723795 -3 0 -5 
5945 6 0.918515 0.889566 0.0981934 -2 5 0 
7191 6 0.40018 0.918877 0.054307 0 -2 4 
5620 6 0.451129 0.945234 0.0435676 -4 2 -1 
7520 6 0.511294 0.924303 0.0490045 2 2 -4 
5812 6 0.764103 0.935715 0.0562466 -1 -1 4 
7355 6 0.594014 0.923239 0.111102 2 -3 4 
7987 6 0.469679 0.986781 0.0469022 1 -1 3 
7200 5 0.761084 0.978787 0.0739084 -1 -5 0 
5714 5 0.946301 0.98015 0.0554561 1 0 2 
5545 6 0.0493307 0.980833 0.0650044 2 4 4 
7314 6 0.383451 0.043677 0.0780896 -1 2 -2 
7279 6 0.583267 0.996586 0.0569222 -4 1 4 
5462 6 0.159573 0.0438888 0.0912946 1 2 1 
8670 6 0.230174 0.0371263 0.095047 -1 -2 0 
7059 6 0.248944 0.0683797 0.0301274 0 1 3 
8251 5 0.366837 0.0328136 0.0672404 2 -2 -1 
7401 5 0.381916 0.108006 0.0565888 2 -6 -4 
6916 6 0.79615 0.0441509 0.110492 -1 -2 1 
7826 6 0.274215 0.106537 0.0871009 -1 1 2 
5540 6 0.729725 0.0611884 0.0988892 1 0 -3 
7772 5 0.787342 0.0535019 0.0425602 3 -4 -2 
7564 5 0.234785 0.0825859 0.0632022 -3 4 -3 
7012 6 0.276288 0.0972592 0.0716728 3 3 2 
7003 5 0.425662 0.126587 0.0626298 -3 1 1 
6126 6 0.405363 0.197302 0.0613273 -5 1 1 
7267 5 0.880674 0.145132 0.0844143 -2 4 -4 
6602 5 0.54237 0.240115 0.062739 -3 -4 -1 
7674 5 0.532676 0.152617 0.0768531 -2 -3 -6 
8265 5 0.720298 0.231252 0.0733685 1 -3 -1 
6474 6 0.144192 0.242425 0.109943 -4 2 0 
5125 6 0.253757 0.251601 0.0528853 1 4 2 
6802 6 0.937452 0.294285 0.0446323 7 3 3 
8916 6 0.0228779 0.271536 0.0541658 3 -1 0 
5772 6 0.0723285 0.285966 0.0754736 2 -1 4 
8189 6 0.0424634 0.330446 0.059939 -1 0 -5 
6479 6 0.337371 0.317333 0.0735467 -2 -2 -7 
5765 5 0.582273 0.31417 0.103626 0 2 -1 
5756 5 0.692085 0.30364 0.12688 4 -5 -3 
7350 6 0.502076 0.326158 0.0821761 2 -2 6 
5454 5 0.1154 0.325353 0.0657828 -4 -3 -5 
7931 6 0.371267 0.350426 0.0682525 4 0 1 
7450 6 0.970462 0.375 0.0701743 1 4 0 
7955 6 0.222459 0.327198 0.0993365 1 2 4 
7263 5 0.278651 0.386761 0.0774015 2 -1 3 
6583 6 0.735119 0.422151 0.0775064 3 6 0 
6994 6 0.890582 0.399609 0.0703535 0 1 -1 
7361 5 0.194237 0.431358 0.107843 -2 0 6 
6208 6 0.370406 0.396458 0.0725604 -1 -4 0 
7975 5 0.0143938 0.427468 0.0765808 1 4 5 
5986 6 0.224346 0.450057 0.0899683 -3 1 -8 
8221 5 0.459274 0.46189 0.119479 2 6 -1 
5913 6 0.769392 0.43041 0.0650987 -3 0 3 
5923 6 0.474952 0.504465 0.0553241 -7 -8 0 
7134 5 0.583389 0.499855 0.0707269 -3 -1 -6 
8819 5 0.626289 0.51665 0.0596178 0 -3 4 
5397 5 0.670787 0.515125 0.0680212 1 -5 2 
6123 5 0.751078 0.588365 0.0787625 -4 -3 1 
6688 6 0.973308 0.562918 0.0785546 0 -2 0 
6527 6 0.030567 0.520217 0.131436 -3 -3 1 
7724 5 0.394569 0.557463 0.0934145 0 -4 3 
6006 5 0.597789 0.53494 0.0785302 -1 1 -2 
5614 6 0.832073 0.525254 0.0876682 -1 1 6 
8968 5 0.270318 0.540158 0.094563 2 -1 0 
7990 6 0.320377 0.589671 0.0650663 -2 -1 1 
6950 6 0.173964 0.627022 0.0833513 -3 -4 1 
6854 6 0.300025 0.638117 0.0853603 0 2 3 
7936 5 0.0679759 0.628464 0.0983703 3 -2 -2 
6428 6 0.777985 0.666801 0.0817412 4 1 0 
8081 6 0.379899 0.629862 0.0848242 2 1 -1 
7457 5 0.685757 0.660414 0.0797873 -4 5 1 
5648 6 0.782645 0.686216 0.0524475 0 0 1 
7920 6 0.47777 0.691807 0.0592247 -3 -6 4 
6917 5 0.789101 0.713266 0.101758 2 0 0 
5157 6 0.827499 0.723094 0.0718924 1 0 4 
7170 5 0.907929 0.700622 0.0666238 -2 5 -3 
6342 5 0.73446 0.731041 0.119132 4 1 1 
8522 6 0.779437 0.749915 0.0890861 -2 -4 2 
5443 6 0.244844 0.772411 0.0585722 2 -4 -5 
8704 6 0.896873 0.786804 0.0958672 -1 -3 0 
8436 6 0.148409 0.780066 0.103417 2 2 -5 
5525 6 0.918854 0.842675 0.0901031 2 -1 -2 
6191 5 0.922198 0.795715 0.0998228 -4 1 -2 
7202 6 0.870951 0.801798 0.0822784 -1 0 -1 
8297 5 0.901346 0.838387 0.083557 -3 -2 -2 
8245 6 0.20038 0.850042 0.0752048 2 -3 -4 
6758 6 0.278856 0.812933 0.0636083 -1 -2 2 
5251 5 0.346901 0.823392 0.0995921 0 2 6 
6617 6 0.393132 0.874108 0.12051 3 -3 2 
8249 6 0.609486 0.880095 0.0726283 2 -3 2 
7967 6 0.848014 0.841868 0.0965903 0 -5 2 
8065 6 0.857354 0.868368 0.0700307 0 -2 2 
7276 6 0.947263 0.850876 0.0909828 2 4 4 
6834 6 0.489691 0.922619 0.100113 7 1 -2 
8700 5 0.652278 0.990067 0.0983156 -5 -2 3 
5353 5 0.425746 0.987627 0.101539 -6 -3 3 
7103 5 0.611182 0.989442 0.0930269 0 -1 -3 
7433 6 0.263527 0.0154053 0.105474 4 3 4 
8752 6 0.288698 0.0307172 0.0729733 -2 4 -2 
7088 6 0.352327 0.00439469 0.110638 0 1 0 
8332 6 0.778181 0.02505 0.114286 0 0 -2 
7582 6 0.919178 0.99214 0.0853518 0 -1 2 
7378 6 0.664486 0.116197 0.107361 -4 -4 0 
8681 6 0.701359 0.111274 0.134052 -4 1 4 
8719 6 0.808674 0.086281 0.0995659 -7 0 3 
6516 5 0.348301 0.143291 0.127579 -1 1 -1 
6455 5 0.485906 0.117464 0.105896 -5 0 5 
5606 5 0.35397 0.145291 0.111586 2 -3 -4 
5153 5 0.0907962 0.148921 0.114983 -3 -5 0 
6810 6 0.201003 0.168693 0.0956836 2 0 -2 
8927 5 0.332782 0.146501 0.113655 2 1 2 
6444 5 0.00384904 0.206663 0.0870588 2 4 4 
5192 5 0.511679 0.190217 0.08983 -2 -1 10 
7256 6 0.848296 0.160979 0.10567 0 -1 4 
5749 6 0.212104 0.206252 0.092943 -1 0 1 
7559 5 0.170421 0.238974 0.115499 0 -2 6 
6362 6 0.95986 0.262801 0.0992312 3 -7 3 
7075 5 0.254891 0.284813 0.0818973 1 -2 7 
7602 5 0.812054 0.271798 0.135533 2 3 0 
5520 5 0.962419 0.350046 0.155815 -2 3 -3 
7496 5 0.290863 0.300096 0.105507 -4 -2 0 
6513 6 0.545097 0.435984 0.12044 0 3 3 
5704 5 0.529908 0.396255 0.109475 1 -2 4 
6244 6 0.601216 0.399107 0.0847651 0 -2 6 
5989 5 0.506748 0.451124 0.123878 0 -3 -3 
5693 6 0.794651 0.428708 0.0864519 -4 2 -3 
5324 6 0.815143 0.411776 0.095197 1 1 5 
6038 6 0.937641 0.43372 0.0931622 1 0 -4 
5202 6 0.152405 0.44424 0.116812 0 2 -3 
7852 6 0.524279 0.414872 0.0926017 0 -4 -4 
5423 6 0.68092 0.44353 0.11497 1 -6 3 
5518 5 0.320887 0.479164 0.0582242 -5 -3 4 
8254 5 0.358517 0.437215 0.0842528 1 1 -2 
8344 6 0.640522 0.44058 0.134385 -4 -2 -1 
5761 6 0.885004 0.470181 0.112178 1 1 3 
6910 6 0.326592 0.469546 0.0840371 -1 0 2 
8544 5 0.535875 0.47223 0.115222 -1 5 -1 
5643 5 0.998862 0.459045 0.100844 -1 1 -2 
8723 5 0.906048 0.543315 0.097359 0 1 -3 
5959 6 0.564124 0.563463 0.101694 5 1 2 
5058 6 0.0963789 0.583206 0.105111 2 -5 1 
7150 6 0.309404 0.583303 0.0874699 5 -3 0 
5409 5 0.434279 0.614396 0.129865 -4 -1 1 
6598 6 0.236069 0.627818 0.13149 0 -3 0 
8212 5 0.52154 0.608823 0.0897457 2 4 1 
8264 5 0.0178226 0.613655 0.109097 1 5 0 
8894 6 0.537269 0.636092 0.117135 -3 -1 2 
7392 6 0.032155 0.664285 0.106997 -1 -2 2 
7497 6 0.222317 0.740874 0.156295 8 -1 -1 
8132 5 0.520026 0.712418 0.0907535 -2 1 -2 
7793 5 0.683948 0.697041 0.0782373 -3 -2 3 
6402 5 0.485721 0.644095 0.111693 1 3 2 
6867 6 0.60466 0.697552 0.0912709 2 9 5 
8693 6 0.251356 0.777553 0.0823518 -1 -4 0 
5858 6 0.512683 0.747245 0.108127 2 -3 -3 
7110 5 0.838721 0.73315 0.0944034 1 2 0 
6640 6 0.618961 0.762407 0.0827101 2 1 0 
7631 6 0.761143 0.798139 0.102604 0 -5 5 
6147 6 0.77154 0.805982 0.0927833 -2 3 0 
7531 5 0.564563 0.821499 0.106318 -3 -4 -1 
8874 5 0.627965 0.809862 0.102077 1 2 0 
8353 6 0.150804 0.816269 0.0846207 -2 -3 1 
7951 5 0.22901 0.829562 0.0716916 4 -3 4 
5378 5 0.351561 0.848588 0.0969323 2 1 2 
6066 5 0.812232 0.833546 0.141906 0 -4 -1 
6435 5 0.960129 0.838341 0.154507 0 4 0 
5328 5 0.417674 0.849245 0.117005 -4 -1 -5 
6544 6 0.569528 0.814569 0.11324 -2 0 2 
7643 5 0.909561 0.895631 0.0885738 -1 1 0 
5193 6 0.28146 0.889703 0.132643 3 -2 2 
7958 6 0.187538 0.871291 0.10481 -2 2 4 
8972 5 0.221733 0.892897 0.0658303 0 0 2 
8319 5 0.581692 0.889478 0.0788718 3 0 2 
7801 6 0.015712 0.988855 0.0850763 -1 2 -3 
7905 5 0.0786433 0.957519 0.12236 4 -3 3 
5138 5 0.350124 0.95862 0.0780074 -2 1 7 
5118 5 0.400262 0.97279 0.0850555 2 3 0 
8246 6 0.523912 0.966484 0.0944495 -5 0 0 
8269 6 0.860199 0.914776 0.0946855 -2 -2 0 
6069 5 0.877011 0.997364 0.0709918 -3 -7 2 
8137 5 0.18382 0.0200151 0.094614 5 3 3 
5980 6 0.74038 0.987374 0.144736 1 0 0 
8014 6 0.05458 0.0137083 0.128975 0 2 -3 
6866 5 0.0513507 0.0558344 0.0896608 6 -4 -1 
5697 6 0.662063 0.053969 0.144999 -4 6 1 
7112 6 0.790186 0.0208032 0.116462 -1 -5 5 
5621 6 0.0137783 0.0640344 0.134367 -1 -1 1 
8272 6 0.388135 0.0888228 0.117096 4 -1 2 
6451 5 0.38914 0.0881359 0.127972 1 3 -2 
6641 6 0.412915 0.0651251 0.0761168 -2 -3 1 
6258 5 0.347452 0.093369 0.128153 -2 3 4 
7913 6 0.0833654 0.11642 0.137082 1 -4 -5 
8121 6 0.777346 0.0831816 0.145824 2 -2 3 
8228 5 0.547343 0.153403 0.0767359 -1 4 5 
7553 6 0.69863 0.106466 0.137432 -7 3 2 
5715 6 0.349546 0.179316 0.144404 -3 4 -3 
5348 5 0.595796 0.187132 0.118967 1 1 2 
8815 5 0.036385 0.162716 0.140495 0 1 2 
5927 6 0.620162 0.183416 0.130019 0 1 3 
6318 5 0.284993 0.282879 0.132488 -2 4 3 
7205 5 0.346748 0.208959 0.128464 0 0 2 
7072 6 0.447645 0.239955 0.109903 0 0 -3 
5177 6 0.529726 0.25025 0.0532716 5 -2 2 
7644 5 0.674495 0.244971 0.140273 4 -4 -1 
5668 5 0.6722 0.218189 0.138892 0 3 -5 
5104 5 0.0505997 0.265605 0.0999114 -1 3 -1 
6031 5 0.198825 0.242525 0.0894901 3 -4 -1 
6039 5 0.0316903 0.276252 0.124782 -1 0 2 
6859 5 0.35824 0.270093 0.0977182 5 2 -1 
6480 6 0.392941 0.29502 0.122473 3 4 0 
6328 5 0.488872 0.254907 0.142068 2 -3 -2 
7687 6 0.915988 0.318305 0.135212 -7 2 7 
6949 5 0.258901 0.389818 0.0966713 -6 1 2 
5856 6 0.217102 0.352357 0.133226 4 3 -7 
8459 5 0.372124 0.408016 0.147842 3 0 2 
8155 6 0.79926 0.426045 0.103745 -3 -2 -2 
7345 6 0.944163 0.453176 0.117663 5 0 2 
6382 6 0.479063 0.440608 0.140832 -4 1 0 
5209 5 0.776302 0.439199 0.139258 1 -2 -1 
5703 6 0.237916 0.493832 0.19117 4 -4 1 
7929 6 0.131538 0.49445 0.0901355 -1 5 -2 
8217 5 0.441814 0.497362 0.101609 -2 0 1 
8471 5 0.570689 0.573792 0.111754 -5 1 -1 
7708 6 0.890024 0.516913 0.127061 1 0 2 
7715 6 0.844785 0.573866 0.119739 3 3 3 
5921 5 0.972863 0.558874 0.134193 -3 2 2 
7449 5 0.234063 0.593047 0.103903 -1 0 8 
8903 5 0.769931 0.59534 0.112014 0 0 2 
6029 5 0.0373374 0.63901 0.117767 0 -1 2 
5250 5 0.393444 0.60453 0.104483 0 -1 -8 
7613 6 0.67421 0.620781 0.119443 -1 1 -2 
5718 6 0.862299 0.656562 0.0720356 1 0 -3 
5985 5 0.371736 0.641824 0.124115 5 -2 -3 
5567 5 0.533218 0.62262 0.147394 2 -7 1 
5281 5 0.515844 0.667219 0.0920392 -2 3 -2 
7251 6 0.417231 0.701011 0.0918576 6 -3 -3 
5598 5 0.545409 0.713947 0.0949946 3 -3 -1 
5440 6 0.0547395 0.774333 0.106821 2 2 -2 
5814 5 0.295004 0.782786 0.125367 -6 3 0 
5048 6 0.534576 0.739528 0.100854 -3 3 -3 
6091 6 0.75075 0.778336 0.113866 3 0 -6 
5394 5 0.954701 0.746452 0.115948 2 1 -2 
5339 5 0.540074 0.807248 0.119723 1 -3 -1 
8657 5 0.772835 0.803348 0.125843 -3 -1 -3 
5930 6 0.0200029 0.805906 0.0892625 2 2 2 
8555 6 0.199339 0.819642 0.102615 4 -4 -1 
6173 6 0.80187 0.809444 0.124758 1 -2 -5 
8175 5 0.206828 0.855891 0.126917 -4 -5 -3 
8051 6 0.774687 0.860952 0.11617 -2 4 5 
5888 5 0.87971 0.859938 0.0942737 -2 3 3 
8729 6 0.157605 0.906427 0.112515 -2 2 6 
5021 6 0.547118 0.841698 0.156609 -1 -2 4 
6109 6 0.222938 0.900419 0.174849 -3 3 -3 
7117 5 0.710546 0.93506 0.0761734 -3 0 3 
7891 5 0.151514 0.937356 0.132228 -5 -1 -2 
7580 6 0.523939 0.903882 0.0832157 0 3 0 
8465 5 0.700676 0.91677 0.105931 1 -2 2 
5360 6 0.117388 0.0211754 0.119853 -1 5 2 
8102 5 0.338416 0.0246747 0.119426 2 3 2 
8981 5 0.864867 0.00921476 0.118093 -1 3 5 
6041 6 0.073031 0.0289386 0.140801 3 3 -4 
7839 5 0.768931 -0.00100453 0.179039 -3 0 3 
8435 5 0.877701 0.0155223 0.170952 2 3 4 
5768 5 0.887249 0.035591 0.13974 -5 -3 -1 
5396 6 0.828129 0.0751264 0.189689 0 2 1 
8026 6 0.81053 0.0256169 0.148947 2 3 2 
8200 5 0.983417 0.0804457 0.153403 2 -2 -5 
5027 6 0.420345 0.0836972 0.149678 0 2 0 
8921 6 0.0590763 0.0612059 0.115202 0 -2 -3 
7992 6 0.861702 0.0763566 0.143608 -1 6 -2 
6953 5 0.00194487 0.0992035 0.136848 -2 4 2 
8553 6 0.532657 0.136472 0.146409 -1 3 -1 
5831 6 0.648527 0.0960916 0.138566 -4 2 2 
5479 6 0.322929 0.10156 0.149953 1 -1 5 
6025 5 0.513552 0.104611 0.159006 3 0 0 
7683 6 0.0827566 0.125918 0.149182 6 -2 4 
6180 5 0.154057 0.129636 0.121066 -1 4 3 
6196 6 0.587843 0.176058 0.122508 1 5 1 
7100 6 0.80629 0.188581 0.166551 1 0 1 
7030 6 0.896307 0.177891 0.10018 0 4 1 
7620 6 0.976827 0.227519 0.14265 3 2 4 
8812 6 0.0608759 0.254446 0.143205 1 4 -3 
7362 5 0.133667 0.225819 0.144212 0 3 4 
6081 6 0.343911 0.269221 0.142631 -1 4 -2 
7118 5 0.512976 0.262461 0.153901 1 -1 -3 
8488 6 0.317599 0.31592 0.14829 1 -1 -6 
7926 5 0.406734 0.321987 0.155049 -1 -2 -4 
6114 6 0.502569 0.30031 0.150051 3 -3 -3 
8285 5 0.956645 0.306678 0.179418 6 4 2 
5716 6 0.982893 0.324079 0.11677 -7 -2 2 
8609 6 0.140552 0.409366 0.147499 2 1 0 
8587 5 0.0367126 0.353662 0.158921 2 0 -2 
6897 6 0.764311 0.364729 0.166933 -2 3 -1 
5349 5 0.320564 0.398386 0.143102 4 -4 0 
7500 5 0.879781 0.409285 0.149595 -1 2 -5 
5064 5 0.30392 0.399949 0.139797 -1 4 5 
7271 6 0.337548 0.415821 0.151157 -3 3 0 
5562 5 0.874928 0.378637 0.143817 -3 1 2 
7262 6 0.371678 0.424082 0.135923 -2 1 2 
7137 5 0.125553 0.435743 0.129152 1 1 0 
7971 5 0.207869 0.460388 0.15621 1 5 -3 
5473 6 0.535789 0.450391 0.12747 1 0 -2 
5683 6 0.587387 0.483673 0.164111 0 2 1 
6754 6 0.223147 0.516814 0.0960287 2 2 0 
6665 6 0.420928 0.498674 0.18921 1 3 4 
8610 6 0.665444 0.557722 0.107651 -4 -2 -1 
8608 6 0.537175 0.513706 0.123691 6 0 -4 
8306 5 0.606239 0.522287 0.200346 0 -3 -3 
8833 6 0.621319 0.539588 0.194431 3 0 0 
5015 6 0.701364 0.540162 0.164869 -2 2 0 
5213 6 0.478023 0.609251 0.136435 2 3 3 
5168 6 0.998516 0.620659 0.127004 -3 0 -1 
5373 5 0.274959 0.654055 0.134027 -5 3 0 
6532 5 0.927199 0.632003 0.136218 -1 0 -2 
7894 6 0.198009 0.648103 0.12829 1 1 2 
5246 6 0.302925 0.651602 0.144528 0 1 2 
6922 5 0.590862 0.667357 0.15641 -5 1 1 
5197 5 0.706054 0.701305 0.174045 5 0 1 
5802 5 0.997709 0.66474 0.127342 -3 9 2 
8395 6 0.167517 0.701478 0.178823 2 -4 1 
5152 6 0.296494 0.777173 0.154468 2 1 -4 
6954 5 0.949348 0.713856 0.148249 -3 0 0 
7375 5 0.784962 0.740748 0.152893 3 -2 1 
5224 5 0.804062 0.783442 0.141699 2 -1 -1 
7962 5 0.796639 0.748681 0.106998 0 1 -2 
8814 6 0.0744229 0.797622 0.142193 2 -6 4 
7080 6 0.0707247 0.776211 0.1586 5 -1 1 
6149 5 0.220094 0.81354 0.136054 2 0 1 
6255 6 0.369395 0.790301 0.136105 1 -3 -1 
8935 6 0.56829 0.758279 0.165393 2 1 -1 
6947 6 0.919862 0.787386 0.168487 -6 -3 2 
5181 6 0.942681 0.758224 0.131166 -3 5 0 
5320 5 0.0765953 0.8575 0.143318 -1 3 6 
5578 6 0.618761 0.841954 0.147448 1 -1 0 
7356 5 0.365865 0.916361 0.152324 -2 -3 3 
7831 6 0.631943 0.840791 0.104156 -5 1 -1 
5570 5 0.542775 0.891631 0.147651 2 0 0 
6967 6 0.101035 0.9319 0.141869 0 4 5 
5012 5 0.229748 0.952858 0.142013 2 6 -3 
8403 5 0.272699 0.950434 0.154491 -5 -2 0 
8308 5 0.710982 0.993728 0.142091 1 -4 1 
6497 6 0.0749655 0.0474295 0.126084 -3 -4 -2 
6984 5 0.2183 0.029146 0.154105 3 -3 0 
8206 5 0.436561 0.0551272 0.157748 1 0 -1 
6088 6 0.77281 0.00906663 0.217422 3 1 0 
7790 5 0.912089 0.0417469 0.135542 -4 0 6 
8849 6 0.0641471 0.084942 0.190547 -3 2 3 
6716 5 0.533233 0.0388931 0.160196 5 0 -1 
5112 5 0.844286 0.0386337 0.198969 2 -1 0 
6686 5 0.987764 0.0316218 0.169449 -2 1 2 
6759 5 0.319872 0.0839407 0.194227 6 3 0 
8596 6 0.494549 0.126171 0.18133 0 0 -1 
8095 6 0.694652 0.113337 0.163589 -4 -2 8 
8740 6 0.200203 0.105772 0.192053 2 -1 -1 
8262 6 0.472495 0.145711 0.171684 5 4 3 
8595 5 0.733018 0.0901615 0.128901 2 3 1 
6321 6 0.184409 0.131956 0.185176 -1 -5 4 
8774 5 0.543527 0.174226 0.176272 1 0 1 
7720 6 0.58716 0.200902 0.166359 0 0 -1 
8388 5 0.671986 0.171916 0.13203 0 3 4 
5997 5 0.416832 0.169148 0.144106 4 -1 4 
8210 6 0.358286 0.209956 0.155214 -2 1 0 
5744 6 0.428017 0.257639 0.150653 1 2 1 
6667 6 0.842923 0.211403 0.152799 3 -4 -5 
7031 5 0.451245 0.278356 0.190794 0 4 3 
8002 6 0.654555 0.292669 0.186288 -5 1 1 
8776 5 0.988839 0.302819 0.154635 0 0 5 
5447 6 0.593336 0.331431 0.134836 7 3 -2 
6296 6 0.872035 0.294516 0.119611 -2 -5 -4 
5568 5 0.00731314 0.319182 0.174577 1 -3 4 
8705 5 0.539187 0.301363 0.119962 2 -3 3 
6459 6 0.694005 0.323401 0.138207 0 5 -3 
8452 6 0.816035 0.327429 0.17683 0 -3 2 
7502 5 0.809911 0.336034 0.168907 1 1 0 
6398 6 0.234924 0.368822 0.18962 -3 3 -5 
8976 5 0.263607 0.34463 0.185407 1 4 0 
8651 6 0.0350832 0.383279 0.18646 0 -3 -3 
8281 5 0.724353 0.385839 0.143919 0 -1 -1 
5377 5 0.970407 0.413241 0.174975 2 3 -4 
7071 5 0.52485 0.414892 0.183106 0 -3 -2 
5278 5 0.556884 0.47306 0.198827 -1 -2 -2 
8315 6 0.39655 0.459408 0.142128 5 1 1 
5596 5 0.469197 0.470819 0.173368 -1 2 0 
8328 5 0.46817 0.459268 0.169454 -2 1 -1 
5227 6 0.942383 0.460153 0.172047 3 3 2 
7789 6 0.945494 0.442785 0.145259 0 3 -1 
6473 5 0.597348 0.506654 0.173313 -4 0 1 
8216 6 0.0132148 0.520282 0.177656 -4 -2 -3 
6437 5 0.708166 0.502078 0.195588 -6 -6 1 
7328 6 0.744588 0.50095 0.214267 1 3 0 
5867 6 0.784146 0.539839 0.182567 3 4 -1 
7898 6 0.145155 0.546405 0.151349 -1 4 3 
7758 6 0.724424 0.577375 0.174425 -4 -3 -3 
7336 5 0.797944 0.553047 0.142117 -1 0 1 
7018 6 0.956065 0.509328 0.186992 -1 -1 -2 
7126 5 0.447115 0.568508 0.153731 -1 3 2 
5256 5 0.853227 0.553984 0.137303 3 1 -2 
6363 6 0.434035 0.573 0.180471 1 2 -1 
6107 5 0.924424 0.568603 0.180864 3 1 -3 
5049 6 0.387738 0.65207 0.20242 0 2 2 
5953 5 0.20614 0.649413 0.164458 -5 1 -3 
5796 6 0.464761 0.676908 0.178006 4 3 -3 
5258 5 0.817076 0.641725 0.163321 5 -6 1 
7629 6 0.410561 0.664124 0.188408 -2 0 1 
7907 5 0.183728 0.697212 0.168497 0 0 0 
6187 6 0.35971 0.713477 0.185813 -2 0 1 
8934 6 0.597953 0.662113 0.159601 0 1 1 
6634 6 0.69468 0.757958 0.163445 -2 2 4 
6871 6 0.941933 0.732884 0.182612 4 -4 -1 
6404 5 0.524102 0.72944 0.221918 2 -1 2 
8984 6 0.805517 0.748433 0.195475 0 3 2 
6010 5 0.22973 0.767725 0.191195 -5 -2 -1 
8798 6 0.917753 0.760296 0.13294 2 -2 0 
7149 6 0.415843 0.808445 0.173718 0 -2 1 
5957 5 0.452402 0.735985 0.175668 0 -1 5 
6239 6 0.713122 0.77619 0.184698 1 1 -2 
8969 6 0.922349 0.748921 0.163228 -7 -3 5 
8278 6 0.761179 0.816619 0.139088 7 2 -1 
7984 6 0.270096 0.853858 0.176961 3 0 -1 
5515 5 0.280946 0.899543 0.180907 6 -1 1 
7282 5 0.452661 0.824355 0.176788 -4 6 1 
5641 5 0.666769 0.84 0.185337 -1 -2 -1 
7319 6 0.280132 0.920065 0.160968 2 -5 5 
6798 6 0.0785795 0.888359 0.142737 0 0 -3 
6184 5 0.154414 0.915476 0.131104 2 -3 -1 
7325 6 0.821578 0.955503 0.17023 2 -1 2 
7864 5 0.886042 0.92561 0.142311 0 -1 -1 
7540 5 0.0258909 0.977163 0.178756 3 -1 1 
6684 6 0.124311 0.925897 0.121554 3 -3 -1 
8040 6 0.826681 0.930989 0.188269 0 -1 0 
6206 6 0.263679 0.973137 0.186841 0 4 1 
8146 6 0.772003 0.984525 0.143942 1 -2 -4 
6968 5 0.94508 0.981912 0.183038 1 0 2 
5472 6 0.079788 0.0237259 0.183386 -4 2 0 
5301 6 0.962368 0.00229986 0.181834 1 6 -1 
5101 5 0.0815121 0.0069012 0.230261 4 1 3 
6495 6 0.371668 0.0529431 0.152243 1 2 2 
5074 6 0.617118 0.0479291 0.185619 -5 2 -1 
7268 5 0.603778 0.0489082 0.15794 -2 0 0 
8134 5 0.639173 0.0292518 0.190744 -4 2 1 
7827 6 0.837163 0.0624983 0.243692 4 3 1 
5711 6 0.851568 0.0371744 0.148405 -4 -7 -3 
8111 5 0.823396 0.0599784 0.208551 4 3 2 
8691 5 0.0660646 0.0202621 0.181514 1 3 -1 
6723 5 0.612254 0.124188 0.214331 1 -4 0 
7132 5 0.835197 0.0665079 0.207136 4 4 4 
6218 5 0.670587 0.13181 0.221683 1 4 2 
7311 5 0.855882 0.115847 0.210847 -2 -1 1 
8688 5 0.744636 0.170052 0.177826 2 -2 1 
6844 6 0.0264821 0.235255 0.207308 -3 -1 3 
7140 6 0.510802 0.210921 0.21779 2 -5 1 
8333 5 0.917343 0.207146 0.135435 -3 -5 1 
6468 5 0.957094 0.214272 0.229279 -2 -2 5 
5767 6 0.108158 0.222887 0.20472 -2 2 -3 
6366 6 0.693921 0.227971 0.225916 2 -1 -1 
5589 5 0.974962 0.245372 0.205223 -1 1 0 
5411 5 0.0802723 0.249881 0.152345 4 4 2 
7970 6 0.245189 0.212691 0.23239 4 3 -1 
7310 5 0.708562 0.28983 0.213435 -1 1 0 
7131 5 0.821673 0.273578 0.165364 0 -2 -1 
8017 5 0.214345 0.311077 0.207763 1 2 -6 
6378 5 0.614708 0.292504 0.184319 4 2 -2 
5530 6 0.867305 0.304949 0.234864 -2 0 3 
5045 6 0.131587 0.346829 0.173724 -4 -5 -6 
5853 5 0.1985 0.320526 0.211309 -2 3 6 
7672 6 0.524686 0.346502 0.173185 -4 0 -1 
6896 6 0.840061 0.301422 0.217038 0 0 3 
5503 5 0.690804 0.371865 0.137781 -3 4 -1 
6188 6 0.0785728 0.383562 0.209324 -4 1 3 
7404 6 0.694149 0.382019 0.175913 5 -4 4 
8173 5 0.774965 0.369969 0.171109 2 3 -1 
7525 5 0.239174 0.386362 0.151599 2 1 3 
6222 5 0.733992 0.420514 0.211875 2 2 2 
8008 5 0.637226 0.44017 0.17489 -2 2 0 
7927 6 0.140059 0.447917 0.172611 7 1 0 
5140 6 0.591709 0.43963 0.230253 2 4 2 
7510 5 0.0155623 0.504673 0.190874 5 0 4 
5803 6 0.32778 0.485473 0.199633 0 -5 4 
5586 5 0.721362 0.495997 0.192756 3 0 0 
7085 5 0.497476 0.496005 0.201366 6 2 1 
8748 5 0.118198 0.512996 0.16856 -4 3 -4 
5195 6 0.581765 0.55457 0.215062 2 -2 4 
6096 6 0.427952 0.562773 0.195169 -2 2 1 
7129 6 0.424692 0.551649 0.166204 2 3 0 
8343 5 0.42748 0.57057 0.20163 3 -1 -2 
6577 6 0.518085 0.560065 0.160878 2 8 2 
7143 5 0.474314 0.567066 0.216882 0 -2 3 
8300 6 0.586631 0.626402 0.207125 -4 0 1 
8692 6 0.40818 0.610594 0.17968 -4 3 -1 
6785 6 0.523045 0.627136 0.212307 -3 1 2 
5043 6 0.853958 0.636136 0.197206 3 1 2 
5854 6 0.991425 0.621672 0.213517 3 -2 4 
6164 5 0.235438 0.736805 0.175736 2 3 -4 
5699 6 0.387121 0.673281 0.181879 3 -5 -1 
5967 6 0.406374 0.710414 0.213531 -3 -9 2 
8460 5 0.864964 0.719028 0.168269 0 2 2 
8561 6 0.163739 0.774711 0.160713 1 1 4 
5885 6 0.0742419 0.787289 0.176798 0 -1 -3 
5592 5 0.140417 0.76371 0.195008 -4 2 -1 
6981 6 0.724754 0.82197 0.207211 -1 -1 3 
6987 6 0.898791 0.793345 0.149933 4 -1 -1 
6478 5 0.927954 0.77906 0.197404 3 1 1 
6439 5 0.249349 0.829122 0.186229 -3 -3 1 
7973 6 0.435236 0.773263 0.187738 1 -3 -1 
8447 5 0.502765 0.791726 0.167842 6 -2 0 
8831 6 0.122941 0.908399 0.132216 0 0 0 
8179 5 0.93241 0.883512 0.189514 0 -8 -6 
7106 5 0.462175 0.938608 0.2531 -4 1 -5 
7575 5 0.753699 0.910508 0.196269 -3 -3 2 
6581 6 0.0253964 0.911355 0.193434 2 3 -6 
6587 5 0.571201 0.967826 0.204145 7 -6 2 
8791 6 0.679149 0.97231 0.174796 -3 5 1 