ITEM: TIMESTEP
20000000
ITEM: NUMBER OF ATOMS
9000
ITEM: BOX BOUNDS pp pp pp
-75 75
-75 75
-75 75
ITEM: ATOMS id type xs ys zs ix iy iz 
7338 6 0.527806 0.997073 0.00819112 3 4 2 
5029 6 0.653817 0.0313524 0.0417681 2 3 0 
8632 5 0.677825 0.0104091 0.0229829 -5 3 -1 
6572 5 0.607539 0.0182459 0.0213169 1 5 4 
8872 5 0.66399 0.0489468 0.016976 1 2 6 
7496 5 0.685499 0.0384081 0.979865 -4 0 1 
6682 5 0.680608 0.104038 0.992794 0 2 0 
8940 5 0.615723 0.134073 0.991658 -1 1 2 
8919 6 0.634028 0.135654 0.0150022 3 1 0 
6866 6 0.827382 0.159008 0.978691 4 0 1 
7292 6 0.864088 0.171661 0.0189307 -1 1 -2 
6383 6 0.770664 0.21296 0.0157033 4 2 -5 
7303 6 0.145633 0.226225 0.0152457 1 2 -3 
6219 5 0.229252 0.240324 0.00270496 1 -2 3 
8812 6 0.0117992 0.32153 0.0231987 0 2 -2 
7646 6 0.231804 0.263001 0.0258974 2 0 -1 
5558 6 0.778034 0.289106 0.015876 3 -1 1 
6312 6 0.722312 0.346512 0.0135154 -7 -1 5 
5394 5 0.184982 0.294069 0.0194083 -1 2 -5 
8076 6 0.693602 0.321221 0.0126514 -3 3 1 
6014 5 0.92403 0.294643 0.96919 -6 -5 -2 
7786 5 0.266399 0.329732 0.00514407 -1 5 3 
6286 6 0.00646437 0.400271 0.988512 2 2 -3 
5732 5 0.0851903 0.388215 0.0457642 3 -1 0 
6558 5 0.429903 0.42623 0.0173919 -2 -2 0 
5833 6 0.801561 0.406963 0.994445 2 -2 -4 
5774 5 0.165859 0.402507 0.0531149 2 0 -4 
7332 5 0.469065 0.401911 0.990666 -2 1 -2 
6226 5 0.89632 0.443686 0.0313824 1 3 0 
7247 5 0.645909 0.494072 0.0245342 0 0 6 
7244 6 0.792251 0.471285 0.0417567 2 -3 2 
5424 5 0.123673 0.472586 0.0275588 0 -4 1 
8974 6 0.389954 0.536576 0.00855858 3 1 -2 
6879 5 0.301239 0.528762 0.990546 4 1 2 
8743 5 0.490635 0.530693 0.0216217 -2 -1 5 
6212 6 0.706701 0.584362 0.986175 -3 2 -5 
5889 5 0.736891 0.65876 0.0121663 4 -6 -2 
6225 5 0.769869 0.629979 0.99516 -2 2 5 
8550 5 0.936755 0.574537 0.0190985 -3 0 -2 
7918 5 0.220674 0.609938 0.00880051 -1 0 -8 
6688 6 0.635064 0.620092 0.0271236 -2 -2 3 
5527 5 0.128721 0.685387 0.975415 -1 3 -2 
5891 5 0.379861 0.682725 0.00286802 -1 2 0 
6774 6 0.0890989 0.697257 0.990009 2 1 4 
6906 5 0.452613 0.675679 0.0272487 -1 2 1 
8167 5 0.551501 0.693952 0.0136453 4 4 0 
8530 6 0.972353 0.723625 0.013884 3 2 -2 
5225 6 0.193 0.700349 0.998845 -4 2 1 
5515 5 0.642657 0.715211 0.0429133 4 3 -1 
5748 6 0.148234 0.76862 0.0477082 2 1 4 
5854 5 0.748576 0.755806 0.0178925 1 1 -3 
7801 5 0.783501 0.757832 0.0290532 -7 2 -1 
8696 6 0.245878 0.827398 0.0228764 1 -7 -2 
7772 6 0.735234 0.846533 0.984493 -3 6 1 
7513 6 0.0980948 0.840882 0.0530321 2 1 -3 
6596 5 0.888096 0.854404 0.0184648 -8 4 3 
6042 6 0.0471769 0.880051 0.0018167 2 5 0 
8346 6 0.130056 0.876431 0.993196 -5 -2 1 
7001 5 0.33838 0.925245 0.0311509 2 1 2 
6805 5 0.500603 0.891274 0.983137 1 0 -1 
7503 6 0.554323 0.918536 0.99022 -1 3 5 
7529 5 0.807071 0.928034 0.978676 2 -4 -2 
6700 5 0.969192 0.947972 0.016907 0 -1 0 
5208 6 0.694179 0.959663 0.0270874 -1 1 3 
5969 5 0.711051 0.0101722 0.0173513 4 -2 -3 
6022 5 0.860854 0.986549 0.998375 3 7 3 
5820 6 0.505649 0.99128 0.0156477 3 -3 3 
6375 6 0.889271 0.0399768 0.0531662 -2 -2 1 
8708 6 0.222654 0.0388983 0.0270953 -1 1 5 
7419 5 0.624947 0.0284014 0.0263766 -2 2 -5 
8241 6 0.179306 0.0280782 0.0271916 0 1 4 
5564 5 0.514557 0.0497449 0.026436 -5 1 1 
5687 6 0.763975 0.109764 0.0115972 -2 0 -1 
7041 5 0.19366 0.17729 0.00353256 3 0 1 
5977 5 0.320255 0.105243 0.0305133 -3 3 0 
6397 6 0.485009 0.107793 0.0435455 2 0 -1 
8363 5 0.683202 0.186794 0.0318148 0 2 4 
8248 5 0.132903 0.226758 0.0437725 -4 -3 -6 
8683 5 0.69358 0.230372 0.0780631 -3 -1 -2 
7081 6 0.812682 0.224953 0.0157833 -2 -4 1 
6703 5 0.969352 0.240701 0.0344212 -1 1 -5 
7228 6 0.476965 0.236022 0.00182562 1 4 -1 
6459 6 0.826551 0.258432 0.0347436 4 -5 7 
8407 6 0.119067 0.267569 0.995856 5 -4 -4 
7065 5 0.44829 0.2589 0.012593 2 0 4 
5604 5 0.446717 0.273255 0.0261261 -1 -2 -3 
8860 6 0.0447235 0.299915 0.0107402 0 3 -3 
8862 5 0.060324 0.318318 0.0584095 0 -3 3 
7481 5 0.508421 0.30277 0.007044 0 -7 6 
8590 5 0.819704 0.330813 0.0268374 0 -3 -3 
6560 6 0.930234 0.290525 0.0388172 5 5 2 
5965 5 0.993993 0.31631 0.991074 4 2 -1 
7141 6 0.0828662 0.301023 0.00870158 -3 1 3 
6780 5 0.650494 0.28805 0.0127777 -2 1 3 
7962 5 0.932895 0.3447 0.0181888 2 2 0 
7453 6 0.990911 0.358683 0.0505084 1 -4 2 
6330 5 0.60651 0.351004 0.98351 -1 0 -1 
6223 6 0.895958 0.376095 0.0277441 1 -3 4 
8018 5 0.0333034 0.384452 0.00603731 4 2 2 
8430 5 0.895425 0.393265 0.0183931 -3 -3 1 
6070 5 0.195589 0.425656 0.0688831 4 3 -4 
6460 6 0.620551 0.441397 0.0625525 3 1 5 
7180 5 0.71716 0.458744 0.0334747 5 -1 0 
5271 5 0.728775 0.459493 0.065505 -1 -7 2 
5767 5 0.276921 0.456374 0.0615506 -4 2 1 
5307 6 0.691083 0.521204 0.0408696 -3 0 -1 
8323 6 0.946701 0.479574 0.0390818 1 -1 -4 
5364 6 0.543657 0.55282 -0.00130025 -2 -2 0 
5556 5 0.0597913 0.557507 0.05168 4 6 0 
8331 6 0.0791502 0.57574 0.0131073 -2 -6 1 
6146 6 0.658161 0.592287 0.0643951 -3 2 -1 
7909 6 0.444383 0.609896 0.043347 4 0 -2 
6958 6 0.39354 0.659227 0.0675646 -1 -6 1 
8299 5 0.73072 0.657115 0.0327514 -3 1 1 
5506 5 0.834625 0.638664 0.034931 -2 -1 -1 
8793 6 0.670314 0.712318 0.0152235 1 0 5 
5341 6 0.072931 0.692211 0.0366471 -3 -4 -2 
7364 5 0.505598 0.714845 0.994348 5 0 -1 
8566 5 0.133148 0.715879 0.0351027 -3 -5 4 
5912 6 0.217655 0.717772 0.0577175 -4 -6 3 
6933 5 0.516637 0.764348 0.016358 -5 0 -1 
5987 5 0.40314 0.756377 0.0387973 -6 -3 3 
5842 5 0.490882 0.812499 0.0171832 7 5 -1 
6757 6 0.89401 0.790826 0.988568 -6 2 -1 
8351 5 0.358385 0.817254 0.0526183 4 0 -4 
6492 5 0.550043 0.826257 0.0302055 6 -3 1 
7355 5 0.583723 0.788694 0.06357 1 -2 1 
5531 6 0.0059289 0.810763 0.00144034 -3 -2 5 
6472 5 0.34413 0.858159 0.0407528 5 0 0 
7916 5 0.0953647 0.921679 0.0470136 -4 -1 -1 
6422 6 0.140371 0.903089 0.0224669 -5 -4 -5 
5775 6 0.951332 0.958947 0.0163705 3 0 0 
5265 5 0.0298281 0.923451 0.0272981 0 -5 1 
8465 6 0.250679 0.909906 0.031731 -3 -1 -6 
6255 6 0.554833 0.928296 0.034919 4 -2 4 
7746 6 0.607688 0.914913 0.0374978 2 -8 1 
7684 6 0.0216683 0.944249 0.0542056 -2 -1 2 
7040 5 0.0826389 0.959864 0.0440503 3 -3 -2 
6553 5 0.118093 0.961588 0.0573725 4 -5 2 
5808 6 0.601234 0.911445 0.0618428 0 -1 1 
7121 5 0.671776 0.915421 0.0588082 4 3 0 
7211 6 0.977867 0.962758 0.0647051 -1 2 1 
8333 6 0.473776 0.00614353 0.0251895 -4 4 -3 
7725 5 0.728831 0.975913 0.00945292 3 0 2 
7695 5 0.256462 0.0199996 0.0566436 5 0 0 
5077 6 0.288623 0.0606815 0.0396373 0 -2 0 
7266 5 0.496742 0.0341709 0.045403 -2 0 3 
6416 5 0.0708991 0.0561196 0.0529768 -1 6 4 
7644 6 0.815892 0.0454147 0.0636851 5 0 -2 
6202 5 0.852879 0.997457 0.0759161 -3 1 1 
5846 6 0.516985 0.0675363 0.0358081 4 2 -3 
6532 5 0.578331 0.0192551 0.0795008 -3 3 1 
8648 5 0.601388 0.0121771 0.0907529 -4 0 4 
6061 6 0.671175 0.103493 0.0259055 1 1 2 
5749 5 0.695477 0.0860896 0.0363635 -8 1 -3 
7145 6 0.542837 0.0809258 0.0696108 2 3 4 
7142 6 0.727734 0.062342 0.0587231 5 1 0 
6932 5 0.0387648 0.142539 0.0323732 -1 0 3 
7246 5 0.570707 0.125952 0.0711286 2 2 0 
8859 5 0.0962199 0.138966 0.0615351 1 0 -1 
5837 5 0.325275 0.163622 0.0720808 1 1 2 
6026 6 0.846008 0.168381 0.0684982 1 -3 -2 
6820 6 0.18568 0.198716 0.0487325 0 7 3 
8478 5 0.179829 0.172407 0.0402334 6 -2 -4 
8501 6 0.293397 0.16402 0.0873636 -3 -7 -1 
6265 5 0.564057 0.236127 0.0519116 -1 -1 -6 
5598 6 0.418048 0.255103 0.0409859 0 1 -5 
8529 5 0.447767 0.287849 0.0501619 1 1 4 
8079 5 0.797705 0.300528 0.0652937 -2 2 2 
5740 5 0.817837 0.267555 0.0649577 -8 -1 3 
6236 6 0.936097 0.285084 0.0799031 -2 -3 0 
5106 6 0.556031 0.306923 0.0797315 0 -1 2 
8679 5 0.765327 0.31855 0.0744758 2 3 1 
6254 5 0.0813403 0.333645 0.0838238 -3 5 -3 
7999 5 0.798551 0.303315 0.046114 -2 -1 3 
5689 6 0.8635 0.37874 0.0675316 -3 3 3 
8257 6 0.608981 0.362316 0.0743735 2 -3 5 
7365 6 0.35278 0.407293 0.0198975 3 -3 2 
7363 5 0.409386 0.38984 0.0162808 3 -2 0 
7062 5 0.810328 0.417661 0.0598721 0 1 -1 
8716 5 0.966146 0.411775 0.0888162 -4 3 1 
6697 5 0.172922 0.40964 0.0728212 5 -3 1 
8685 6 0.208635 0.41777 0.0565382 -1 2 1 
6205 5 0.627606 0.447073 0.0423507 0 1 7 
8227 5 0.138737 0.474014 0.036145 3 2 3 
5056 5 0.133529 0.455844 0.0866618 2 3 1 
7031 5 0.437218 0.481574 0.0554921 4 6 -1 
6894 5 0.178849 0.499306 0.0638119 1 1 2 
5769 5 0.601218 0.46479 0.0201737 0 1 -1 
6957 5 0.00430003 0.53621 0.0485058 -1 -2 1 
6428 6 0.0976876 0.520826 0.0460874 -1 3 -7 
7250 5 0.227765 0.490908 0.0552153 -4 1 2 
5685 5 0.24596 0.532283 0.069462 -5 5 -4 
6735 5 0.913382 0.509134 0.0476626 -6 1 -3 
7752 5 0.133575 0.519771 0.0388085 4 -1 -3 
6824 5 0.197842 0.532137 0.0586992 -2 -2 -1 
7508 5 0.356282 0.538275 0.096811 -2 4 2 
6102 5 0.783618 0.518618 0.0538348 -2 -5 4 
6095 5 0.198052 0.569608 0.0751194 4 4 4 
7551 5 0.729076 0.54211 0.0446339 3 1 -1 
7171 6 0.706451 0.58283 0.0572152 4 -2 4 
6668 5 0.821698 0.57346 0.0507427 2 -1 -2 
6709 6 0.23607 0.568829 0.0827199 1 0 -1 
5778 5 0.576263 0.586527 0.0419426 -6 -1 0 
6468 5 0.144709 0.628168 0.0265972 2 1 5 
6430 5 0.413164 0.596323 0.0444883 -1 -2 3 
8089 6 0.576543 0.605244 0.0544903 -2 5 1 
6198 5 0.94276 0.591439 0.0733965 -5 -6 2 
8364 5 0.540034 0.63397 0.0280542 5 2 5 
5248 6 0.720306 0.64038 0.0780019 -11 0 2 
5953 5 0.861607 0.64585 0.0785576 2 -2 1 
7011 6 0.462838 0.650844 0.0793817 2 3 3 
7754 6 0.70092 0.632838 0.0443069 3 -3 2 
6009 5 0.771441 0.721751 0.0898558 0 -4 0 
6989 6 0.807701 0.718184 0.061896 -2 -1 5 
7104 6 0.482556 0.752197 0.0777086 0 -1 -1 
6698 5 0.651849 0.699992 0.0446748 -2 2 -1 
5327 6 0.861742 0.719657 0.0265433 2 -1 -1 
6550 5 0.320018 0.765888 0.0660394 3 2 4 
6294 5 0.610023 0.740035 0.0649122 2 -2 -1 
7871 6 0.72185 0.770943 0.0535123 -3 -3 -2 
8666 6 0.43196 0.772585 0.0807368 -1 -4 0 
7038 6 0.395908 0.825105 0.0432514 -4 1 1 
8443 6 0.603041 0.818235 0.0354058 2 0 2 
7938 5 0.719217 0.81539 0.0724594 0 -2 -1 
5342 5 0.419104 0.868699 0.0599838 4 -3 -2 
8932 5 0.342313 0.928826 0.0738045 2 4 1 
7017 5 0.599622 0.92935 0.0646626 -2 0 1 
5853 6 0.843308 0.904713 0.052673 -1 2 -1 
7771 5 0.155798 0.921299 0.0720147 -5 -3 -1 
6860 6 0.305932 0.929115 0.0533519 2 -4 0 
7818 6 0.665063 0.934539 0.0490233 2 4 -2 
5277 5 0.376062 0.00693393 0.0492821 -2 -2 7 
5657 5 0.671189 0.95958 0.0474481 2 0 -2 
6378 6 0.907512 0.962261 0.0400388 2 2 -5 
5733 6 0.564121 0.0413974 0.100865 -1 -1 -3 
6197 6 0.911373 0.0382669 0.0631228 1 2 -2 
6788 5 0.86262 0.0613431 0.0763479 3 4 -1 
7817 5 0.929185 0.0170879 0.0654224 -1 -1 -2 
5932 5 0.374862 0.10673 0.096446 2 0 -4 
5432 6 0.779322 0.0706938 0.0890801 2 -2 -1 
7283 6 0.904135 0.0944549 0.0293595 2 3 0 
5398 5 0.913866 0.11528 0.0816859 -4 3 1 
8656 6 0.00453659 0.0827369 0.0860013 9 -3 0 
6187 6 0.173229 0.0904305 0.0361649 -3 1 0 
7806 6 0.314804 0.134263 0.0522409 -1 0 -2 
6438 6 0.674892 0.0895179 0.0321864 -3 -6 6 
8160 5 0.0881113 0.172032 0.064052 -1 3 0 
5042 5 0.443054 0.132245 0.103381 0 3 3 
7982 6 0.916823 0.166423 0.0957719 -2 -2 -4 
8858 6 0.938302 0.167787 0.0852791 4 3 2 
7630 6 0.0858762 0.234104 0.0797049 3 -1 -4 
5154 6 0.379663 0.195222 0.10549 3 1 3 
7234 6 0.563128 0.197975 0.082067 0 -1 -3 
7109 5 0.723265 0.206088 0.0579865 -1 -2 -4 
6829 5 0.267317 0.209986 0.0629464 2 -1 -1 
7175 5 0.722307 0.203748 0.0872604 4 -3 -1 
5696 6 0.767314 0.235122 0.0524333 1 -1 5 
7731 6 0.593763 0.254921 0.0731715 -2 5 -2 
5882 5 0.104128 0.254758 0.0559977 6 -5 3 
5015 6 0.329391 0.25419 0.0757181 -3 -3 3 
5949 5 0.734684 0.239099 0.0756632 0 0 0 
5669 5 0.698823 0.2776 0.074766 1 1 2 
8387 6 0.418113 0.29853 0.0591017 0 -1 -1 
7869 6 0.588523 0.276486 0.089446 -2 1 4 
6477 5 0.561507 0.274098 0.0622492 2 2 -5 
7036 6 0.948336 0.300561 0.0691342 -1 -1 3 
6569 6 0.250948 0.362004 0.0728715 -2 -2 1 
8037 5 0.361118 0.319125 0.0668777 0 -3 2 
6023 5 0.397992 0.326389 0.0878703 3 2 -2 
5542 6 0.58415 0.351447 0.0887306 1 1 -3 
7758 6 0.198906 0.40569 0.0811079 -2 1 0 
8504 6 0.740019 0.397262 0.095769 -2 -3 -1 
5028 6 0.893618 0.428934 0.0590807 0 0 -3 
5267 6 0.0991326 0.407631 0.0839221 -3 1 2 
8428 5 0.844374 0.387782 0.0823156 1 -2 -4 
7188 6 0.621221 0.407817 0.0723124 -1 3 -4 
6405 5 0.744332 0.425912 0.0864517 -5 -3 3 
8200 5 0.793313 0.397437 0.0800988 1 0 3 
5156 5 0.834883 0.455317 0.0871037 1 -2 -2 
8022 5 0.0900022 0.502517 0.0688948 0 1 1 
7111 6 0.0941412 0.496545 0.056556 -4 -2 6 
5173 5 0.2364 0.44747 0.0689246 0 -2 0 
6845 6 0.345535 0.475338 0.0908174 -1 4 3 
7840 6 0.743681 0.501066 0.0776908 2 4 3 
6436 6 0.939579 0.474083 0.0617173 -5 1 4 
5179 5 0.22564 0.522221 0.0599374 0 4 -3 
5367 5 0.735506 0.549135 0.0968361 -5 -1 6 
8357 5 0.998644 0.543356 0.0529421 0 -2 -2 
6470 5 0.759504 0.600979 0.131003 0 3 2 
8410 5 0.805212 0.564374 0.0594884 -1 -2 -1 
7878 5 0.906898 0.562994 0.0810513 -2 6 0 
7464 6 0.188363 0.59499 0.0796444 -4 4 -3 
8216 6 0.166534 0.59243 0.100808 0 1 1 
7092 6 0.544155 0.617995 0.0219987 -2 1 -1 
6243 5 0.676937 0.651785 0.0927048 2 0 2 
7601 5 0.973937 0.675177 0.059404 -2 -1 1 
7899 6 0.437331 0.716299 0.117265 1 0 3 
7059 5 0.557907 0.712148 0.0575634 4 1 0 
6374 5 0.818864 0.661291 0.0761473 1 1 1 
8572 5 0.854126 0.675281 0.109293 1 3 2 
8736 6 0.229071 0.750186 0.0807762 0 0 -2 
6615 5 0.576607 0.692891 0.0951642 0 1 1 
6825 5 0.343703 0.760882 0.06591 -2 1 4 
5214 6 0.523697 0.777862 0.0881142 0 0 4 
8876 5 0.0999776 0.810204 0.0918506 1 0 5 
8068 6 0.324925 0.815582 0.0896172 3 -1 -8 
7286 5 0.564138 0.802408 0.0544196 -4 2 1 
6149 6 0.568965 0.80007 0.0959422 -1 -3 1 
5584 5 0.202891 0.852383 0.0644205 0 -2 4 
8804 6 0.222089 0.828594 0.0476576 0 -2 2 
7590 6 0.649988 0.811263 0.0465885 3 -6 2 
6868 5 0.684353 0.84696 0.0589778 -2 1 -1 
5134 6 0.33063 0.911348 0.0827399 6 -1 -4 
7007 6 0.368599 0.932666 0.0897821 -7 -7 -3 
6677 5 0.151904 0.0047796 0.069182 -4 -3 -2 
5770 5 0.628471 0.934649 0.0973467 3 -4 0 
7988 5 0.802407 0.977204 0.0639424 3 4 3 
5565 5 0.0105938 0.963449 0.0643478 -6 2 -1 
7368 6 0.0596997 0.00538199 0.0676082 1 -1 0 
6683 5 0.383 0.993356 0.0801359 -1 -1 -2 
7466 6 0.822892 0.983181 0.0816586 2 3 0 
5935 5 0.188847 0.00490856 0.136403 1 3 -1 
8943 6 0.327093 0.0229196 0.107898 3 1 -2 
8739 6 0.614487 0.00442872 0.134699 0 1 0 
5485 6 0.675136 0.00506765 0.0983891 4 -1 0 
7745 5 0.297542 0.0532123 0.0938977 2 5 0 
5220 6 0.847456 0.0330363 0.082399 -5 2 2 
7633 5 0.390389 0.0623518 0.10787 -2 1 0 
5356 6 0.735919 0.0609604 0.0719531 0 3 3 
5402 5 0.0391733 0.107443 0.0574246 4 1 9 
7256 6 0.910669 0.105931 0.105411 1 0 0 
5325 5 0.0711906 0.115106 0.105493 4 2 -1 
6164 5 0.500899 0.118355 0.0981275 2 -1 4 
8950 5 0.72937 0.120539 0.0770882 2 3 -2 
8219 6 0.770915 0.0718851 0.0693912 -7 -6 1 
7703 6 0.903585 0.0843776 0.116254 -3 -6 6 
7850 6 0.592197 0.0983332 0.0936102 2 0 -5 
7206 5 0.680652 0.13021 0.112022 3 -1 3 
8674 5 0.10486 0.217197 0.0818996 1 -1 1 
5496 5 0.791617 0.193039 0.0943747 -5 2 5 
5745 6 -0.000967805 0.181436 0.133053 1 -2 6 
8839 6 0.0555279 0.175908 0.123207 5 -2 1 
6904 6 0.744466 0.224046 0.105818 1 1 0 
5280 6 0.949494 0.243481 0.0890617 -2 0 0 
8809 6 0.501427 0.207434 0.074812 -3 4 -7 
5617 5 0.0218926 0.270534 0.110447 -1 -2 3 
8878 5 0.122258 0.257843 0.0687316 0 2 0 
5012 5 0.244706 0.304716 0.0993866 0 2 -1 
8958 6 0.543277 0.337358 0.133653 -1 4 4 
7181 6 0.938595 0.360708 0.0811713 1 1 3 
8099 6 0.0604173 0.335068 0.124434 7 1 1 
6116 6 0.601154 0.329984 0.0747454 -2 5 -1 
8137 5 0.933591 0.354954 0.104373 4 -4 3 
6106 5 0.254278 0.320165 0.114092 0 -4 -1 
8706 6 0.971031 0.343196 0.124092 -6 -2 4 
6046 5 0.814082 0.43373 0.104832 -1 -3 0 
6052 5 0.487543 0.39604 0.090404 -1 -2 1 
7410 6 0.586094 0.414 0.129228 5 -3 -1 
8956 5 0.761637 0.380831 0.0847102 1 -5 0 
7238 6 0.453927 0.403111 0.0826782 2 -1 4 
6724 5 0.464703 0.399055 0.113355 -2 2 2 
7422 5 0.948641 0.436708 0.117597 -1 -3 6 
5453 5 0.183759 0.452464 0.0939486 -2 -5 -1 
5557 5 0.697637 0.462617 0.119267 -6 1 -2 
7110 6 0.648052 0.472785 0.0986072 3 0 0 
7037 6 0.0570845 0.538676 0.10003 4 5 -3 
6272 6 0.0667331 0.488122 0.113846 -2 3 1 
7623 6 0.566689 0.478664 0.0969759 1 -6 3 
7108 6 0.162439 0.52744 0.08157 -1 1 -4 
7087 6 0.233361 0.55305 0.113629 -4 -4 2 
8591 5 0.775197 0.521073 0.084828 -1 3 3 
8217 6 0.694803 0.548669 0.117807 -2 0 -2 
5590 6 1.00241 0.587402 0.0734037 -3 2 -3 
5554 5 0.89309 0.588803 0.122995 -3 -2 4 
5083 5 0.129789 0.646725 0.0669809 -3 -3 -2 
6638 5 0.14107 0.586902 0.0712422 -5 -2 -5 
8368 5 0.500835 0.599208 0.0816157 0 0 -3 
8030 5 0.850942 0.585312 0.0691416 0 1 6 
6737 5 0.079319 0.616116 0.107568 6 2 -5 
7008 6 0.290969 0.63788 0.0677838 4 -4 -4 
5592 6 0.836737 0.598498 0.135122 -3 3 2 
7613 5 0.272311 0.640585 0.119192 0 -1 -2 
5230 6 0.259289 0.616676 0.085193 -4 -6 1 
6809 6 0.447234 0.637091 0.110993 -3 0 2 
8514 5 0.815818 0.674353 0.103213 0 -3 7 
8955 5 0.116839 0.680871 0.0740151 1 -2 1 
8195 6 0.114549 0.72638 0.0843868 -4 -4 2 
5922 5 0.163028 0.702633 0.113798 0 0 1 
7217 6 0.482516 0.697814 0.112262 -1 -3 -1 
7730 6 0.563659 0.697894 0.0983348 1 3 2 
8512 6 0.258059 0.70791 0.140453 2 3 -2 
6692 6 0.526467 0.728735 0.116489 -3 -1 1 
6589 5 0.720633 0.729451 0.0958543 2 6 -1 
8847 6 0.863415 0.78508 0.10288 -4 1 -3 
8424 5 0.0623106 0.793871 0.086666 3 -3 5 
8841 6 0.390716 0.834077 0.152414 0 -3 2 
7185 6 0.787205 0.809751 0.0959657 1 -1 2 
8156 5 0.216348 0.808262 0.106825 -5 -3 3 
6433 5 0.240892 0.872868 0.148147 4 -5 -3 
7956 5 0.354971 0.817586 0.0896834 -5 -1 3 
6053 5 0.439752 0.847854 0.0941691 1 -1 -3 
8036 5 0.862968 0.862468 0.0676563 -6 2 -1 
5551 6 0.997489 0.844647 0.0797626 1 0 3 
6071 6 0.325514 0.911979 0.0934759 -1 -5 0 
7232 6 0.013141 0.923186 0.06064 2 0 1 
6934 6 0.794798 0.954472 0.125516 0 2 2 
5266 6 0.972873 0.980257 0.079961 -1 1 -1 
7003 6 0.556656 0.024229 0.0598711 2 1 -1 
8737 5 0.662934 0.0130528 0.112205 0 0 -1 
7911 6 0.862231 0.997549 0.111981 4 1 5 
5198 6 0.95301 0.947569 0.0285939 0 0 3 
6539 5 0.972396 0.973742 0.0935866 2 0 3 
8023 5 0.139159 0.0675013 0.121367 -1 0 -1 
7418 5 0.184332 0.0208699 0.125743 5 -6 2 
5368 5 0.277916 0.0206225 0.148077 -3 -4 -3 
5643 5 0.288816 0.038726 0.156586 -3 -5 3 
6646 5 0.0639361 0.0393985 0.115364 -4 4 0 
5886 6 0.164167 0.0521181 0.124655 -2 -3 -2 
8295 5 0.0151516 0.0818621 0.136059 2 -1 1 
7560 5 0.252912 0.0512935 0.139392 2 -5 1 
6227 5 0.29729 0.130261 0.0956327 -3 -5 2 
5974 5 0.68169 0.0866139 0.136978 1 0 -1 
5973 5 0.262856 0.145368 0.152474 2 -1 -1 
5639 6 0.633268 0.137853 0.0965794 0 3 -2 
6155 5 0.0242599 0.205834 0.114499 1 2 -4 
5524 5 0.433042 0.201404 0.150586 3 -4 -5 
8885 6 0.836125 0.19895 0.107695 -2 3 3 
6772 5 0.131248 0.214995 0.17254 2 1 1 
8912 6 0.532009 0.186741 0.180767 4 -3 -1 
5434 5 0.461796 0.201413 0.13734 -3 -5 2 
5905 5 0.737699 0.281583 0.150478 5 5 -1 
6846 6 0.107054 0.310178 0.109344 2 -1 5 
5233 5 0.176466 0.289425 0.146687 0 2 2 
7002 6 0.298593 0.263492 0.122042 -2 0 0 
7547 5 0.576701 0.324329 0.156133 -3 1 0 
8289 6 0.190218 0.321426 0.135778 1 0 0 
6973 6 0.391436 0.347065 0.146329 -1 1 4 
7598 5 0.798743 0.328752 0.0999933 0 1 -3 
6345 6 0.983607 0.320178 0.129457 -5 5 -2 
7986 6 0.356787 0.369704 0.151167 8 0 1 
6822 5 0.298433 0.404994 0.132621 3 1 2 
6427 6 0.79454 0.412315 0.122269 -3 -1 1 
8643 6 0.919167 0.460705 0.102016 -4 0 5 
8277 5 0.0707794 0.518618 0.100342 2 6 4 
6814 5 0.655846 0.502615 0.108061 -2 -1 4 
5466 6 0.0778435 0.513013 0.118191 -1 -6 3 
6515 6 0.183773 0.541791 0.0783904 2 2 -5 
5806 5 0.215033 0.54918 0.103987 -3 8 3 
5168 5 0.586249 0.539099 0.131535 -2 0 -4 
5183 6 0.662409 0.576619 0.122902 0 -1 0 
8393 5 0.80305 0.570178 0.115397 -3 -3 -2 
5147 6 0.607508 0.53616 0.116895 2 2 -1 
6826 5 0.924372 0.584411 0.104938 1 -4 2 
7555 5 0.975732 0.600609 0.103856 -3 -1 1 
7685 5 0.662488 0.581073 0.117738 -2 3 -3 
7458 6 0.692457 0.584143 0.126802 1 1 -2 
8553 5 0.765692 0.616499 0.134394 5 0 -1 
8102 6 0.408905 0.650733 0.119308 1 -3 -2 
5099 6 0.375456 0.631078 0.0962838 -3 -1 0 
6925 6 0.659794 0.59965 0.130767 2 7 2 
7182 6 0.528034 0.666385 0.130777 -3 0 -1 
7567 5 0.0335955 0.670863 0.0918826 0 3 1 
8083 6 0.818217 0.688773 0.138726 -4 -1 -4 
8222 5 0.881521 0.691135 0.132448 2 3 -1 
8893 5 0.655175 0.711989 0.140248 2 -3 0 
5711 6 0.190371 0.743335 0.153099 1 -1 -2 
8780 6 0.303193 0.778737 0.127085 -3 -1 2 
8347 6 0.653778 0.731349 0.11514 1 0 5 
5701 6 0.379021 0.800718 0.141344 0 1 -1 
6209 5 0.372959 0.810926 0.145377 0 5 -1 
8756 5 0.627722 0.78008 0.133063 0 0 0 
7619 5 0.635996 0.792858 0.145248 5 -1 -1 
8469 5 0.624424 0.768082 0.102176 -4 2 0 
6935 6 0.0293667 0.779429 0.12175 0 -3 1 
6133 6 0.123476 0.852736 0.155429 -1 -5 -2 
8275 5 0.420771 0.814234 0.112363 -4 4 -4 
8634 6 0.66853 0.857474 0.127726 -1 0 5 
8641 5 0.759924 0.857033 0.118275 1 1 -2 
5645 6 0.350054 0.859954 0.143373 0 1 -4 
8867 5 0.363828 0.874457 0.102749 -1 -1 -2 
5702 6 0.603956 0.842239 0.101748 -1 -1 -2 
5631 6 0.414813 0.877527 0.101056 6 -2 1 
7130 6 0.828821 0.867824 0.0945918 0 1 -1 
6710 5 0.0171571 0.883521 0.131902 1 2 1 
6300 6 0.591154 0.903374 0.11662 1 -1 4 
6038 5 0.96298 0.905999 0.106978 1 2 4 
7891 5 0.216769 0.948971 0.122236 -3 -1 3 
7783 5 0.776718 0.881628 0.084139 1 -3 2 
5100 6 0.45868 0.952856 0.143887 -2 -5 3 
5652 5 0.546526 0.955454 0.124923 -1 2 2 
5461 5 0.106538 0.982309 0.149574 -2 0 -5 
8766 5 0.158279 0.980448 0.140704 0 -3 3 
8356 6 0.252763 0.964407 0.115911 3 0 -1 
8996 5 0.694093 0.00083137 0.112222 -1 -4 1 
5482 6 0.0553549 0.939122 0.153339 0 -3 -4 
5069 6 0.00303002 0.956618 0.105827 2 -3 -1 
6736 5 0.737578 0.0120333 0.10221 0 4 -5 
7049 5 0.865519 0.00642401 0.171056 0 7 -3 
6912 5 0.882124 0.0276655 0.125331 0 -7 1 
5094 6 0.30327 0.062308 0.126491 -1 1 -1 
7650 6 0.49409 0.0901834 0.135228 2 2 4 
8570 6 0.363276 0.14808 0.15398 3 1 -5 
6124 6 0.731484 0.108254 0.128256 -6 1 -1 
5841 6 0.246024 0.13507 0.183525 4 -3 2 
7312 6 0.324394 0.155406 0.146008 5 3 3 
8998 6 0.21769 0.143192 0.156186 3 3 0 
7147 5 0.693319 0.203798 0.172562 3 -2 2 
5836 5 0.831648 0.217491 0.17315 -2 -1 -1 
6176 6 0.897423 0.170677 0.109119 -1 6 -1 
8384 5 0.203351 0.220662 0.17115 -1 5 -3 
8557 5 0.095962 0.231056 0.127311 -1 -4 -1 
8785 5 0.686246 0.237315 0.142326 0 3 -2 
5699 5 0.67495 0.304841 0.189237 1 -4 -2 
5346 5 0.233379 0.268316 0.138564 4 0 -3 
6640 6 0.411577 0.263021 0.111831 0 4 2 
8865 5 0.450813 0.269573 0.143344 -2 8 -1 
6781 6 0.642401 0.323656 0.143227 1 2 -1 
5160 5 0.612098 0.331412 0.168805 0 -3 -1 
7505 6 0.445834 0.359035 0.184575 2 4 0 
5547 5 0.549734 0.313357 0.177463 -1 3 0 
5096 6 0.220437 0.338481 0.130498 6 5 3 
6018 6 0.193624 0.376033 0.138023 1 1 -3 
6347 5 0.558387 0.365299 0.103222 -2 -1 0 
6011 5 0.58827 0.402199 0.187228 -3 -1 -1 
8438 5 0.664587 0.395752 0.15102 1 0 1 
7996 6 -0.000457633 0.406485 0.145915 5 0 1 
7708 5 0.187909 0.37954 0.121067 -2 -4 -4 
5296 6 0.176191 0.434909 0.11388 3 3 3 
6570 5 0.476593 0.450756 0.151052 -3 3 2 
8338 5 0.564927 0.432832 0.14125 -5 5 -2 
6292 6 0.432346 0.511658 0.161451 6 1 2 
5967 6 0.878604 0.501344 0.171673 -4 4 3 
8596 6 0.389613 0.551699 0.163257 -1 3 1 
5109 5 0.691226 0.530868 0.189729 -6 -2 -1 
7589 6 0.215178 0.590327 0.132445 4 -5 2 
7042 5 0.820311 0.545624 0.133655 2 -1 -1 
6093 6 0.0966746 0.577732 0.153439 -2 -2 1 
8844 6 0.167343 0.604401 0.159912 -4 2 -2 
8654 6 0.182553 0.644064 0.190073 0 -3 0 
7119 5 0.00858075 0.694119 0.155893 2 4 1 
6705 6 0.0696762 0.634889 0.169785 5 1 3 
8126 6 0.504858 0.690631 0.111721 0 4 -2 
6802 5 0.729396 0.66348 0.143346 1 -5 -1 
5635 6 0.385665 0.757494 0.15078 -5 1 1 
7679 5 0.864562 0.699284 0.158322 0 1 0 
5195 5 0.0834983 0.741155 0.146418 1 2 1 
7898 5 0.105809 0.75632 0.160887 -2 -1 1 
8569 6 0.173128 0.735519 0.138148 3 -3 0 
6091 6 0.1913 0.716489 0.152852 2 -4 4 
8602 6 0.66862 0.715695 0.113385 4 2 0 
8880 5 0.931992 0.737777 0.19791 1 3 -3 
6297 5 0.577227 0.751877 0.178207 -1 -2 2 
6684 6 0.809913 0.732387 0.149025 -4 -7 0 
7346 6 0.117197 0.811028 0.173417 0 3 0 
8577 5 0.813308 0.762544 0.164329 0 -4 -6 
6306 6 0.335564 0.796267 0.174335 -1 -4 1 
7516 5 0.199019 0.819814 0.150328 -2 1 0 
6379 6 0.480938 0.850281 0.16934 0 -1 2 
7879 6 0.223979 0.83735 0.141343 1 1 4 
7131 6 0.202482 0.84641 0.133565 -3 0 0 
7964 5 0.188771 0.860006 0.114133 1 -1 4 
5950 5 0.247409 0.855274 0.127991 -3 -2 -5 
5513 6 0.777389 0.863414 0.143962 -1 -5 3 
7203 6 0.599971 0.927365 0.153172 -6 -2 2 
6873 6 0.442443 0.883981 0.161021 -5 -4 -4 
7669 5 0.894215 0.930939 0.13506 6 3 0 
5318 6 0.04098 0.962097 0.168193 4 2 0 
6993 6 0.403616 0.927942 0.150552 -4 -6 2 
5162 6 0.702065 0.921802 0.128303 -3 -1 -1 
8284 6 0.712424 0.945404 0.145544 -1 0 1 
7774 6 0.0410391 0.979596 0.145575 1 1 0 
6524 6 0.532088 0.960664 0.165021 4 -5 3 
8050 6 0.520529 0.933279 0.147239 0 0 0 
7517 6 0.771331 0.949025 0.150451 -3 -6 0 
7628 6 0.786939 0.940386 0.17362 1 0 -1 
6624 5 0.322464 0.970396 0.154489 2 -4 -1 
5410 6 0.92698 0.974679 0.0962923 -3 -4 0 
6590 5 0.949012 0.997806 0.160512 -2 1 0 
5610 5 0.436541 0.0269474 0.163955 3 -1 -2 
8898 6 0.349907 0.0331827 0.155435 1 0 0 
6431 6 0.956482 0.0685474 0.179651 0 -1 3 
8114 6 0.35759 0.069439 0.155227 -8 -4 -3 
7642 6 0.650279 0.0719055 0.16062 -3 0 0 
5204 5 0.189965 0.102245 0.179585 1 -1 4 
5098 5 0.173245 0.128308 0.20839 2 0 -1 
8971 6 0.795118 0.152762 0.165771 -1 -1 2 
8374 6 0.399004 0.185651 0.211542 -7 0 -1 
5365 5 0.719088 0.164435 0.175549 1 1 6 
5425 6 0.804859 0.16671 0.157703 0 1 3 
6094 5 0.503356 0.200017 0.166206 -1 4 6 
8650 5 0.785142 0.214358 0.206977 2 1 0 
6899 5 0.545748 0.193548 0.165023 0 -1 5 
6346 6 0.756214 0.187858 0.186539 -3 4 2 
6458 5 0.955236 0.257656 0.173857 -3 -1 0 
5985 5 0.097771 0.228446 0.160873 3 -2 0 
6815 6 0.273735 0.232454 0.176206 -1 -2 -6 
8899 5 0.251706 0.248442 0.162166 1 2 -1 
7530 6 0.401607 0.25691 0.155625 -1 0 -1 
8672 5 0.46373 0.323239 0.153923 -1 -6 4 
8220 6 0.200365 0.321819 0.190728 2 2 -1 
7478 5 0.507945 0.315297 0.219416 1 -3 2 
7778 5 0.542379 0.287503 0.1825 -1 -1 -7 
8377 5 0.657528 0.321193 0.165153 -3 -5 -5 
7106 6 0.832766 0.292377 0.18191 -1 0 1 
7979 5 0.264729 0.309015 0.131801 0 0 1 
8245 6 0.367453 0.346824 0.169618 1 -4 -4 
6007 5 0.440172 0.38778 0.134126 0 -3 -3 
6343 5 0.691001 0.306263 0.181954 4 -4 0 
7845 6 0.225347 0.362195 0.168312 3 6 -1 
8892 6 0.154679 0.362316 0.180701 -3 4 -1 
7215 6 0.256813 0.37306 0.197072 0 1 -1 
5127 5 0.905143 0.399865 0.167718 -4 4 -2 
7449 6 0.278493 0.416835 0.155752 1 -1 2 
6527 6 0.594229 0.432681 0.164136 5 0 0 
6135 5 0.63619 0.412089 0.19864 1 1 1 
6466 6 0.636859 0.394177 0.187048 1 1 2 
6843 6 0.284955 0.444112 0.155208 0 -2 -2 
8392 6 0.335015 0.449148 0.166606 -2 -3 -3 
7556 5 0.498711 0.449135 0.179985 3 -1 2 
5963 5 0.698021 0.452479 0.136997 -1 1 -1 
8067 5 0.731994 0.468203 0.178201 2 3 -2 
5076 5 0.290547 0.490181 0.184599 -2 3 0 
6385 6 0.360103 0.453307 0.218775 1 5 -2 
7231 6 0.944891 0.450883 0.163627 -1 -8 0 
8984 5 0.953287 0.410982 0.169503 1 3 0 
8265 5 0.828613 0.504058 0.203099 1 4 -6 
5822 5 0.663591 0.568376 0.140291 2 2 1 
8485 5 0.977215 0.520901 0.147864 -3 -3 0 
6526 6 0.00853348 0.543006 0.138157 1 0 -2 
6908 5 0.471426 0.573503 0.113139 -2 -4 -3 
8972 5 0.97884 0.562948 0.178999 -5 5 0 
5020 6 0.776658 0.600328 0.15962 1 0 3 
7657 6 0.782975 0.601607 0.1528 2 0 5 
6434 5 0.0594446 0.630468 0.138468 4 -6 -1 
7892 5 0.663194 0.674357 0.181682 -6 -4 3 
7019 5 0.942515 0.670751 0.175662 3 0 3 
7957 5 0.200671 0.701799 0.156275 1 1 -1 
7621 6 0.42217 0.668079 0.139884 -5 5 3 
8502 6 0.47561 0.684474 0.169629 -2 -2 -2 
5624 5 0.843553 0.735295 0.169406 1 -1 0 
8120 6 0.167784 0.812208 0.139511 0 0 5 
5620 6 0.607775 0.735097 0.158147 -5 0 -2 
7342 6 0.822872 0.777911 0.162751 3 -2 1 
7787 6 0.825236 0.760048 0.194284 1 2 2 
6913 6 0.876177 0.784561 0.151119 -5 0 0 
8768 6 0.0578798 0.843669 0.201204 3 -7 0 
6075 6 0.149347 0.837229 0.175075 -3 -4 -5 
6713 6 0.798065 0.867796 0.18094 -2 2 3 
7385 5 0.264467 0.865989 0.19937 -2 3 -1 
5824 6 0.931478 0.884966 0.174692 -5 -2 1 
7570 5 0.900559 0.912916 0.186549 -6 -3 1 
5570 6 0.993951 0.943341 0.195632 1 1 -3 
6652 5 0.107808 0.94715 0.191629 4 3 -1 
6078 5 0.306919 0.911002 0.168002 -2 3 4 
8754 6 0.11393 0.940386 0.163093 4 2 -4 
8159 5 0.134594 0.96111 0.141343 0 -1 2 
7807 6 0.923948 0.968038 0.128056 -2 -4 -5 
7297 5 0.350038 0.979985 0.192988 0 2 -5 
7830 6 0.379621 0.979875 0.181413 -4 -3 -4 
5766 6 0.711995 0.00343386 0.153014 0 -2 -1 
8262 5 0.252557 0.0243467 0.177206 1 0 0 
8448 5 0.0347993 0.0290905 0.183869 -2 2 6 
7295 5 0.81277 0.00975212 0.224407 1 1 4 
7662 5 0.936191 0.0432264 0.194286 -1 3 -2 
6407 6 0.308758 0.0144052 0.222658 2 1 0 
6998 5 0.58856 0.0673662 0.173508 -3 0 0 
8359 5 0.10564 0.0995238 0.229297 -4 5 -1 
5279 5 0.0985315 0.100584 0.199176 -1 0 -3 
7404 5 0.408072 0.071346 0.206717 -5 -2 -2 
8565 5 0.523588 0.11105 0.210096 1 4 1 
8567 6 0.53409 0.137672 0.178741 0 1 -2 
5112 5 0.90166 0.0877018 0.151808 -2 -1 2 
8576 5 0.264519 0.0955809 0.215113 0 1 -2 
6782 6 0.416391 0.102194 0.187379 4 1 1 
8081 5 0.697938 0.115299 0.187323 -3 0 -5 
5619 5 0.799461 0.130727 0.201967 3 0 5 
5571 6 0.257693 0.133807 0.191287 -1 0 0 
8345 6 0.474394 0.140561 0.147321 3 1 3 
7221 5 0.358065 0.143118 0.145307 2 -1 1 
7631 5 0.730565 0.119932 0.170258 -1 -2 1 
6417 6 0.918695 0.224613 0.193914 -2 6 2 
8468 6 0.123374 0.189829 0.19581 2 -2 1 
6662 6 0.31562 0.290466 0.211099 -4 2 -1 
8779 6 0.527721 0.247709 0.191864 1 -1 0 
5680 5 0.904218 0.230908 0.188225 1 1 2 
6299 6 0.284812 0.273242 0.175561 2 -2 -1 
7488 5 0.36292 0.231264 0.17334 0 -2 5 
8758 5 0.530085 0.261064 0.155119 -1 -5 -1 
7050 6 0.678734 0.269914 0.203941 0 -2 4 
5086 6 0.83623 0.280369 0.230241 0 3 2 
5246 6 0.0900368 0.280568 0.206389 2 -4 4 
7360 5 0.242311 0.30548 0.237296 -1 2 -1 
6693 6 0.409463 0.266029 0.199821 2 0 4 
5677 5 0.410731 0.296779 0.150543 0 -2 0 
7462 6 0.660756 0.298584 0.203353 2 -3 3 
7905 6 0.170731 0.320965 0.173975 2 -1 -2 
6340 6 0.253788 0.35348 0.190651 -2 -1 -2 
7876 5 0.337281 0.342977 0.162582 -3 -2 -3 
6956 6 0.123696 0.369717 0.13455 4 -3 -4 