ITEM: TIMESTEP
20000000
ITEM: NUMBER OF ATOMS
9000
ITEM: BOX BOUNDS pp pp pp
-75 75
-75 75
-75 75
ITEM: ATOMS id type xs ys zs ix iy iz 
6804 6 0.496303 0.972898 0.0192026 3 0 2 
5675 6 0.584032 0.0443515 0.0222755 0 0 0 
7325 5 0.346072 0.00620552 0.0397617 -3 4 -3 
5448 6 0.766339 0.0169349 0.981807 6 7 -3 
5802 5 0.906171 0.0460109 0.995139 1 -4 2 
5547 6 0.253594 0.0825737 0.996732 -1 -6 -3 
8686 5 0.542245 0.0434759 1.00062 2 -6 -3 
7440 6 0.584393 0.129433 0.0126331 -1 -1 1 
7844 6 0.753177 0.122681 0.0108661 1 -1 -1 
5110 5 0.746104 0.074699 0.983339 -1 6 0 
6192 5 0.181385 0.0874044 0.0434612 -4 0 1 
5469 6 0.200581 0.147658 0.973458 2 -4 -6 
7733 5 0.536466 0.1429 0.989502 -2 1 -1 
7443 5 0.677887 0.134094 0.0108034 -2 2 2 
8778 5 0.766208 0.151929 1.0021 4 3 -5 
8097 5 0.81057 0.182824 0.045729 0 1 2 
6783 5 0.828851 0.185595 0.0050284 3 0 2 
6945 5 0.844053 0.206992 0.0270636 3 3 5 
6580 5 0.0170745 0.244062 0.0490177 4 1 1 
8340 5 0.869887 0.195492 0.0458879 1 0 1 
7825 6 0.551272 0.229537 0.0419439 2 1 2 
5472 5 0.26183 0.258309 0.989732 -1 0 -4 
6363 6 0.725293 0.282332 0.984033 1 1 -2 
7434 6 0.87798 0.301295 0.028271 1 1 0 
8248 5 0.458947 0.304561 0.0325081 -3 1 3 
7984 5 0.867737 0.331261 0.0157677 -2 1 -1 
5733 5 0.13106 0.338026 0.0261414 1 -1 -1 
7616 6 0.776049 0.366602 0.0289719 5 -3 3 
8000 5 0.208797 0.358189 0.989002 0 -1 -6 
6719 6 0.1533 0.402537 0.00204795 2 1 3 
6290 6 0.53114 0.381095 0.995289 -2 -1 -4 
8667 5 0.454053 0.456923 0.0363803 8 5 5 
5822 6 0.843796 0.4254 0.987662 -1 -2 2 
5064 6 0.592113 0.414258 0.0215494 -1 -2 2 
7947 6 0.31908 0.484172 0.989643 0 1 1 
6051 6 0.958695 0.444523 0.988473 0 -6 -2 
5836 6 0.954738 0.45189 0.990736 -1 0 -5 
5790 5 0.0356354 0.481034 0.00523527 0 -1 1 
6035 6 0.153764 0.504099 0.0254235 -5 0 2 
6871 6 0.201503 0.509951 0.0146566 -2 -6 -1 
5719 5 0.696158 0.525832 0.007227 0 4 1 
6380 6 0.723603 0.528389 0.0109756 -1 1 0 
6268 5 0.816287 0.54543 0.0398263 -3 4 0 
7247 5 0.826865 0.532142 0.959894 -3 0 -1 
8013 5 0.0318368 0.532119 0.0100079 0 -3 -1 
5455 5 0.268575 0.583045 0.0187886 -3 -2 1 
5492 6 0.336323 0.523923 0.947815 1 -2 -1 
8368 6 0.909863 0.564909 0.0410466 -3 1 4 
5232 5 0.20064 0.594189 0.992206 3 -7 2 
7730 6 0.168913 0.584507 0.00926047 -3 -1 5 
7596 5 0.360933 0.595342 0.0352819 -2 -1 -1 
7739 6 0.376255 0.556253 0.0796393 2 3 1 
6053 5 0.670055 0.617149 0.00213065 -2 -2 -3 
8932 6 0.861204 0.628279 0.0330034 -5 -3 2 
7670 5 0.350637 0.655833 -4.36966e-05 -2 1 1 
8458 5 0.418572 0.614007 0.00707597 3 0 1 
5645 5 0.737758 0.603149 0.0100018 3 -6 -1 
7803 5 0.766913 0.602046 0.0700776 -3 5 5 
6532 6 0.0773108 0.715051 0.00558435 5 -1 2 
7868 6 0.735948 0.682694 0.0364479 0 -2 -1 
6221 6 0.304617 0.720621 0.00440794 3 -2 -2 
6793 6 0.293213 0.696194 0.0582333 2 0 0 
8015 6 0.0160033 0.76834 0.977609 -1 0 -4 
6013 5 0.177092 0.718974 0.970742 3 1 -1 
8653 5 0.179984 0.721281 0.994014 -2 4 -3 
7424 5 0.98489 0.798296 0.0302662 0 -3 2 
5150 5 0.149321 0.778227 0.00816808 -3 5 7 
6434 5 0.842654 0.807472 0.983976 -3 -1 6 
6526 5 0.198553 0.774615 0.969231 -4 1 -1 
8591 6 0.241204 0.803265 0.00557072 2 2 4 
6782 6 0.664167 0.828621 0.000529465 -2 -3 6 
8813 6 0.250647 0.884246 0.0107138 1 5 -4 
8220 5 0.689279 0.853347 0.0040086 -4 -2 -1 
7211 6 0.43775 0.8799 0.0277811 -1 0 -3 
6940 6 0.566767 0.873255 0.0296842 6 4 3 
8815 5 0.256998 0.895377 0.0230151 -1 -1 -3 
5366 5 0.74209 0.933454 0.978532 -1 0 -6 
6391 6 0.390682 0.95069 0.0209366 3 5 -3 
8779 6 0.797894 0.941434 0.99672 4 3 4 
6502 6 0.946643 0.962021 0.00407335 2 4 6 
5838 5 0.513137 0.998746 0.000737359 6 4 1 
5239 5 0.475926 0.00640719 0.997384 4 -5 5 
7353 6 0.814865 0.997036 0.0310232 0 -3 -4 
5907 5 0.83786 0.978237 0.00504679 1 -3 -2 
7967 6 0.353243 0.0347236 0.0162533 3 -2 0 
5425 5 0.695631 0.0789276 0.0235964 1 2 -6 
5363 5 0.251746 0.103765 0.0377402 1 2 0 
8120 5 0.728172 0.0669038 0.0396186 -1 0 3 
6317 6 0.380319 0.158409 0.0613297 6 2 -1 
8803 5 0.394 0.116581 0.0344687 -1 -6 -3 
5779 6 0.629164 0.10999 0.0610106 -1 1 2 
7428 6 0.0676841 0.194634 0.0131871 4 2 1 
5601 5 0.0153434 0.150356 0.0521612 0 -2 -2 
7415 6 0.0276024 0.14094 0.0330311 -10 3 4 
8150 5 0.773096 0.15746 0.0261744 -2 3 -1 
8064 6 0.507775 0.155229 0.00872869 -1 4 3 
8732 5 0.373253 0.156068 0.00460929 0 2 2 
5941 6 0.324546 0.197063 0.0322539 7 4 6 
6103 5 0.917936 0.254595 0.050571 7 0 0 
5229 6 0.0731663 0.234947 0.0680222 0 0 0 
7760 6 0.384909 0.235764 0.999307 -2 -4 1 
8084 6 0.498125 0.242836 0.00251798 5 0 -2 
6823 6 0.781763 0.239543 0.0443498 -1 -3 -3 
6851 5 0.00164209 0.252544 0.0256578 -1 1 0 
6101 6 0.264467 0.281393 0.0311969 1 2 -1 
6771 6 0.694686 0.224444 0.976849 -1 -3 4 
7340 6 0.0353443 0.27033 0.0742774 5 9 -1 
5155 6 0.349402 0.294076 0.020476 -1 -1 5 
8992 6 0.0424273 0.278681 0.0482792 2 -1 -1 
6969 6 0.0319462 0.356639 0.0418227 2 -1 -1 
7758 6 0.640952 0.338264 0.0450489 -2 -2 5 
6258 5 0.673488 0.292945 0.0267867 -7 -2 2 
6226 5 0.818673 0.320095 0.0444903 4 -2 -3 
5967 6 0.916618 0.347349 0.0441168 -2 -2 -1 
8212 5 0.523046 0.412162 0.0648481 -2 0 6 
8108 6 0.717499 0.449295 0.0586184 0 1 -2 
7597 6 0.869577 0.42304 0.0071757 0 -1 0 
5088 5 0.899649 0.426147 0.0282809 -1 0 1 
7511 6 0.226913 0.463617 0.0388978 0 2 2 
8092 5 0.313132 0.468878 0.0107098 -6 7 -3 
5798 5 0.533004 0.484977 0.000991758 0 0 4 
5995 5 0.547085 0.452724 0.0425278 2 4 -3 
7160 6 0.915453 0.419187 0.0739658 4 0 -5 
8012 6 0.247102 0.465948 0.0144615 -2 1 4 
7871 6 0.56351 0.550749 0.0532079 2 2 -4 
6240 5 0.886669 0.516979 0.0242607 0 2 -3 
8532 6 0.761056 0.53877 0.0211742 -1 2 1 
7292 6 0.273061 0.571806 0.0389443 -6 -1 -1 
7025 6 0.916925 0.542897 0.0510606 -1 -1 -5 
6666 6 0.996257 0.52038 0.0393952 -5 -1 2 
7241 5 0.21283 0.550472 0.00870915 1 0 -2 
8116 6 0.439775 0.581227 0.0421442 0 4 5 
7375 6 0.667018 0.619249 0.0179178 -4 0 -1 
8741 6 0.722025 0.576279 0.0494141 1 6 0 
8246 6 0.246878 0.632466 0.0550397 3 0 -4 
6820 6 0.276096 0.601408 0.0420214 1 0 1 
6750 5 0.32427 0.666758 0.0510792 -5 0 -4 
7628 5 0.455248 0.644573 0.0131276 -3 -4 2 
8149 6 0.489593 0.661343 0.0757241 0 4 0 
5815 6 0.867346 0.68438 0.0600747 -1 5 -3 
8824 5 0.350697 0.712293 0.00993974 3 1 1 
8969 5 0.254494 0.706198 0.0126167 0 2 2 
5687 5 0.594634 0.72072 0.0262169 0 0 2 
6068 6 0.613629 0.695328 0.0444777 8 9 -1 
8124 6 0.037613 0.737235 0.0561645 0 2 4 
5541 6 0.326061 0.714663 0.0500731 -1 -2 0 
7762 6 0.366588 0.734769 0.0393333 3 3 0 
8197 6 0.959446 0.77743 0.0292074 2 3 0 
5506 6 0.131334 0.790641 0.0188751 5 0 0 
8310 6 0.243356 0.769937 0.0233906 2 3 2 
5824 6 0.49967 0.785833 0.0278427 2 4 4 
8130 5 0.603629 0.781059 0.0397172 2 -1 5 
5434 5 0.719396 0.781538 0.0124162 0 -4 -4 
6460 5 0.884418 0.822706 0.0259432 2 -7 1 
7935 6 0.0464606 0.835548 0.0282388 -3 -1 -6 
7544 6 0.810648 0.888631 0.00160162 0 4 -2 
7310 5 0.367278 0.842332 1.00004 3 0 3 
6746 5 0.40422 0.87306 0.00491126 -1 0 7 
8128 6 0.798212 0.877895 0.0461357 -2 5 3 
6500 5 0.980926 0.890501 0.0456322 2 0 -4 
7293 6 0.163567 0.926316 0.0587406 0 -1 4 
5725 6 0.910264 0.928404 0.0366949 4 1 -6 
5119 5 0.334278 0.976593 0.0357601 3 -1 1 
8518 5 0.588282 0.952291 0.0714528 -1 -1 2 
5393 6 0.755656 0.921597 0.00471024 5 1 -1 
6645 5 0.106 0.9446 0.0203746 7 2 0 
8034 6 0.0642013 0.978265 0.0568708 -3 0 -6 
8054 5 0.461241 0.973156 0.0312513 -1 -4 0 
7863 6 0.626929 0.00580297 0.0293442 1 3 -1 
8048 5 0.40354 0.00389547 0.0263922 2 5 1 
8314 6 0.539248 0.00786051 0.0144636 -3 3 0 
8664 6 0.200381 0.065374 0.121872 -1 -2 -3 
8945 5 0.46979 0.0663118 0.0473653 -3 -1 -6 
7530 5 0.524036 0.0771744 0.052594 -1 -1 4 
6713 6 0.765594 0.112053 0.0702824 2 -1 -2 
6779 6 0.329993 0.133673 0.0462956 -1 1 -1 
7231 5 0.530834 0.0796236 0.0455329 7 -1 -2 
8158 6 0.238261 0.108193 0.0216244 3 5 3 
6490 6 0.352041 0.145949 0.0468389 -1 3 -1 
8737 5 0.378543 0.1662 0.0917814 -5 4 -4 
6083 6 0.421545 0.180679 0.0985562 0 5 1 
8703 6 0.459133 0.132291 0.0958786 1 0 2 
8582 6 0.177706 0.185916 0.0705218 1 2 4 
5629 6 0.489809 0.175155 0.0652178 -2 2 -1 
6465 6 0.81365 0.189302 0.0318372 8 1 -2 
7180 5 0.278329 0.209849 0.0535456 2 -1 -2 
7539 6 0.262692 0.2526 0.0639782 -1 -2 5 
8567 5 0.974232 0.281882 0.0538809 1 2 -3 
6472 5 0.810368 0.266251 0.0534923 1 1 -2 
8675 6 0.262738 0.294782 0.0394829 1 0 6 
6616 5 0.491625 0.299935 0.0575379 -2 3 -2 
8688 6 0.662766 0.310292 0.0946465 -2 2 1 
7498 6 0.811572 0.288467 0.056999 0 -5 1 
5148 6 0.0367061 0.299832 0.0580484 -3 2 1 
5130 6 0.495718 0.271757 0.0534739 2 1 1 
8585 6 0.823266 0.312843 0.0397588 -3 4 1 
6858 5 0.310814 0.313311 0.02429 4 -1 2 
8330 6 0.155324 0.327909 0.0342832 -4 -7 0 
6982 5 0.947729 0.338238 0.0496244 2 2 6 
8213 6 0.307156 0.344181 0.0528587 -5 3 1 
8473 5 0.810997 0.404915 0.0193831 -2 -3 0 
6537 5 0.0510746 0.427488 0.0558261 4 6 -1 
8366 5 0.476965 0.458639 0.057974 -3 0 -1 
6141 6 0.889926 0.459908 0.0674961 0 1 -2 
5412 5 0.0586649 0.43244 0.0651875 1 -4 -1 
8573 6 0.137835 0.501833 0.0381044 -2 1 5 
7192 5 0.242371 0.492996 0.0511661 0 -3 -1 
7213 6 0.738605 0.486735 0.031809 0 -1 2 
5846 5 0.439085 0.451477 0.0437318 -3 -2 -1 
6950 6 0.900827 0.479555 0.0611448 -3 -1 3 
6117 5 0.799276 0.506367 0.0354324 -5 -1 -2 
7297 5 0.88593 0.5458 0.032986 4 1 0 
7315 6 0.402899 0.564111 0.0469151 -1 -1 1 
8839 6 0.517301 0.558268 0.0461082 -2 -3 0 
7311 6 0.314733 0.600583 0.0408535 -2 4 0 
8322 6 0.882454 0.587174 0.0671959 0 -2 1 
6671 6 0.96093 0.577969 0.0914749 3 -5 -2 
8525 5 0.811937 0.631444 0.0528395 2 1 -1 
8720 5 0.672098 0.582367 0.0719536 3 1 -3 
6964 6 0.126095 0.663107 0.0660576 5 0 1 
8239 6 0.982071 0.614361 0.0610743 1 -1 -3 
8528 5 0.0212991 0.683744 0.0299859 -3 4 -2 
6538 6 0.45901 0.637349 0.113634 4 2 -3 
7045 5 0.575988 0.639709 0.101249 -2 -1 3 
6099 6 0.00860918 0.683406 0.0427569 0 3 1 
5280 6 0.121706 0.675521 0.0576388 4 0 2 
6009 5 0.151495 0.735371 0.0186311 1 -1 -7 
6002 6 0.124952 0.762293 0.0570337 6 1 0 
6734 5 0.744793 0.732521 0.0576434 -1 -4 -1 
7668 5 0.193741 0.765529 0.0924422 1 2 -2 
8580 6 0.173361 0.77569 0.0767915 -6 -1 0 
7779 6 0.327284 0.775689 0.0776115 -3 0 -3 
7200 6 0.595669 0.763994 0.0719338 -3 3 1 
8331 5 0.907558 0.773619 0.0637566 -6 4 -1 
7040 6 0.280191 0.76605 0.0476981 3 -1 -2 
7848 6 0.628654 0.819265 0.0582263 2 3 -5 
5608 5 0.800604 0.795816 0.0348306 2 -7 -4 
6704 5 0.273782 0.879187 0.0661204 -1 -1 -1 
8026 6 0.709486 0.853209 0.0813298 5 -6 1 
6054 5 0.210097 0.836461 0.0415003 1 -2 -3 
8003 6 0.592264 0.815808 0.0484747 3 -1 0 
7331 6 0.851099 0.847755 0.0378537 2 -1 4 
5938 6 0.967084 0.833474 0.100455 3 0 1 
7414 5 0.31582 0.89371 0.0596916 0 -5 -2 
5082 6 0.506845 0.894061 0.0692595 -6 -1 3 
6941 5 0.670124 0.865978 0.0550507 2 4 1 
5883 6 0.841822 0.873743 0.0498953 1 -4 -11 
8599 5 0.872003 0.934623 0.0768578 0 -1 -1 
5905 5 0.0860263 0.927531 0.0326757 -5 0 -5 
8457 5 0.064295 0.911212 0.0770564 6 3 5 
6175 6 0.610093 0.928565 0.0354901 -4 -2 -4 
6571 6 0.647671 0.913568 0.0977447 4 0 0 
6312 5 0.827595 0.932563 0.0618917 -5 6 -1 
8707 5 0.198578 0.951561 0.0333259 1 -2 -2 
8735 5 0.192257 0.933951 0.0551991 -4 3 2 
6042 6 0.365941 0.941806 0.0797505 0 -2 -1 
6457 5 0.63261 0.947792 0.0408955 -1 -1 -2 
7486 6 0.903556 0.952364 0.05781 0 4 3 
5186 5 0.344224 0.986023 0.0709241 2 -3 -1 
5586 5 0.702991 0.946009 0.0459243 -3 -5 -1 
8268 6 0.217005 0.00886211 0.0656299 -2 4 3 
5943 5 0.401416 0.0306203 0.117819 1 -2 -4 
8543 6 0.712955 0.994399 0.084157 0 0 6 
6811 5 0.113021 0.0230616 0.0781365 -1 0 3 
8810 5 0.371856 0.0343164 0.101456 -2 3 1 
8708 5 0.608308 0.0166939 0.0611648 1 4 -5 
5311 6 0.94204 0.0261794 0.0998923 -2 -5 -2 
8062 6 0.13101 0.0315167 0.0918318 -2 2 2 
5963 6 0.898241 0.0409634 0.0811218 2 2 4 
5212 5 0.301608 0.058953 0.0641002 2 -1 -2 
6478 6 0.500323 0.0961795 0.06427 1 7 -1 
5077 6 0.63715 0.112292 0.0977059 -3 0 -5 
7550 5 0.718167 0.0617776 0.0520741 -1 0 2 
8789 6 0.953845 0.0944514 0.0350441 -3 2 -5 
7101 5 0.0747258 0.107883 0.119335 -1 4 3 
6780 5 0.651254 0.121582 0.0507358 2 -1 3 
6203 5 0.556044 0.170646 0.102577 1 -1 1 
6227 5 0.933437 0.168947 0.121987 2 -3 2 
5400 6 0.251666 0.196382 0.0839329 -4 0 -5 
5340 5 0.513885 0.22601 0.0696468 1 4 -3 
7567 5 0.800746 0.250035 0.121513 1 2 2 
7956 5 0.214444 0.248968 0.112894 1 0 -3 
6859 6 0.765126 0.231283 0.0537203 -2 -7 2 
7326 5 0.975203 0.255432 0.089592 -2 1 -2 
5147 5 0.106183 0.260994 0.0606312 -3 -2 4 
5141 5 0.220846 0.298853 0.0943088 -4 4 0 
8564 5 0.799395 0.321299 0.0915019 -6 7 2 
8232 5 0.260228 0.370158 0.0678089 -3 2 -1 
6590 5 0.307326 0.368927 0.0846099 4 2 -1 
6418 6 0.796609 0.370436 0.0775277 1 2 -3 
8370 6 0.0861862 0.383696 0.0625296 -2 0 1 
8356 6 0.40975 0.355622 0.0942814 0 5 1 
8263 6 0.490268 0.414199 0.0588898 1 6 -1 
5955 6 0.608476 0.342585 0.110534 -2 -1 1 
8998 6 0.573753 0.375934 0.0517304 2 -4 -1 
7257 6 0.80878 0.374429 0.0960324 0 0 -1 
6028 6 0.16404 0.422799 0.0802379 6 4 0 
7254 6 0.335026 0.400765 0.103574 -4 2 0 
6163 6 0.472163 0.455435 0.0624552 7 -3 -2 
6236 6 0.196216 0.412652 0.0604733 3 -5 6 
6565 5 0.615005 0.439292 0.11222 -3 4 -1 
7875 6 0.214171 0.470378 0.0470686 0 2 -1 
8907 6 0.584638 0.459272 0.0575455 -1 -2 4 
5542 5 0.958079 0.455669 0.0960273 -4 4 1 
8255 5 0.969708 0.478264 0.13212 -3 1 -3 
6802 6 0.384959 0.45769 0.0927409 -3 0 -3 
5513 6 0.358567 0.495631 0.0570954 2 -3 -2 
7103 6 0.470216 0.555026 0.0562 -7 0 3 
6925 6 0.91487 0.576404 0.0962486 2 1 0 
5827 5 0.1463 0.612929 0.0699286 5 4 0 
5809 6 0.165321 0.61356 0.0613221 3 2 1 
6318 6 0.189773 0.640125 0.0790021 0 2 -2 
6394 6 0.689919 0.675758 0.084704 -1 -1 5 
6772 6 0.752696 0.649821 0.0742852 3 -4 -1 
8886 5 0.927487 0.607667 0.0762201 1 0 1 
8874 5 0.930874 0.606937 0.0395941 -2 -2 -6 
6016 5 0.0895382 0.673845 0.0657708 -3 1 -1 
6604 5 0.121638 0.691767 0.0802047 2 2 0 
5620 6 0.434443 0.665405 0.0731289 1 -1 2 
5219 6 0.520213 0.691505 0.0681403 0 0 3 
5660 6 0.701945 0.724471 0.0432726 -1 3 5 
5920 5 0.688369 0.761437 0.0502464 -2 0 4 
7124 5 0.0379261 0.746283 0.0852551 5 -4 0 
7206 6 0.140834 0.789556 0.0627051 0 3 -1 
5858 5 0.129528 0.753945 0.108407 -1 -1 2 
6235 5 0.57913 0.755278 0.0790574 3 -1 -5 
5902 6 0.781812 0.751799 0.0763719 -1 -1 4 
5143 6 0.8382 0.757937 0.104435 -2 -3 -4 
5101 6 0.654085 0.751101 0.0837704 1 1 -1 
6741 5 0.783202 0.776865 0.0782658 -2 -3 4 
6961 6 0.326138 0.805149 0.0947152 1 0 -5 
8938 6 0.831546 0.816475 0.0694766 -1 4 2 
6167 5 0.185887 0.828071 0.107828 -4 1 -3 
6333 5 0.354618 0.848978 0.0666559 1 0 1 
6957 6 0.602032 0.810817 0.0852592 -1 -2 -1 
8363 5 0.735956 0.845803 0.0841383 -1 0 0 
7234 5 0.0174852 0.871531 0.0790047 2 -3 -4 
5604 5 0.0980093 0.891559 0.0567498 0 2 -2 
8050 5 0.300143 0.87052 0.0587075 1 4 -1 
6520 5 0.316093 0.870112 0.0830935 -2 -4 1 
7305 5 0.449907 0.892461 0.0809831 7 5 3 
6542 6 0.831619 0.95471 0.0634399 -3 1 0 
8668 6 0.00928704 0.978263 0.0777136 -1 1 -2 
8165 5 0.52481 0.929994 0.0855663 1 -1 -1 
5885 6 0.222116 0.951217 0.0883581 1 0 2 
7883 5 0.244624 0.969671 0.0404181 -1 0 2 
5936 5 0.634614 0.997494 0.0526382 -3 -5 2 
5194 6 0.0166242 0.0102977 0.0924921 -2 0 3 
8940 5 0.779485 0.955338 0.0761706 3 2 3 
6627 5 0.807155 0.972184 0.0741247 -7 -4 1 
7116 5 0.147305 0.0127965 0.0769783 -1 -2 1 
6507 6 0.638711 0.0558625 0.132758 0 2 5 
6412 5 0.0815332 0.0411837 0.12561 -3 4 2 
5103 5 0.248864 0.0288126 0.115273 -6 5 1 
5052 6 0.848026 0.0691762 0.0642202 -6 1 0 
6838 6 0.298927 0.067592 0.0902135 -5 3 2 
6034 5 0.994587 0.104565 0.133393 3 6 4 
6727 5 0.897711 0.101906 0.125199 0 2 1 
6153 5 0.892878 0.104514 0.0791523 -2 2 -2 
8230 5 0.270531 0.121057 0.1208 4 1 -4 
6516 5 0.670721 0.14758 0.161525 -1 1 1 
7426 6 0.829995 0.140307 0.0844381 3 -1 -2 
8467 5 0.458373 0.170092 0.117661 3 -3 2 
5108 6 0.534996 0.14988 0.110231 -3 4 -1 
8661 5 0.241101 0.183491 0.0928398 1 0 1 
5540 5 0.739689 0.196635 0.126016 -4 0 0 
5146 5 0.00702037 0.186844 0.120047 2 2 0 
6017 6 0.0258639 0.217321 0.0551502 -2 0 -2 
8139 5 0.615798 0.17577 0.0920267 1 0 0 
5055 6 0.0488556 0.237157 0.111815 1 -4 4 
7061 5 0.82628 0.225181 0.0899026 3 -4 0 
6082 6 0.441776 0.278385 0.100609 2 2 0 
5430 5 0.815454 0.249442 0.0899178 -1 0 1 
8086 6 0.0680149 0.294026 0.102037 2 -2 3 
6364 6 0.322916 0.299037 0.0653028 3 -2 3 
7207 6 0.799563 0.25399 0.0873086 -1 0 -3 
8538 5 0.815985 0.281794 0.127005 0 1 1 
8066 6 0.34226 0.292374 0.0852725 0 -2 -1 
8699 6 0.345143 0.344203 0.118639 -4 1 -2 
6893 5 0.610756 0.334111 0.0906494 3 -2 0 
7381 5 0.749133 0.323251 0.134833 -2 3 3 
6631 5 0.938774 0.284654 0.107816 -2 0 2 
6607 5 0.0119405 0.296641 0.124243 0 4 -3 
6887 6 0.590924 0.298954 0.133092 -5 1 1 
5721 5 0.0727674 0.338654 0.0834533 1 -1 -1 
6080 6 0.358252 0.31094 0.0830553 3 -2 0 
6601 5 0.74501 0.368972 0.0721498 6 0 0 
6390 6 0.86386 0.329545 0.0519606 -1 2 1 
6425 6 0.0962454 0.383632 0.105214 3 0 -2 
6816 6 0.607148 0.381305 0.0962125 1 -4 1 
7812 5 0.134857 0.428907 0.107518 3 1 4 
5175 6 0.140478 0.410015 0.106103 -5 1 -4 
6155 5 0.33759 0.478769 0.120847 1 7 -7 
6247 6 0.687032 0.46381 0.111706 0 2 -3 
6188 6 0.239761 0.449845 0.0826686 5 -1 3 
6640 5 0.476581 0.470091 0.110018 2 0 -6 
7966 6 0.825573 0.489903 0.0930916 -1 3 2 
7820 6 0.905234 0.483858 0.0927652 -5 3 3 
5693 6 0.191285 0.493452 0.107219 5 -3 -2 
7252 6 0.465108 0.48202 0.0675179 3 -1 1 
6588 5 0.596917 0.483078 0.108264 -1 -6 -1 
8529 5 0.678388 0.501377 0.116968 0 3 1 
6477 5 0.519893 0.505857 0.115097 3 4 -4 
6397 6 0.570932 0.501484 0.0974532 1 -1 -3 
7721 5 0.65802 0.51034 0.111051 -1 4 0 
7319 5 0.204544 0.565463 0.0940761 -2 1 -1 
5605 6 0.263473 0.577111 0.111846 -1 -3 6 
6278 6 0.480916 0.526669 0.104961 1 3 -1 
6935 5 0.0412351 0.600582 0.124603 3 -1 0 
5769 5 0.108917 0.576431 0.102566 -4 -2 -1 
8828 6 0.0108199 0.603379 0.108751 5 2 -3 
6208 5 0.193071 0.628937 0.0971358 4 1 1 
5502 5 0.665257 0.637996 0.128144 0 -3 -2 
6401 5 0.355188 0.621542 0.113931 3 -1 4 
8794 5 0.0975811 0.679611 0.107115 4 -1 -1 
7366 6 0.162261 0.706613 0.0946353 2 -2 1 
7974 6 0.691555 0.660864 0.101907 2 -2 -3 
7154 5 0.209427 0.719631 0.110997 2 -4 -3 
6424 5 0.47598 0.713686 0.094283 -1 -1 -2 
7979 5 0.438252 0.738659 0.105226 1 -1 1 
8237 6 0.173552 0.75728 0.149249 3 1 0 
6109 6 0.495025 0.776667 0.0672028 0 3 4 
7634 6 0.766353 0.752792 0.102306 -3 -1 1 
5754 5 0.973058 0.792018 0.0978724 5 1 -2 
5287 5 0.120986 0.835868 0.0529674 -6 2 -1 
5274 5 0.460447 0.830839 0.0821381 5 -5 3 
6724 5 0.836894 0.808193 0.14087 -3 -2 -3 
8135 5 0.319763 0.842916 0.092974 2 -3 -1 
5740 5 0.728697 0.866743 0.0827871 3 0 2 
7210 6 0.0866286 0.85445 0.0963824 -1 -4 3 
7330 5 0.20046 0.90046 0.109208 3 -1 2 
7999 5 0.735783 0.877118 0.0921013 -3 -1 3 
5597 6 0.935103 0.878522 0.0857411 0 1 2 
5204 6 0.173213 0.928742 0.0973604 -1 -3 5 
5397 5 0.0816447 0.895408 0.112956 -2 2 1 
7578 6 0.910384 0.93851 0.109438 2 -1 5 
7736 5 0.167042 0.927712 0.07265 5 0 1 
6603 5 0.00473424 0.960621 0.0702432 0 1 1 
6444 5 0.166152 0.0219945 0.0857559 5 -3 -1 
5282 5 0.594997 0.0153319 0.0736786 -1 3 -1 
5215 5 0.0576244 1.00093 0.124338 0 0 -2 
6584 6 0.329442 0.0396597 0.14042 6 1 2 
5228 5 0.41131 0.012118 0.128197 5 2 3 
6593 5 0.317003 0.0853202 0.10702 -5 1 1 
8404 5 0.543167 0.0857672 0.144083 5 -1 1 
5890 5 0.351289 0.0566389 0.112716 -1 0 -2 
8511 6 0.705836 0.0724434 0.128932 -3 1 1 
6330 5 0.178359 0.111309 0.118569 5 0 -4 
8923 5 0.277016 0.0674831 0.129653 0 -1 -6 
8233 6 0.381671 0.089178 0.106353 8 6 0 
8516 5 0.513299 0.115482 0.0631146 0 -1 2 
7324 6 0.127213 0.158163 0.164957 2 5 3 
8332 6 0.183763 0.135365 0.165248 4 -2 2 
7202 5 0.749082 0.138276 0.173954 0 4 -2 
7918 5 0.540636 0.167781 0.118202 4 -7 -5 
5780 6 0.94753 0.163596 0.14776 -4 1 1 
8362 5 0.98948 0.149377 0.145008 1 3 2 
7461 6 0.0290509 0.187455 0.109646 1 7 0 
7905 5 0.869555 0.199313 0.15953 3 -4 0 
8259 6 0.225506 0.181554 0.143067 -3 1 2 
6814 6 0.509812 0.181253 0.106431 -3 -7 -1 
7913 6 0.720604 0.233709 0.155765 0 2 2 
8889 5 0.778987 0.192932 0.139589 -2 -5 -5 
6662 5 0.683924 0.258597 0.11784 -3 0 0 
5689 5 0.64818 0.265038 0.124166 0 -2 0 
5713 5 0.109212 0.221887 0.0901881 1 -2 -1 
8702 5 0.0827162 0.299349 0.136156 0 -1 6 
6836 5 0.190708 0.338213 0.113444 -3 0 3 
8676 6 0.318937 0.257222 0.155187 0 3 -3 
5102 6 0.580111 0.307499 0.107325 -1 1 -1 
7387 5 0.135356 0.430461 0.120369 3 2 6 
6860 5 0.566349 0.40582 0.120357 1 1 0 
7723 6 0.908105 0.41505 0.140437 -3 0 -4 
6011 6 0.163857 0.417334 0.0940797 3 3 -1 
7622 6 0.859138 0.374041 0.125002 -2 -1 -3 
5750 5 0.0458536 0.502164 0.148722 -3 -5 -2 
8186 6 0.315135 0.446919 0.129549 4 -3 4 
7135 6 0.366873 0.456222 0.105271 1 2 1 
5382 6 0.543029 0.449956 0.193981 1 2 0 
7810 6 0.496542 0.448205 0.116405 2 1 -3 
5030 6 0.219344 0.466928 0.116044 -2 -4 -2 
5511 6 0.646865 0.491444 0.15105 -3 1 -1 
6237 5 0.0230771 0.524002 0.13263 2 -2 1 
8227 5 0.388019 0.563985 0.121499 0 -3 4 
5413 6 0.821686 0.542152 0.110846 0 1 -3 
5913 5 0.466054 0.563718 0.158503 4 2 4 
8228 6 0.734706 0.537722 0.116519 0 6 -1 
7435 6 0.160794 0.599318 0.175401 1 1 5 
8203 5 0.087264 0.613457 0.104428 -2 2 1 
6999 6 0.479902 0.581101 0.101103 -2 -4 2 
7901 5 0.894113 0.627482 0.112444 3 2 -2 
6370 5 0.883142 0.586646 0.0918749 -2 -2 -1 
5584 6 0.042256 0.613914 0.126225 3 -2 1 
8225 5 0.261325 0.614947 0.149088 -3 -4 1 
6626 5 0.481184 0.619934 0.115935 2 -2 -3 
5473 6 0.136314 0.649307 0.138441 -1 -2 7 
5877 5 0.293613 0.649994 0.106043 2 3 4 
7298 5 0.357687 0.658788 0.0848265 -2 -4 0 
6839 6 0.618098 0.629813 0.124097 5 -6 -7 
6169 6 0.474606 0.623369 0.0705736 -1 1 0 
5336 6 0.00143983 0.704431 0.121628 -2 -2 0 
7067 5 0.468594 0.645637 0.12554 3 2 5 
7669 6 0.286242 0.721488 0.11776 -4 -4 1 
8302 5 0.532563 0.76725 0.151187 -1 2 4 
8539 5 0.309361 0.788511 0.143738 3 3 3 
7270 5 0.911213 0.747181 0.104282 2 3 0 
8160 5 0.00448962 0.783618 0.108772 1 1 -2 
8878 6 0.393479 0.800031 0.0980855 1 2 -1 
7663 5 0.478467 0.805886 0.124153 0 4 1 
7716 6 0.550226 0.858115 0.118708 1 -3 0 
6678 6 0.882883 0.791074 0.113958 5 -5 -1 
5438 5 0.982429 0.79346 0.107523 1 0 -1 
5453 6 0.0114493 0.836617 0.165651 2 -2 6 
8979 5 0.444952 0.87723 0.135771 -1 1 -3 
7656 5 0.602573 0.852495 0.116834 -2 2 5 
7283 6 0.992642 0.908458 0.127763 5 -5 -1 
8261 6 0.964677 0.930082 0.149022 1 -1 4 
6479 6 0.983491 0.927963 0.114608 -3 1 0 
6641 6 0.579441 0.947704 0.12762 -4 -2 -1 
7978 5 0.357652 0.00724969 0.122729 4 0 1 
5932 5 0.463642 0.0355626 0.178263 2 -2 2 
7481 6 0.400714 0.0244996 0.164436 1 3 1 
5089 6 0.755854 0.0383346 0.16352 0 0 -1 
8427 6 0.538955 0.0812985 0.139201 -4 -5 1 
5810 5 0.660759 0.0923767 0.15809 2 0 -2 
7065 6 0.144455 0.10653 0.134594 1 -5 6 
6685 6 0.572654 0.0759268 0.151867 -1 4 4 
7647 6 0.118627 0.137489 0.163954 0 -2 1 
8843 6 0.274306 0.112146 0.198588 1 -1 -8 
8178 6 0.927836 0.115824 0.14323 2 -4 6 
8038 6 0.949218 0.163858 0.162932 3 0 -1 
6481 6 0.0830977 0.158257 0.127991 1 4 0 
8416 5 0.361586 0.136334 0.153271 0 3 1 
5871 5 0.564821 0.167162 0.166761 3 2 -2 
8249 6 0.937724 0.211287 0.15585 -1 -1 -3 
7411 6 0.195955 0.212047 0.133592 -1 2 3 
7591 5 0.723117 0.197124 0.149998 -2 -1 4 
8142 6 0.284771 0.210418 0.172095 -4 -2 0 
6738 6 0.373735 0.230368 0.140955 -3 6 0 
8380 6 0.386264 0.216051 0.174099 0 0 -1 
5998 5 0.536218 0.214273 0.190754 -3 0 3 
6161 5 0.838759 0.250358 0.127396 -3 1 -2 
7290 5 0.951545 0.18907 0.180855 -1 -1 -5 
8479 6 0.215495 0.234142 0.133958 3 -3 -6 
5244 6 0.374732 0.213917 0.140845 1 4 -2 
7172 6 0.0751433 0.224214 0.130415 1 -1 1 
5829 6 0.297274 0.28938 0.119339 3 2 0 
6076 5 0.605554 0.273428 0.197324 0 4 3 
7524 6 0.66114 0.283189 0.146458 3 2 -3 
7355 5 0.812549 0.267847 0.100872 -3 -2 -3 
7496 6 0.213352 0.260914 0.126881 -5 1 -1 
8718 6 0.377088 0.286945 0.115989 1 -2 -1 
7401 6 0.605193 0.300376 0.134769 -2 -2 2 
5618 6 0.778171 0.287989 0.151082 -4 2 0 
5165 5 0.0441871 0.301033 0.168703 2 2 -4 
6541 6 0.864888 0.34675 0.129188 1 2 2 
5314 6 0.311908 0.370376 0.136426 3 0 0 
5154 5 0.492968 0.393779 0.137922 2 -1 0 
8586 6 0.647191 0.351418 0.154355 -3 4 -5 
5626 6 0.938913 0.366181 0.119765 -4 -2 0 
6523 5 0.104386 0.354008 0.151782 2 0 2 
8844 6 0.848714 0.404968 0.133871 3 1 5 
8989 5 0.098037 0.404389 0.135367 -1 0 0 
8492 5 0.46504 0.379029 0.111664 -1 1 1 
8713 6 0.380626 0.384078 0.137707 4 -3 -3 
5380 5 0.682691 0.376315 0.154229 1 0 2 
7483 6 0.522797 0.438297 0.10229 6 -3 3 
8011 6 0.875197 0.471944 0.133451 3 4 2 
5671 6 0.373146 0.454878 0.165077 0 2 2 
7696 6 0.831959 0.473352 0.120408 -1 -2 2 
5399 6 0.96211 0.471142 0.15359 2 -2 1 
7090 6 0.679068 0.492746 0.143705 2 4 -5 
7529 5 0.136487 0.562902 0.165331 3 -4 -2 
8157 6 0.558305 0.526662 0.10501 0 0 -2 
7617 6 0.387849 0.567515 0.154126 -4 -2 -2 
7856 5 0.640607 0.529893 0.143472 0 1 1 
6114 6 0.743902 0.515378 0.149176 1 -3 -1 
7245 6 0.967659 0.540621 0.142375 -3 -3 1 
5870 5 0.560894 0.590391 0.143132 -1 0 4 
5765 6 0.660152 0.598886 0.134623 0 -4 0 
5193 6 0.0292251 0.647359 0.135548 3 -3 2 
8506 6 0.607806 0.591263 0.181966 -4 -7 -5 
6272 6 0.608369 0.608709 0.147888 -1 -4 4 
8033 5 0.973683 0.637325 0.16169 -2 -5 1 
7867 5 0.757204 0.684801 0.162474 1 -4 -1 
8036 5 0.967343 0.65908 0.144291 2 -2 3 
6259 5 0.5158 0.715306 0.1783 0 -3 1 
6462 6 0.553045 0.740788 0.112749 0 -1 -2 
7934 5 0.667797 0.746228 0.156251 5 -10 4 
8956 5 0.817862 0.736763 0.151374 -1 -4 -1 
8194 5 0.113941 0.734472 0.106149 1 1 4 
5068 6 0.247115 0.757039 0.146579 2 2 0 
8401 6 0.665121 0.744557 0.125224 2 -1 2 
6914 5 0.895495 0.773749 0.163401 1 -4 -3 
8602 5 0.8468 0.770155 0.162132 -2 1 -2 
6939 6 0.0745062 0.7942 0.140634 -5 -3 2 
8563 6 0.156764 0.809068 0.148397 -1 1 -1 
6849 6 0.272018 0.817925 0.168099 4 3 -2 
6322 6 0.525671 0.796632 0.140664 0 0 7 
7012 6 0.618138 0.778653 0.142986 -1 -2 0 
8386 5 0.931551 0.80518 0.153361 0 -2 1 
6431 6 0.619892 0.8427 0.153984 -2 1 3 
5372 6 0.797544 0.817779 0.160955 -6 0 1 
7016 5 0.716764 0.850363 0.157466 -2 1 0 
8906 6 0.220868 0.930383 0.114607 -2 -1 -1 
5203 5 0.876816 0.878184 0.142159 0 2 3 
6824 5 0.289792 0.919173 0.171636 2 1 3 
5904 5 0.3864 0.902437 0.143606 -1 -1 4 
6421 5 0.772508 0.954703 0.164861 -2 -1 2 
5987 6 0.901998 0.869788 0.179356 3 4 2 
8872 5 0.220372 0.893556 0.169758 -2 -3 4 
8501 5 0.924298 0.958751 0.1781 0 3 -1 
5637 6 0.254717 0.979512 0.127732 -2 2 1 
6404 5 0.572714 0.957941 0.126733 4 1 2 
8006 6 0.651417 0.958868 0.185972 3 -1 -7 
5771 5 0.726282 0.953448 0.174498 0 2 5 
6063 6 0.843484 0.958719 0.150222 -2 2 -3 
5131 6 0.459881 0.0410753 0.163119 2 5 -5 
7143 6 0.710011 0.0187943 0.176759 -4 -2 2 
5106 6 0.821673 0.00958109 0.170669 -2 -1 -9 
6897 5 0.392591 0.0164731 0.178419 -4 4 2 
8035 6 0.372447 0.0547827 0.154948 -5 -1 1 
8588 5 0.466132 0.0785477 0.168015 2 -6 0 
5290 5 0.117285 0.0752787 0.195243 7 -1 -4 
6991 6 0.849206 0.114414 0.17957 -8 2 1 
7759 6 0.0375202 0.143198 0.16098 -1 -6 -5 
6693 5 0.467134 0.132099 0.190224 -2 1 1 
8556 6 0.783306 0.14279 0.170853 4 1 -1 
5682 5 0.808138 0.111647 0.226383 2 2 -2 
7348 5 0.011034 0.136876 0.184098 2 -2 2 
7222 5 0.532682 0.117938 0.210715 3 -3 -2 
5912 5 0.835831 0.155575 0.176279 5 -3 -2 
8655 6 0.280724 0.188257 0.127469 0 2 0 
8137 5 0.375296 0.205804 0.17756 -6 1 -1 
5462 5 0.759229 0.168807 0.147871 5 2 -3 
8378 6 0.769366 0.213853 0.196229 2 4 -3 
7681 5 0.744455 0.25783 0.180235 0 0 1 
5933 6 0.09529 0.280861 0.126389 -4 3 -1 
5865 6 0.182557 0.239825 0.216588 0 0 1 
5977 5 0.545978 0.333373 0.163866 -2 3 -4 
5560 6 0.576529 0.287685 0.145273 1 4 1 
6513 6 0.573903 0.291678 0.183383 -3 -1 -3 
8067 6 0.580953 0.278219 0.172414 1 0 -5 
5681 5 0.30328 0.329829 0.154248 0 3 2 
8568 5 0.840918 0.286699 0.134903 2 1 -1 
7885 6 0.604524 0.361916 0.166022 -6 -1 -1 
8043 6 0.690984 0.305878 0.151931 0 2 0 
7858 5 0.685565 0.327171 0.175733 -6 -3 -1 
6276 6 0.510597 0.418765 0.148716 -4 1 -3 
8856 6 0.107187 0.465304 0.221496 0 1 1 
8474 5 0.476726 0.430187 0.184562 0 6 0 
7196 5 0.524501 0.430213 0.166534 1 0 2 
8316 6 0.0503657 0.480887 0.16015 -6 -1 -3 
8141 5 0.558557 0.464183 0.153011 0 3 -2 
8192 5 0.856449 0.451997 0.174081 2 0 1 
7582 6 0.386948 0.495583 0.184534 3 3 1 
5591 5 0.658025 0.486995 0.161159 2 1 3 
6954 5 0.55946 0.504805 0.205549 2 -2 -2 
8277 6 0.712871 0.506855 0.163313 -2 3 -1 
5278 6 0.788368 0.551424 0.182676 -1 2 -4 
5561 5 0.118113 0.5751 0.183308 1 0 1 
8584 5 0.466647 0.59917 0.166592 -1 5 -1 
6026 5 0.475194 0.596832 0.170788 2 -5 -4 
6528 6 0.161785 0.613589 0.202165 1 0 -2 
8915 5 0.561631 0.607049 0.200666 3 -4 0 
5996 5 0.898483 0.644054 0.167092 0 -5 1 
8431 6 0.525937 0.657856 0.172675 -4 -2 1 
8057 6 0.647348 0.68143 0.181373 2 0 -2 
5126 5 0.385583 0.674531 0.190145 2 6 3 
8321 5 0.634541 0.742539 0.162204 -4 -1 1 
7982 5 0.501651 0.754088 0.148769 3 1 -2 
5353 6 0.716846 0.760403 0.174011 -1 -6 5 
7620 6 0.791804 0.77011 0.166196 -3 -2 2 
8861 6 0.263145 0.755887 0.144186 -2 -1 1 
5273 6 0.26706 0.799627 0.147206 3 4 -1 
8193 6 0.245991 0.804184 0.193887 2 -1 2 
7940 6 0.372879 0.781769 0.149721 1 -5 -1 
7465 5 0.537412 0.810762 0.168228 2 -2 -5 
8963 6 0.133512 0.803147 0.182613 7 3 -1 
6014 6 0.605795 0.824717 0.133743 -3 0 3 
7676 6 0.660294 0.811954 0.182483 0 -1 -3 
6000 6 0.70655 0.874695 0.175322 0 -2 -3 
7408 5 0.252502 0.911516 0.149676 -4 -1 -3 
8968 6 0.418185 0.89669 0.19162 3 -4 7 
8022 6 0.852812 0.878481 0.16138 1 -3 2 
8930 6 0.905786 0.900134 0.19981 -1 3 -2 
5767 5 0.398141 0.902874 0.167238 0 4 -2 
8858 6 0.526387 0.922087 0.223447 -1 -4 7 
8760 5 0.310299 0.918636 0.16328 4 1 -1 
7516 5 0.573987 0.945021 0.183136 5 2 -4 
5801 5 0.81842 0.938871 0.170836 0 1 -2 
8919 6 0.242961 0.967784 0.143982 0 -1 5 
7963 6 0.821162 0.982822 0.159942 3 -1 1 
6166 6 0.449913 0.98689 0.141636 -3 2 0 
5611 6 0.684278 0.0121383 0.150732 -1 -1 1 
6197 5 0.890663 0.0287022 0.17279 6 -1 1 
5230 6 0.186508 0.992002 0.200523 3 -2 1 
7152 6 0.841268 0.988828 0.201605 -1 -1 3 
8854 5 0.0977525 0.0903522 0.201495 0 -2 -4 