ITEM: TIMESTEP
20000000
ITEM: NUMBER OF ATOMS
9000
ITEM: BOX BOUNDS pp pp pp
-75 75
-75 75
-75 75
ITEM: ATOMS id type xs ys zs ix iy iz 
8318 5 0.0504331 0.975968 0.0169473 -2 -1 -5 
5292 5 0.127412 0.957003 0.050971 2 -4 -3 
5066 5 0.0929231 0.996892 0.0120029 -2 0 4 
7734 5 0.802542 0.069675 0.014212 -3 -3 2 
7603 6 0.250285 0.0829901 0.984874 0 1 -5 
7537 5 0.362141 0.117511 0.97814 -5 1 -1 
6869 5 0.344194 0.125936 0.0350996 1 -2 -3 
6660 6 0.569355 0.112912 0.0198921 2 -1 1 
6859 5 0.807032 0.145393 0.0143696 -1 4 -3 
7005 6 0.567694 0.121362 0.0118936 -3 1 -3 
8191 5 0.763194 0.208074 0.0221154 -3 -1 4 
7978 6 0.126317 0.222724 0.0151648 5 1 0 
5565 5 0.347431 0.265287 0.968871 -4 7 2 
5438 5 0.378469 0.290891 0.00304135 1 1 -3 
6286 6 0.510198 0.282422 0.0118762 2 3 -1 
5197 6 0.510869 0.305218 0.0540598 3 2 -1 
5557 5 0.417878 0.320494 0.025103 1 -1 2 
7702 5 0.732053 0.346099 0.990852 -1 -3 -3 
5883 6 0.0211286 0.321313 0.0486829 4 4 -1 
8787 6 0.817104 0.341195 0.0245133 3 3 4 
6167 6 0.50978 0.358294 0.0377394 1 0 3 
8741 6 0.563285 0.363202 0.00600123 2 2 3 
7287 6 0.600625 0.435878 0.990211 -3 0 0 
8663 5 0.0128893 0.445718 0.0129289 -3 -6 2 
7870 5 0.416918 0.465065 0.981542 6 0 -3 
8669 6 0.681727 0.454807 0.0443736 -2 3 2 
6940 6 0.889173 0.413927 0.978139 0 0 -2 
7445 5 0.0408131 0.444905 0.977808 5 1 1 
7534 5 0.443325 0.486426 0.00189614 0 -1 3 
8382 5 0.473521 0.428919 0.97159 -7 1 0 
7893 6 0.668219 0.452346 0.05469 1 -3 0 
7151 6 0.818533 0.46697 0.0168603 0 1 6 
5967 6 0.957212 0.465234 0.0518411 2 -2 -3 
8125 5 0.578834 0.525784 0.982095 -3 1 1 
7146 5 0.857635 0.477903 0.0139731 -3 3 -1 
8708 6 0.179466 0.495633 0.0107781 -1 4 1 
5256 6 0.75546 0.491082 0.00643541 0 4 4 
8911 5 0.193991 0.558787 0.0420915 0 -2 1 
6186 6 0.368954 0.541651 0.0625016 0 0 1 
8533 6 0.162472 0.563193 0.03885 4 -1 3 
5058 6 0.270808 0.598087 0.0370981 1 -1 2 
7011 5 0.0963555 0.573152 0.0253234 3 0 -1 
5435 6 0.120782 0.596347 0.995669 3 2 -1 
8605 6 0.81762 0.62217 0.0259852 1 -4 -1 
5287 6 0.366894 0.634906 0.0521757 -4 1 1 
6654 5 0.533844 0.625034 0.00943517 -1 -1 2 
7494 5 0.591064 0.624137 0.00803472 -6 2 -3 
6640 6 0.280108 0.613196 0.990994 -2 2 -1 
5669 6 0.662598 0.65438 0.00528242 -4 -4 -1 
6675 6 0.796601 0.653777 0.968306 -3 3 1 
5202 5 0.844682 0.655413 0.99294 0 1 3 
5420 5 0.170782 0.649844 0.0356787 -1 4 1 
7026 6 0.240823 0.705503 0.97525 2 -1 -4 
6507 5 0.435518 0.738594 0.0182023 2 2 1 
6506 5 0.205269 0.665833 0.00696586 4 0 -2 
6211 6 0.222431 0.699259 0.0486487 -1 5 -1 
7833 6 0.287247 0.730123 0.047788 -1 1 5 
7996 5 0.363162 0.714871 0.0136254 4 2 2 
5587 6 0.916998 0.697451 0.0112781 -2 -2 -1 
6053 6 0.17052 0.775812 0.0236332 2 1 3 
8412 6 0.705928 0.745087 0.978438 1 -2 -2 
5821 6 0.874255 0.769571 0.986345 3 -4 2 
7760 5 0.960741 0.782095 0.0135078 -3 2 0 
8466 6 0.415801 0.802409 0.987463 -2 -4 0 
7416 6 0.0983444 0.823289 0.0191244 3 2 4 
5968 5 0.172062 0.854881 0.00199347 -2 -3 -2 
5320 6 0.39202 0.81491 0.0187953 0 -1 2 
5994 5 0.839858 0.851695 0.984566 -3 0 0 
6532 6 0.406945 0.851113 0.97172 -5 -3 5 
6436 6 0.107054 0.888384 0.0102259 1 -3 3 
8063 6 0.166601 0.850753 0.0559663 3 2 -2 
5458 5 0.247545 0.879401 0.0510164 2 0 4 
6033 5 0.999369 0.911187 0.0599997 4 -2 5 
5846 6 0.0249303 0.884253 0.0110242 0 1 3 
6674 6 0.284629 0.937033 0.0128682 -3 1 -3 
7685 5 0.687407 0.91449 0.00662428 7 2 0 
8948 5 0.083987 0.938639 0.0252843 4 2 -1 
6637 5 0.363887 0.931381 0.0218148 -1 -2 -2 
8698 6 0.511825 0.968161 0.0274088 -3 1 -4 
6978 6 0.680628 0.899472 0.958341 1 0 -5 
5736 5 0.852261 0.946231 0.987374 -2 -4 1 
6115 5 -0.00126717 0.945042 0.0241311 -3 -3 -3 
7257 6 0.593021 0.00132476 0.0162797 0 -4 -1 
6641 5 0.241119 0.022529 0.0265175 2 -3 2 
5311 5 0.35592 0.0442005 0.0651643 2 0 -2 
7630 6 0.473644 0.995808 0.0304229 1 -2 -2 
5550 6 0.563077 0.0470468 0.0233308 4 -2 -2 
7814 5 0.450089 0.120359 0.0524687 -2 -4 -1 
6924 5 0.507859 0.0654038 0.0305849 -3 -4 0 
5996 5 0.995473 0.150136 0.0482122 -3 -3 -3 
5183 6 0.0470565 0.159235 0.0542874 2 1 0 
7185 6 0.240729 0.17101 0.058041 -5 4 1 
7297 6 0.465637 0.153803 0.0605966 -4 3 1 
8056 5 0.798876 0.140433 0.0259503 -3 3 -1 
7755 6 0.768616 0.201696 0.986354 3 2 2 
7963 5 0.329582 0.295477 0.0420824 -2 -2 -1 
6223 5 0.5037 0.207484 0.00393179 -5 2 -1 
6835 5 0.530105 0.264633 0.0156112 -2 2 3 
8070 5 0.568322 0.255391 0.037277 -2 4 3 
6005 5 0.623416 0.25014 0.0383726 0 -1 1 
6692 6 0.984861 0.247527 0.0720182 -2 -2 -6 
6065 6 0.33155 0.317151 0.0128857 4 0 1 
5551 6 0.523049 0.282586 0.0287884 -3 2 -1 
8016 6 0.675119 0.269285 0.0462065 3 -2 6 
8746 5 0.936128 0.31635 0.997386 0 -1 1 
5073 6 0.224334 0.317043 0.0192077 -6 1 1 
7629 5 0.693209 0.319607 0.00674583 -5 -1 -1 
8904 5 0.805973 0.326404 0.0591972 0 -3 -3 
5742 5 0.165839 0.343451 0.0518819 1 -5 4 
7540 5 0.853866 0.382143 0.998791 6 8 3 
6643 5 0.909539 0.42776 0.0294966 -1 7 -1 
5395 6 0.630819 0.406667 0.00468925 -7 0 -2 
6215 5 0.662008 0.437395 0.00452074 2 3 5 
6416 5 0.681942 0.437595 0.0307583 -7 3 5 
6312 5 0.251171 0.433747 0.0164974 -2 2 -4 
8685 5 0.608219 0.42673 0.049155 0 -3 1 
6304 6 0.0648772 0.482817 0.0429069 6 -1 1 
5635 6 0.814681 0.430947 0.0407504 2 0 -2 
6760 5 0.987451 0.474388 0.0434979 2 -1 2 
6013 5 0.507003 0.496581 0.0500182 -2 1 1 
7305 6 0.614441 0.463716 0.031512 0 -1 6 
5121 6 0.795002 0.479264 0.00111386 -4 6 -2 
6200 5 0.887364 0.423249 0.0444126 2 -1 4 
6316 5 0.979688 0.462381 0.0183255 -1 -2 5 
8971 5 0.66858 0.511094 0.0225489 -1 6 3 
5671 6 0.77277 0.522763 0.0437168 1 -4 -2 
8065 5 0.355629 0.500538 0.0286266 -3 1 4 
5611 6 0.466339 0.56601 0.996447 -1 0 -2 
8847 6 0.351664 0.628544 0.0509188 1 -1 -3 
5350 6 0.588057 0.595835 0.0448501 -2 -5 6 
8816 5 0.759788 0.581733 0.0416026 1 3 -4 
5770 5 0.190755 0.614168 0.0305335 4 5 0 
7128 6 0.605467 0.614129 0.997476 2 -1 0 
8825 5 0.111374 0.655358 0.0452504 -6 1 1 
8570 5 0.603421 0.61366 0.0792331 1 0 2 
8840 5 0.113623 0.686717 0.0314038 -2 1 -1 
5643 6 0.804391 0.67352 0.0628469 5 -1 2 
6901 5 0.992488 0.687864 0.0334844 -3 -3 2 
8888 6 0.27979 0.710624 0.00280643 0 -4 2 
7788 5 0.314216 0.685544 0.0105644 0 -2 2 
8428 6 0.629073 0.683537 0.0241428 2 3 -2 
6712 6 0.890309 0.696711 0.0643612 3 0 2 
6098 5 0.0310955 0.751931 0.0754749 0 0 5 
5667 6 0.361709 0.766913 0.00385611 4 0 2 
8086 6 0.428328 0.767488 0.0292777 -1 -4 4 
8357 6 0.989815 0.804033 0.042764 -2 -2 -1 
6521 6 0.0503936 0.812318 0.00307266 -1 3 -2 
8764 6 0.222275 0.836367 0.0155719 2 0 1 
6726 5 0.856039 0.801121 0.0108209 3 4 -5 
8066 6 0.480254 0.867527 0.0563841 -5 -1 -5 
6966 5 0.636577 0.854327 0.0582426 -1 -4 3 
6516 5 0.782344 0.873391 0.0266505 -5 0 -7 
6429 6 0.853545 0.882083 0.041427 -3 1 1 
5078 6 0.893066 0.852425 0.0323482 1 0 -1 
8941 6 0.0318084 0.92425 0.0274214 -1 1 1 
7549 5 0.532638 0.906712 0.0116763 3 -3 3 
7716 6 0.824097 0.888444 0.0405312 -3 0 1 
8219 5 0.00895667 0.958367 0.0103574 -3 0 0 
7543 6 0.398867 0.968222 0.989792 6 0 4 
5368 6 0.640683 0.964701 0.049747 -1 -2 2 
6622 5 0.441092 0.985311 0.0177771 -4 -1 1 
7894 6 0.536424 0.0198158 0.0251207 -2 3 -1 
6676 6 0.62001 0.980028 0.994823 3 0 2 
6486 5 0.125182 0.0275962 0.0570178 -4 -1 -2 
5916 6 0.308292 0.997719 0.0286589 3 2 3 
7085 6 0.788445 0.0480474 0.0751251 -2 4 -4 
8258 5 0.0212924 0.0226817 0.105114 0 -1 -3 
8024 6 0.988061 0.0394013 0.0332065 -2 -4 -1 
6349 6 0.217397 0.0692245 0.0577903 4 0 4 
6042 6 0.524565 0.0231009 0.0187178 6 -2 -1 
5192 5 0.657044 0.0594029 0.0600682 3 3 -2 
7206 5 0.172604 0.114383 0.0863963 1 0 3 
8291 6 0.319164 0.160981 0.062868 1 2 -3 
6778 5 0.161656 0.192816 0.0815407 -2 5 3 
5528 6 0.180074 0.214577 0.083375 0 2 3 
7272 5 0.408444 0.236721 0.0733474 2 1 0 
6214 6 0.374708 0.187086 0.0447303 0 -2 -1 
6828 5 0.229388 0.24164 0.0894011 -1 0 3 
7083 6 0.255456 0.274638 0.0602259 -2 1 4 
7227 6 0.429024 0.283768 0.0538632 2 2 4 
8101 5 0.954827 0.260144 0.0609382 -2 -4 2 
8743 6 0.121821 0.258959 0.0758011 -2 0 2 
5872 5 0.414128 0.351695 0.0321022 0 3 2 
5665 5 0.60046 0.332446 0.0425987 2 3 3 
5181 5 0.747689 0.320607 0.0503283 -2 1 0 
8038 6 0.19518 0.287639 0.0591874 2 -1 -2 
7417 5 0.318246 0.277145 0.0371384 5 2 4 
6730 6 0.411359 0.311892 0.0705817 -2 -1 5 
6952 6 0.85827 0.288747 0.059861 1 -1 1 
6935 5 0.133135 0.33321 0.0648726 -4 8 5 
6331 5 0.528081 0.356925 0.079121 0 -2 -2 
5142 5 0.622626 0.382773 0.0428746 -2 3 0 
8030 5 0.0578218 0.442797 0.0371952 -3 6 -5 
5481 5 0.374648 0.405716 0.0235192 -4 1 -3 
8044 6 0.389333 0.396469 0.090305 2 -5 6 
7021 5 0.977404 0.376979 0.0564568 4 -1 0 
8467 5 0.761001 0.361352 0.0805633 1 -1 -3 
6827 5 0.82296 0.441135 0.045353 -2 1 -1 
8309 5 0.521383 0.442785 0.0960201 -2 -1 -1 
6280 6 0.74229 0.499752 0.0835662 -3 -3 3 
5443 5 0.0312984 0.511732 0.0849703 2 2 -3 
6235 5 0.104237 0.509094 0.0710443 4 -3 4 
8544 5 0.0349895 0.472709 0.0866932 6 0 2 
5748 5 0.327876 0.479399 0.0520351 -3 -4 1 
7887 5 0.451486 0.494404 0.0688412 -3 1 -2 
7757 5 0.0455942 0.495327 0.110096 -6 0 1 
5015 5 0.129654 0.534097 0.0276028 1 5 1 
5283 6 0.19402 0.561864 0.00965368 -4 -3 2 
6547 6 0.640377 0.516987 0.0354583 2 0 -3 
6749 5 0.572166 0.523616 0.0521844 -2 0 1 
5492 6 0.608759 0.589936 0.0524801 -2 0 0 
7376 6 0.812897 0.553245 0.0489577 -3 0 3 
5610 5 0.780266 0.606412 0.052075 -6 2 -2 
6263 6 0.304778 0.629984 0.0458728 5 -4 -2 
6403 6 0.173811 0.640247 0.101673 5 1 -4 
6363 5 0.289128 0.615747 0.0597596 0 0 2 
8556 6 0.00565133 0.621484 0.0510185 -2 0 -1 
7497 5 0.726867 0.644458 0.0622299 1 1 -1 
6040 5 0.813647 0.657662 0.105365 -5 -4 -2 
7303 6 0.945465 0.662325 0.0869998 4 -4 3 
7790 6 0.301348 0.710498 0.039677 3 -2 -3 
8928 5 0.5402 0.70664 0.0411929 -4 -1 -1 
5887 5 0.960515 0.726899 0.0560351 1 -1 1 
8393 6 0.962229 0.687474 0.0526805 -6 2 7 
8852 5 0.243416 0.761357 0.0491195 1 0 1 
8184 5 0.734665 0.760403 0.0377086 -1 5 1 
6741 6 0.896685 0.736436 0.0839566 -7 0 -3 
8146 5 0.0763781 0.77223 0.0490699 0 4 0 
7916 6 0.555219 0.734456 0.0361645 0 0 -3 
8173 5 0.879016 0.7815 0.0488273 -6 1 4 
7989 6 0.871902 0.777197 0.040138 -1 0 0 
6719 5 0.557752 0.80262 0.0632333 1 -5 -1 
7075 6 0.866817 0.81175 0.054291 -2 -1 -3 
7560 6 0.185473 0.862582 0.0293266 0 3 -4 
7878 6 0.481323 0.800876 0.0317884 -3 0 0 
7012 5 0.628365 0.821203 0.00836093 0 1 -1 
6980 6 0.920377 0.857655 0.0710519 -5 0 -2 
7289 6 0.973853 0.858156 0.056496 -3 -3 -1 
8003 6 0.502217 0.876511 0.0227836 -5 1 8 
7258 5 0.620928 0.853286 0.0547515 -2 -1 2 
5338 5 0.0878579 0.90555 0.0768005 0 2 2 
8267 5 0.604616 0.89038 0.0272979 -2 0 0 
7622 6 0.981224 0.913938 0.0559548 -2 5 -1 
5335 5 0.427219 0.91265 0.0769932 -3 -3 1 
6737 5 0.452622 0.951821 0.0661398 2 0 0 
8323 6 0.974612 0.949894 0.0394155 3 3 4 
5480 6 0.366779 0.974977 0.0762424 2 -1 -1 
6961 6 0.56044 0.992776 0.0942238 -6 0 2 
6420 6 0.659869 0.0199332 0.125926 4 0 -1 
8360 6 0.767876 1.00002 0.0823797 -3 1 3 
7776 6 0.691278 0.967794 0.0595631 5 -2 -1 
7808 6 0.279395 0.0585882 0.0608528 -3 1 0 
7514 5 0.626407 0.0479218 0.0736914 -2 3 2 
5752 6 0.138045 0.0613705 0.0948498 0 -1 -3 
8735 5 0.682951 0.0978917 0.0565856 3 -4 1 
8110 6 0.972075 0.0508383 0.0966459 -4 0 0 
7824 5 0.375217 0.137364 0.128515 2 0 0 
7663 5 0.361328 0.135727 0.107445 -2 6 2 
6273 6 0.741748 0.128966 0.0729357 0 1 3 
8094 5 0.22967 0.14834 0.0941092 -1 1 0 
5004 5 0.725201 0.151479 0.0278357 1 2 0 
8919 5 0.146937 0.189977 0.0956695 -1 6 2 
6818 5 0.334734 0.185796 0.131913 -1 3 -2 
5060 5 0.554987 0.160503 0.0738735 2 -2 -1 
6937 5 0.783742 0.185469 0.0578511 0 -5 1 
5825 5 0.67622 0.223214 0.0698886 4 0 1 
5620 5 0.808415 0.228243 0.0682718 -4 2 -1 
5309 6 0.939127 0.223136 0.0741996 1 -3 -2 
5160 6 0.955296 0.213879 0.0506419 2 -3 2 
6918 6 0.569285 0.210665 0.0746559 3 1 6 
5222 6 0.791516 0.235832 0.0594376 6 2 3 
8519 6 0.747569 0.241824 0.0784878 -4 4 3 
7194 5 0.734199 0.270107 0.108931 -3 4 -2 
5145 5 0.971481 0.286408 0.0800387 -3 -1 3 
6446 6 0.260367 0.269613 0.0477742 1 2 2 
6311 6 0.775168 0.282459 0.0757945 0 -3 0 
6830 6 0.045205 0.298454 0.0354794 1 -3 -1 
7667 6 0.0991746 0.301508 0.0654369 -3 1 -4 
8990 6 0.960522 0.277632 0.0869781 -2 -3 0 
6233 6 0.551059 0.320985 0.0746016 3 3 -3 
5943 6 0.755892 0.347483 0.0553661 6 0 -3 
8327 5 0.108121 0.410735 0.0953507 3 -5 1 
6981 5 0.385297 0.425444 0.117046 -2 -1 -1 
6650 5 0.647136 0.40591 0.0559893 0 -1 -2 
6936 6 0.780887 0.439014 0.0866 0 -1 -2 
5527 6 0.228992 0.441684 0.0459242 -1 3 -1 
7530 6 0.590947 0.459251 0.102547 -1 0 -3 
6939 5 0.880146 0.455878 0.0898335 0 2 1 
6216 5 0.0481887 0.472528 0.0699871 1 4 3 
5298 6 0.42593 0.486482 0.11376 -3 0 -3 
8072 6 0.431642 0.44476 0.0797316 3 -2 0 
8670 6 0.752141 0.418755 0.0865144 -3 5 -1 
7834 5 0.84034 0.499964 0.0666538 -4 4 2 
7377 6 0.763025 0.491805 0.0749826 1 -6 1 
7041 5 0.290811 0.535953 0.0666764 -1 5 -2 
5075 6 0.810531 0.503827 0.0839277 -3 -3 2 
8933 6 0.389093 0.547479 0.0740014 2 -5 0 
7525 6 0.608329 0.535739 0.0690247 -4 1 1 
8964 5 0.513837 0.555216 0.120932 3 -4 0 
7864 5 0.129632 0.601712 0.0736084 3 0 3 
5604 5 0.517537 0.642062 0.073157 0 0 3 
6903 5 0.83308 0.653477 0.0990983 -2 0 -3 
7437 6 0.547097 0.656949 0.0728859 -4 -1 -1 
8927 5 0.149797 0.66506 0.0980513 -1 0 -2 
6094 6 0.0911427 0.696985 0.0609194 3 1 -2 
8817 6 0.147797 0.68754 0.0391586 10 -4 3 
7152 5 0.490972 0.684254 0.0728798 6 3 0 
5597 6 0.490647 0.678695 0.0948853 0 -6 -1 
7202 6 0.0388019 0.721477 0.0891649 -4 -1 1 
8653 6 0.455718 0.730399 0.0947098 0 -3 -3 
7261 5 0.316173 0.757542 0.0810638 1 2 -3 
7327 5 0.281842 0.78605 0.0739914 2 -2 -4 
7973 5 0.416164 0.780077 0.0724763 1 5 4 
6742 6 0.663682 0.75142 0.0715506 -2 -2 3 
7797 6 0.844831 0.820491 0.0585296 -2 0 1 
8973 5 0.358695 0.850113 0.125496 1 2 -4 
7526 5 0.628273 0.76956 0.113082 1 2 -2 
8734 5 0.916514 0.866251 0.0836639 -3 1 -1 
5494 5 0.198681 0.848042 0.0765049 3 -2 3 
5460 5 0.902882 0.842936 0.0764194 2 -1 -1 
5313 5 0.236008 0.896762 0.0785962 0 1 -1 
5878 6 0.400625 0.8979 0.0524932 2 9 1 
7409 6 0.547492 0.936425 0.0935716 -1 3 -5 
5088 5 0.939243 0.879161 0.00926007 -4 -3 -1 
7090 5 0.316328 0.928302 0.124473 -5 1 5 
8509 5 0.0925285 0.928896 0.0744436 -1 -1 2 
8337 6 0.776045 0.968558 0.0818014 -5 -3 4 
7035 5 0.0586127 0.963105 0.0685829 1 -1 4 
8012 6 0.378688 0.950203 0.0698761 -1 -2 0 
6399 6 0.472647 0.985972 0.104222 -4 2 -3 
6519 6 0.730793 0.97288 0.0790934 0 0 2 
7931 6 0.520971 0.99165 0.100768 1 1 3 
6477 5 0.738703 0.011826 0.072483 1 1 2 
8339 5 0.799459 0.992296 0.1361 -3 0 -5 
5044 5 0.0936071 0.0463711 0.117689 1 0 -3 
6069 6 0.59977 0.0320588 0.0968723 -1 0 3 
7767 5 0.915112 0.0415326 0.0987658 -1 2 -3 
8978 5 0.536795 0.0959612 0.0893675 0 -4 2 
6768 5 0.877174 0.101387 0.0827345 2 -2 -2 
6104 5 0.436505 0.121292 0.103621 2 -1 -4 
7332 6 0.488617 0.137539 0.0970077 -1 -4 -1 
7157 5 0.549847 0.133165 0.128297 -6 -7 -3 
7094 6 0.762653 0.10992 0.0910771 1 -1 -1 
8204 6 0.590989 0.174689 0.123035 1 0 -1 
7015 5 0.381347 0.194598 0.0852178 4 7 2 
7845 6 0.614619 0.227883 0.11314 -1 4 2 
6156 5 0.250294 0.211899 0.0519891 5 2 4 
6615 6 0.796175 0.240793 0.114158 0 -1 1 
6651 6 0.215862 0.269642 0.0959384 2 3 -5 
6568 5 0.677761 0.297801 0.140805 3 -3 0 
6603 5 0.0182133 0.275781 0.108903 0 4 -3 
7259 5 0.6155 0.309261 0.0709567 0 -3 2 
8781 5 0.173032 0.343696 0.0969118 9 -1 -2 
5659 5 0.413756 0.323586 0.0772657 -1 -1 -1 
7218 5 0.518592 0.307414 0.0876138 -1 1 0 
8480 6 0.190995 0.347008 0.0627198 4 -2 -1 
7204 5 0.992967 0.391516 0.084818 1 -1 -2 
8975 6 0.33283 0.416634 0.103331 5 1 -1 
5598 5 0.608165 0.443871 0.14406 4 3 1 
8195 6 0.858488 0.446966 0.133395 -2 -2 5 
6648 5 0.0885619 0.474449 0.115354 1 -6 -2 
6583 6 0.644343 0.467051 0.091049 -2 4 0 
8561 6 0.89312 0.45249 0.12674 -2 1 3 
5490 6 0.14511 0.510744 0.0978961 -2 -3 0 
8177 5 0.30404 0.514977 0.106608 -1 0 -1 
5473 6 0.94359 0.48269 0.105777 -5 -6 5 
7499 6 0.0702712 0.531551 0.120791 -2 1 -2 
5944 5 0.0919975 0.492949 0.104051 -3 -2 1 
6823 6 0.633899 0.511917 0.121604 2 1 -1 
6618 6 0.00976539 0.476728 0.128783 -2 -1 1 
7120 6 0.00403979 0.531768 0.0971426 -2 -5 2 
8064 5 0.0785539 0.553754 0.0963304 -1 -4 -4 
8808 5 0.437059 0.493232 0.111233 -1 -1 0 
7626 5 0.827382 0.527999 0.132934 -2 3 3 
7105 6 0.588128 0.582946 0.121164 3 2 1 
8390 6 0.0399031 0.592954 0.125705 1 1 -2 
7166 5 0.0926745 0.574181 0.124259 2 -2 -3 
6761 5 0.620781 0.579734 0.0571632 2 -1 3 
7044 6 0.698111 0.578022 0.146859 1 -2 8 
6672 6 0.73794 0.606255 0.0958758 -3 -5 -3 
8341 6 0.482948 0.642205 0.0892146 -3 0 -8 
7831 6 0.534357 0.631693 0.134087 -3 -2 0 
5912 5 0.230316 0.67675 0.0755803 2 4 1 
7655 6 0.0951751 0.68652 0.0633104 3 -4 2 
7993 5 0.459327 0.69246 0.0856561 0 -3 1 
6290 6 0.105632 0.705257 0.124277 -1 -1 0 
7374 6 0.515865 0.750886 0.0997531 -1 -1 -1 
6096 5 0.518518 0.721528 0.0418034 -2 4 1 
6424 6 0.769495 0.709908 0.101998 -1 2 2 
8457 5 0.687223 0.771046 0.113557 -1 -1 3 
6551 6 0.570919 0.758925 0.124844 1 2 1 
7167 5 0.309241 0.779142 0.114399 -2 2 3 
7242 6 0.513118 0.823704 0.1312 0 0 -3 
6252 6 0.743267 0.792735 0.0801769 -3 0 5 
6000 5 0.767219 0.80198 0.127692 3 2 -1 
7571 6 0.919887 0.791862 0.113814 1 2 0 
6512 6 0.9843 0.844297 0.0901508 -3 4 2 
8235 5 0.222328 0.817807 0.110493 -4 -1 -4 
5561 6 0.466877 0.803138 0.0865616 0 -1 2 
5340 6 0.602599 0.855667 0.102852 -3 -1 2 
5642 6 0.629643 0.853486 0.111394 3 3 0 
6919 5 0.489509 0.926135 0.120303 0 -1 -1 
6111 5 0.580579 0.833388 0.104932 2 3 2 
7082 6 0.63126 0.860344 0.0965565 4 0 -1 
5624 6 0.890144 0.817746 0.0995476 2 1 -5 
5185 6 0.941936 0.877156 0.105003 3 -2 1 
6244 6 0.240746 0.906204 0.054456 4 4 -2 
6533 5 0.00903412 0.923056 0.103269 0 -9 1 
5927 5 0.129688 0.913562 0.0885517 1 1 0 
6950 5 0.264632 0.882455 0.0840707 -1 0 -2 
5213 6 0.262451 0.90835 0.10374 -3 -6 1 
6043 6 0.439126 0.900452 0.0791724 0 -5 3 
6806 6 0.246231 0.961952 0.117808 3 -4 -3 
6212 6 0.295652 0.953504 0.0980336 -4 -5 0 
6426 5 0.328119 0.928869 0.114115 -3 -2 -1 
8937 6 0.554996 0.951704 0.0941503 -2 2 -1 
5166 5 0.840148 0.947567 0.0691752 -3 3 -2 
5463 6 0.801821 0.966238 0.137654 -3 -1 -3 
6838 6 0.0785637 0.97908 0.0980388 1 -2 2 
6056 5 0.153117 0.984843 0.130236 -1 0 -5 
6250 5 0.187521 -0.00112036 0.114762 3 2 -6 
6886 6 0.623748 0.00323172 0.141275 2 1 4 
6189 5 0.759338 0.0406475 0.109825 1 3 6 
5415 5 0.595904 0.0192543 0.124299 -2 3 9 
8023 5 0.636768 0.0262788 0.12709 -1 -3 0 
6433 5 0.0948221 0.0778368 0.119795 4 -2 -1 
5333 5 0.567753 0.0913014 0.163954 -2 -3 1 
7061 5 0.644936 0.0991932 0.127288 1 -2 0 
8905 6 0.694438 0.123783 0.129254 1 1 -3 
8534 6 0.954567 0.129802 0.107159 4 -1 -3 
5267 6 0.681948 0.194364 0.169165 -2 2 0 
5631 5 0.205213 0.205724 0.14274 4 2 5 
6025 6 0.246566 0.206712 0.128065 -1 6 -2 
7362 6 0.980089 0.17091 0.118919 4 2 -7 
5495 5 0.929902 0.223423 0.138933 0 -3 -2 
5664 6 0.217654 0.218268 0.138239 2 -1 -1 
7982 5 0.911549 0.245517 0.111398 -3 -2 3 
6552 5 0.434077 0.280514 0.0724858 2 0 -2 
7587 6 0.492642 0.251984 0.0930476 -1 4 5 
5334 6 0.653315 0.28132 0.096253 2 -1 1 
5781 6 0.0964382 0.262962 0.155959 3 -1 -1 
8091 5 0.816758 0.256714 0.126988 1 0 4 
7986 6 0.471501 0.312194 0.139618 -2 1 0 
6579 6 0.477538 0.268242 0.12377 6 -3 2 
8210 6 0.953293 0.293463 0.145114 -5 1 2 
5260 6 0.733312 0.336395 0.110416 3 0 -6 
8499 6 0.238653 0.329882 0.112311 -2 0 -4 
5737 5 0.379288 0.384467 0.165864 0 0 4 
8716 6 0.272365 0.471793 0.116158 -2 -1 -3 
6319 5 0.547672 0.469003 0.0889939 2 0 2 
8168 6 0.701946 0.452667 0.144473 0 2 1 
8954 6 0.807996 0.446751 0.101699 -1 3 1 
6118 5 0.924326 0.513314 0.122947 -3 0 -1 
8773 6 0.987078 0.481226 0.136026 0 1 2 
5759 6 0.200599 0.572538 0.169245 -5 2 4 
5337 5 0.186958 0.488427 0.109832 -1 -1 -1 
5674 6 0.24912 0.497654 0.129881 -2 -3 0 
5743 5 0.760767 0.534329 0.16581 -2 5 -1 
8611 6 0.0253261 0.524726 0.118287 1 2 -1 
8693 6 0.277287 0.58233 0.16464 0 1 -1 
6022 6 0.234566 0.55342 0.118354 1 0 1 
6949 5 0.313981 0.564151 0.122649 0 -3 -4 
8543 5 0.292162 0.55304 0.118901 1 4 -1 
8747 5 0.459063 0.587593 0.158076 2 3 4 
8497 5 0.617765 0.583464 0.146859 1 5 -1 
8104 5 0.650413 0.589426 0.13498 -1 2 -9 
7585 6 0.447857 0.671094 0.121774 2 -3 3 
8020 5 0.889132 0.633755 0.105637 -2 -1 5 
7619 6 0.81757 0.644031 0.151802 -4 6 3 
5531 5 0.927148 0.642249 0.149577 -3 -2 3 
6149 6 0.409079 0.674078 0.102509 2 0 -2 
8138 5 0.06737 0.717153 0.126406 0 5 -2 
7483 5 0.112898 0.735879 0.11474 0 -4 4 
7446 6 0.145589 0.701525 0.105336 3 4 6 
8279 5 0.539016 0.684522 0.091809 -3 4 -2 
6657 6 0.723642 0.701601 0.152067 1 2 2 
5761 6 0.100698 0.726084 0.11579 -1 -2 2 
5393 6 0.645039 0.720476 0.156967 -2 -2 -1 
5594 6 0.348487 0.740884 0.113874 0 -2 -2 
6151 5 0.992297 0.76811 0.128359 -1 2 -1 
5541 5 0.0749076 0.759973 0.121876 4 1 7 
7676 6 0.109106 0.794246 0.115445 1 -1 -2 
8330 5 0.313284 0.747445 0.124728 2 -3 7 
5918 5 0.39072 0.757626 0.119704 -5 -3 -2 
7475 6 0.392664 0.736333 0.116311 0 2 -3 
8810 5 0.683769 0.790598 0.153377 2 -1 1 
7431 5 0.696797 0.782869 0.125383 -5 1 -1 
7453 5 0.79442 0.779415 0.115457 -1 -3 1 
7642 6 0.854023 0.760794 0.103244 7 -5 0 
7951 5 0.664021 0.79831 0.12403 0 -2 -7 
5744 6 0.152784 0.846344 0.117345 1 5 -3 
5905 5 0.266633 0.819989 0.103132 1 0 0 
7791 6 0.509419 0.839538 0.111228 -2 -1 0 
5397 5 0.57965 0.845718 0.137093 -5 -1 0 
5427 6 0.647711 0.833194 0.081323 -3 0 -2 
7565 5 0.790273 0.86643 0.139838 -3 0 9 
7596 5 0.077297 0.874547 0.0885547 5 -6 1 
8367 5 0.394359 0.873798 0.130052 2 -5 0 
5349 5 0.120313 0.944935 0.104187 -1 0 5 
8535 5 0.128404 0.900699 0.123885 -1 -6 10 
8984 6 0.351144 0.901165 0.12021 -6 -2 0 
5697 6 0.875574 0.911964 0.135047 5 -1 -1 
5647 5 0.982932 0.92716 0.123692 1 3 -2 
6967 6 0.535439 0.92446 0.111066 3 1 1 
6636 6 0.557901 0.999948 0.127082 -2 -5 3 
8633 5 0.887324 0.940699 0.0974377 0 0 2 
8459 5 0.082272 0.945256 0.104687 -4 -4 -4 
7232 5 0.558188 0.966982 0.117783 2 -1 1 
5515 6 0.27799 0.957628 0.134342 4 2 2 
8178 5 0.507161 0.967455 0.123371 -4 0 -2 
6850 5 0.784495 0.948661 0.181255 -1 -1 0 
7766 5 0.952103 0.950307 0.162658 2 0 -2 
6405 6 0.566738 0.0606755 0.181232 0 -3 -2 
8377 6 0.729468 0.0884246 0.142467 -3 2 -1 
5091 6 0.782936 0.112781 0.12568 0 4 -1 
7784 6 0.151541 0.0591567 0.122416 8 -2 -2 
6531 6 0.830949 0.0923549 0.13798 2 5 -2 
7960 6 0.914943 0.116762 0.14653 5 2 -1 
8328 6 0.958882 0.126694 0.127163 1 0 4 
6170 6 0.282775 0.126796 0.168467 -4 0 -1 
5869 6 0.363209 0.116136 0.0999988 5 -5 0 
5930 5 0.386326 0.115916 0.158116 -4 1 6 
5707 5 0.0426737 0.15943 0.127564 10 -2 -2 
8394 5 0.384592 0.177349 0.160853 4 1 1 
6821 5 0.243982 0.166009 0.127487 -3 -3 -2 
7078 6 0.438611 0.227432 0.134202 -4 2 2 
7556 6 0.689888 0.205704 0.149377 -1 0 0 
5198 5 0.624069 0.248047 0.159569 1 4 -3 
8077 5 0.22726 0.269317 0.148202 1 -2 -2 
5428 5 0.809007 0.243028 0.122624 -2 -3 1 
7422 6 0.83008 0.252875 0.135073 -4 0 -5 
7940 5 0.451777 0.328931 0.153051 -5 -6 -3 
8470 5 0.437846 0.326965 0.142086 3 -4 -3 
5574 6 0.539371 0.309973 0.140597 2 -3 -3 
6079 6 0.114235 0.389681 0.151775 2 1 -2 
5440 5 0.159071 0.394572 0.118713 1 1 5 
7465 5 0.857546 0.422171 0.133253 -2 -3 -4 
5163 6 0.355786 0.441703 0.143508 0 1 5 
7867 6 0.597036 0.484391 0.130228 -3 -1 -6 
7042 5 0.316511 0.443405 0.124785 -3 8 -4 
6173 6 0.544795 0.415593 0.137748 -1 0 -4 
6798 6 0.121245 0.448007 0.194197 4 6 -1 
6066 6 0.614391 0.496521 0.179812 1 3 2 
7771 5 0.160575 0.524878 0.132194 3 1 -1 
5902 6 0.613904 0.531153 0.141568 4 2 3 
5734 6 0.290438 0.500588 0.142325 -2 4 1 
7049 5 0.875106 0.524056 0.143141 -1 2 -5 
6394 6 0.739899 0.532519 0.127722 -4 3 1 
5691 6 0.839867 0.544457 0.126149 -2 -2 -2 
5432 5 0.285873 0.574222 0.138302 -2 -1 1 
5249 5 0.907603 0.553952 0.162511 -1 3 -5 
7943 6 0.756469 0.639748 0.187213 -2 -2 0 
6947 6 0.987229 0.636629 0.176413 -3 -4 4 
6246 5 0.1771 0.705084 0.12608 -4 -1 -2 
6381 6 0.541482 0.713361 0.117115 3 2 -5 
7140 5 0.503432 0.713861 0.0925545 -1 0 3 
6502 6 0.834758 0.679842 0.162792 -2 5 -2 
8325 5 0.959597 0.735195 0.155608 2 -5 2 
8139 5 0.184113 0.726304 0.133493 2 5 0 
6670 5 0.7808 0.702921 0.158338 4 1 1 
6638 5 0.838708 0.740385 0.133633 -1 0 6 
6879 6 0.506065 0.766197 0.14139 3 -1 -1 
6207 6 0.646424 0.781351 0.140766 -1 4 -3 
5410 6 0.635049 0.744052 0.177524 1 -6 5 
7239 5 0.694112 0.743169 0.15244 -3 0 -2 
5178 5 0.110945 0.771123 0.169098 -1 0 0 
8388 5 0.143805 0.774618 0.140788 0 2 -1 
8182 5 0.203081 0.848486 0.209194 1 -5 -4 
5408 5 0.559348 0.84374 0.170169 -1 -1 -3 
5909 6 0.870594 0.89343 0.158318 -1 0 -1 
7342 6 0.206381 0.875669 0.142655 -3 -4 5 
5173 5 0.280849 0.916769 0.172119 2 1 3 
8564 5 0.529188 0.874081 0.17617 1 -4 1 
5722 6 0.222505 0.932156 0.123702 3 4 -2 
6564 5 0.699532 0.944445 0.115354 0 -2 0 
8662 6 0.21801 0.936988 0.18955 -3 0 -2 
8889 6 0.283656 0.944482 0.138696 -5 1 6 
5646 6 0.700792 0.929243 0.127357 1 1 -3 
5840 5 0.648121 0.936044 0.142713 7 -3 2 
8069 6 0.692038 0.995545 0.133868 3 -3 1 
8931 6 0.190298 0.988623 0.187225 -4 -6 -1 
5596 5 0.253294 0.0427787 0.16386 7 0 0 
5972 6 0.351782 0.0500996 0.147332 -1 -3 -1 
5417 5 0.342329 0.991459 0.149382 0 3 -1 
5262 5 0.404565 0.0410931 0.190229 3 2 -1 
5190 6 0.678975 0.015138 0.167674 -2 -2 2 
5365 5 0.327936 0.0853254 0.158535 3 -1 3 
7690 6 0.961345 0.0608547 0.209343 0 -4 0 
7310 6 0.0012108 0.0704608 0.180468 -1 2 -3 
8395 5 0.560258 0.129849 0.171049 -2 -1 3 
8085 6 0.531676 0.145339 0.190197 -2 -2 -7 
8493 6 0.655802 0.145912 0.162225 -1 -4 -2 
8347 6 0.633856 0.1054 0.175492 2 4 0 
8290 5 0.68231 0.112311 0.164301 4 1 -2 
7886 5 0.931547 0.154557 0.15103 4 0 1 
8720 5 0.55386 0.145205 0.152418 -3 1 2 
5041 5 0.648154 0.175274 0.213011 0 0 0 
6843 6 0.154759 0.177537 0.169881 1 -2 2 
6938 5 0.543202 0.183342 0.187317 5 -2 2 
6378 6 0.74807 0.182177 0.171226 0 -3 0 
8266 6 0.943616 0.224033 0.181651 -6 1 1 
6717 5 0.22705 0.20346 0.141505 2 4 0 
6759 5 0.454401 0.205262 0.179679 1 0 9 
6540 5 0.55896 0.179092 0.155694 3 0 4 
5820 5 0.209558 0.237768 0.175162 -1 -2 -2 
7872 6 0.458363 0.203008 0.139261 4 -3 0 
6296 5 0.329178 0.262622 0.132015 -3 0 4 
6291 5 0.223423 0.282626 0.187563 -2 -6 4 
5949 6 0.378141 0.281648 0.182005 1 2 -1 
5208 5 0.864251 0.248325 0.160026 -4 -1 -3 
6536 6 0.936433 0.287104 0.168392 1 -3 -1 
5775 6 0.98755 0.308476 0.189757 1 2 -5 
5738 5 0.357505 0.282649 0.150252 5 2 -1 
7029 6 0.81067 0.308698 0.180291 3 3 -2 
6472 6 0.163122 0.374693 0.136182 -1 5 -1 
6498 5 0.713425 0.333478 0.163463 -1 -1 1 
7852 6 0.919947 0.330915 0.176101 -2 3 -2 
6289 6 0.988939 0.419321 0.173039 1 1 0 
6089 6 0.180443 0.384954 0.184464 2 0 -7 
8635 5 0.8457 0.345602 0.147054 0 -1 -2 
6365 6 0.919617 0.392534 0.16026 -4 3 0 
6765 5 0.0505465 0.464698 0.178669 -1 -2 4 
5353 5 0.152434 0.409972 0.171253 -1 4 3 
6102 6 0.568753 0.432419 0.152256 -2 -2 4 
6500 5 0.571286 0.438886 0.172831 1 1 0 
5592 5 0.836148 0.44566 0.150109 0 0 3 
8604 5 0.893712 0.473837 0.195006 1 0 6 
6303 5 0.8485 0.495161 0.161571 -2 2 2 
8650 5 0.959026 0.481387 0.193361 -3 -1 2 
5275 6 0.38266 0.515897 0.185042 -4 0 0 
5033 5 0.426173 0.516632 0.166796 -1 0 -7 
6164 5 0.779902 0.534957 0.155421 2 3 2 
8991 5 0.868586 0.49285 0.16646 -6 -1 3 
5584 5 0.610167 0.571861 0.201316 5 -3 2 
8237 5 0.020345 0.543132 0.195646 2 2 -1 
7726 6 0.351561 0.591669 0.165998 -1 3 -1 
6124 6 0.74314 0.581264 0.158195 4 -4 5 
7419 6 0.0119657 0.60488 0.162222 0 -1 1 
5157 6 0.559673 0.602631 0.172064 1 -3 -1 
5790 5 0.85005 0.588682 0.157954 -4 -3 0 
7324 5 0.814304 0.614235 0.172737 0 0 2 
6858 6 0.99761 0.575833 0.144495 2 3 2 
7682 6 0.326263 0.634178 0.153411 -1 -2 1 
8878 5 0.70972 0.663649 0.17648 4 0 -3 
6030 6 0.735168 0.629829 0.136488 0 -1 -4 
7482 5 0.0555948 0.690491 0.175406 -3 0 3 
8530 6 0.146698 0.647293 0.183205 -1 2 2 
7251 6 0.180806 0.649047 0.166561 3 2 0 
5792 5 0.284757 0.651486 0.186152 1 -3 -3 
5719 6 0.604357 0.613356 0.15859 3 -1 0 
8926 6 0.0625676 0.661157 0.194301 0 -4 7 
6006 6 0.711057 0.635417 0.178618 1 -1 1 
6083 6 0.0614018 0.72061 0.157896 4 2 2 
8576 6 0.31891 0.654007 0.19164 -3 -3 -5 
5159 6 0.447159 0.703994 0.180225 0 -1 -5 
7710 5 0.14003 0.723958 0.172348 -1 3 3 
7423 6 0.27051 0.753957 0.176487 1 -1 1 
7782 6 0.474602 0.76443 0.193676 0 1 -1 
7357 6 0.902961 0.72172 0.186108 -5 -2 0 
5773 5 0.69615 0.783512 0.155259 -4 -1 2 
6323 5 0.429893 0.832315 0.1835 5 1 0 
6906 6 0.142433 0.898701 0.20236 -1 1 -1 
8253 6 0.145488 0.866417 0.151733 10 -1 0 
8999 5 0.105588 0.886389 0.181287 -1 -1 -3 
6180 6 0.319392 0.871999 0.136573 -3 3 -3 
7390 5 0.29323 0.917878 0.178102 -4 0 4 
7107 6 0.739203 0.916108 0.150247 2 3 2 
6193 5 0.749366 0.924593 0.182178 -1 -2 -2 
6177 5 0.495223 0.943639 0.139179 -1 -1 1 
6015 6 0.0582664 0.99098 0.196898 6 1 5 
5437 5 0.146097 0.967803 0.126654 3 -4 -3 
7856 5 0.439603 0.976 0.162769 4 2 7 
8465 5 0.564593 0.974931 0.150346 -1 -4 0 
5086 6 0.723784 0.00838648 0.17748 -1 -2 0 
6438 6 0.845402 -0.00106442 0.115315 -3 1 1 
8161 5 0.20844 0.991888 0.156832 -1 0 1 
8609 6 0.272965 0.00245011 0.178317 0 0 2 
5780 6 0.519283 0.993532 0.150814 3 -3 -2 
8539 5 0.572867 0.00418557 0.160609 0 4 -3 
6101 5 0.263856 0.944806 0.185951 0 -6 -5 
7394 5 0.504749 0.0757275 0.17384 3 3 -3 
8141 5 0.56302 1.00051 0.222209 0 3 2 
7789 6 0.0323703 0.0824659 0.216469 0 3 6 
6147 6 0.450547 0.0440123 0.220334 -3 5 1 
5512 6 0.613358 0.0284717 0.190518 5 1 3 
8061 5 0.764349 0.0230534 0.186876 -2 4 4 
6036 6 0.797265 0.0415958 0.197683 -5 -6 -2 
5366 5 0.949594 0.100426 0.254898 -4 -2 2 
5284 5 0.0191228 0.114244 0.193244 -3 3 1 
8834 5 0.267242 0.14144 0.202197 4 -1 -3 
5342 5 0.519857 0.165902 0.185648 0 2 1 
6594 5 0.927469 0.15694 0.207976 -4 1 0 
8855 6 0.0079648 0.166332 0.211308 -1 -1 0 
7410 6 0.0398543 0.170723 0.182218 1 1 -4 
8912 6 0.623088 0.171864 0.142851 -2 -3 -3 
7001 6 0.236289 0.175653 0.20955 -2 0 3 
8579 5 0.463039 0.16925 0.177883 4 -6 3 
6468 5 0.578331 0.195441 0.186769 4 3 -1 
5896 6 0.63264 0.188777 0.185418 0 0 3 