ITEM: TIMESTEP
20000000
ITEM: NUMBER OF ATOMS
9000
ITEM: BOX BOUNDS pp pp pp
-75 75
-75 75
-75 75
ITEM: ATOMS id type xs ys zs ix iy iz 
6430 6 0.588105 0.00141892 0.974807 3 1 1 
5956 6 0.827936 0.0165215 0.98728 -4 -1 2 
8705 6 0.0648177 0.0269573 0.986131 3 4 -1 
5718 6 0.943159 0.065606 0.99187 0 0 1 
5602 6 0.440859 0.0518707 0.978026 -1 3 3 
7012 6 0.164241 0.1104 0.00412894 2 -1 3 
6710 5 0.721923 0.0999399 0.0118206 1 -1 3 
5851 6 0.733476 0.126269 0.00545848 0 2 3 
7265 6 0.282397 0.122301 0.0402478 -3 1 3 
5624 6 0.505086 0.147743 0.0382302 -2 3 1 
5072 6 0.73268 0.152955 0.984575 -3 -1 3 
5508 6 0.804872 0.144798 1.00069 -1 1 3 
8824 5 0.0369256 0.20503 0.0305637 -4 -1 0 
8381 5 0.0529826 0.191914 0.0333835 1 -2 -1 
8084 5 0.278297 0.210107 0.981962 -2 0 0 
5130 6 0.318765 0.173166 0.0222547 6 0 2 
5910 6 0.0660857 0.218774 0.0167773 -2 0 0 
8115 5 0.221919 0.242699 0.993396 -5 1 -2 
8331 6 0.207641 0.268686 0.0466115 2 4 -1 
8530 6 0.571214 0.262654 0.993497 1 0 3 
6754 6 0.937448 0.293038 0.0196176 2 0 1 
8716 5 0.355517 0.264683 0.0075783 3 1 0 
6480 6 0.580738 0.296019 0.985753 -4 -3 0 
5032 6 0.63036 0.312979 0.999107 4 3 2 
6243 6 0.0214688 0.300973 0.0121391 -5 3 2 
5887 6 0.359815 0.338124 0.985853 0 0 4 
8670 5 0.354289 0.337068 0.0579008 5 4 -2 
5425 5 0.599425 0.35728 0.991547 2 -4 4 
5607 6 0.936991 0.349446 0.0581225 -2 2 5 
7068 6 0.772004 0.386423 0.0128273 4 3 2 
5364 5 0.639257 0.411847 0.994341 -3 -2 0 
5854 6 0.0371026 0.424873 0.0141369 -1 -1 0 
5781 6 0.779214 0.447335 0.0341386 -2 -3 0 
7167 6 0.751511 0.473396 0.968968 -3 -1 -3 
5397 5 0.991483 0.48879 0.0416274 -2 1 -3 
6031 6 0.539352 0.515313 0.0448303 3 3 -4 
7225 5 0.292152 0.517962 0.00305348 2 5 1 
7849 6 0.681857 0.519494 0.997007 -3 -1 0 
5240 5 0.916368 0.578155 0.0285235 -3 1 -1 
7561 5 0.0123342 0.549191 0.00354085 -2 3 1 
6937 5 0.600835 0.566846 0.992329 -1 -6 -5 
8341 5 0.836202 0.568394 0.980435 2 4 -1 
8445 6 0.954795 0.599881 1.00092 1 2 3 
6579 5 0.37741 0.579459 0.976324 -1 2 -4 
5915 5 0.442691 0.601409 0.0287717 -2 2 1 
7035 5 0.417866 0.561934 0.00862307 1 0 -3 
8278 6 0.958673 0.58954 0.0165753 3 -3 1 
8661 6 0.102545 0.619852 0.00441596 2 1 -1 
5052 6 0.232506 0.607703 0.989332 -2 -3 2 
6877 5 0.663865 0.610486 0.974861 1 2 -4 
6924 6 0.444253 0.696424 0.992286 -1 -3 -4 
5600 6 0.578344 0.657503 0.986684 -1 -1 0 
6166 6 0.242767 0.678297 0.968813 -5 0 0 
8634 6 0.545615 0.653721 0.995116 1 -5 -1 
5243 5 0.876864 0.656884 0.990364 -2 -5 5 
5852 5 0.0890491 0.711135 0.0542815 1 0 1 
6773 6 0.142768 0.733386 0.0466691 2 1 -1 
7631 5 0.684789 0.670525 0.0381547 4 4 -2 
6100 6 0.197566 0.690457 0.999061 7 -1 3 
8800 5 0.833122 0.736957 0.991133 1 1 0 
6835 5 0.427239 0.744442 0.0535187 -6 1 6 
8934 6 0.549399 0.79506 0.00291903 -1 -1 1 
7485 6 0.977569 0.777229 0.0235894 -4 -1 2 
6096 6 0.0269565 0.812604 0.00671882 -3 0 -3 
7882 6 0.366618 0.841529 0.987624 4 -2 -1 
8845 6 0.628763 0.772445 0.982126 -2 2 2 
6649 5 0.851366 0.801435 0.0132527 -1 -2 4 
5942 5 0.0529612 0.876203 0.049239 0 3 -4 
8607 5 0.260673 0.837068 0.986888 0 2 0 
6983 5 0.300419 0.839729 0.0117867 -3 -3 5 
8814 6 0.332054 0.886292 0.995593 -3 0 1 
5442 6 0.819646 0.823192 0.0127111 4 -1 -1 
8642 6 0.386197 0.89264 0.0253475 -1 -3 3 
8868 5 0.957622 0.917668 0.977522 0 -1 -1 
5654 6 0.279614 0.91722 0.01585 -1 0 2 
8753 6 0.828754 0.961662 -0.000724176 0 4 0 
7553 5 0.963521 0.00935443 0.98869 5 -4 2 
7126 6 0.314692 0.0375153 0.0780948 1 5 -2 
7555 6 0.0764378 0.046346 0.0167098 0 -3 -2 
7197 5 0.222918 0.0459856 0.0202316 -3 0 -4 
5410 5 0.470233 0.0196344 0.0284328 1 -3 0 
7932 6 0.675558 0.0526373 0.0415235 4 0 4 
6713 5 0.962119 0.0467655 0.0336733 1 -1 -3 
7831 5 0.695044 0.0340659 0.0246238 -4 1 1 
7319 6 0.0270802 0.0545611 0.0177361 0 6 5 
5671 6 0.879545 0.0942338 0.00418492 -1 0 -1 
6370 5 0.0881857 0.105141 0.0607813 5 2 1 
6675 5 0.535227 0.0763966 0.048945 0 -5 0 
8626 5 0.686245 0.106809 0.0435664 -6 -1 3 
8606 5 0.281851 0.173365 0.997027 4 4 1 
5118 6 0.489771 0.191823 0.0281345 -4 3 -1 
7214 5 0.799895 0.241109 0.0413899 -1 -1 -4 
8092 5 0.448533 0.231843 0.025746 2 3 -1 
8977 6 0.591421 0.285472 0.0236079 -6 -3 6 
7105 5 0.914288 0.237887 0.0323048 0 0 -1 
7891 5 0.79512 0.255169 0.0749249 -3 1 1 
5844 6 0.929988 0.293138 0.0125833 1 2 -1 
6461 6 0.154584 0.343572 0.0691862 0 3 4 
6001 6 0.425778 0.29578 0.0356163 6 -1 7 
8470 6 0.156801 0.328882 0.0260966 1 -3 5 
8861 6 0.156084 0.345677 0.0293004 -2 0 0 
6768 5 0.391685 0.333718 0.0562457 2 0 5 
7264 5 0.551986 0.327923 0.0171923 -2 0 -2 
8017 6 0.22654 0.333798 0.0770501 -7 -2 1 
5055 6 0.503069 0.322207 0.0410531 4 -2 0 
5724 5 0.806852 0.343122 0.0564407 4 3 -1 
5225 5 0.449635 0.405715 0.042018 3 1 2 
8352 5 0.655456 0.411614 0.0278905 -4 1 -3 
8901 5 0.735911 0.459673 0.0256562 1 -1 6 
8274 6 0.947886 0.434238 0.043471 0 -1 0 
6656 5 0.0118649 0.43002 0.0545423 -3 -4 0 
5310 6 0.155696 0.418421 0.00254741 3 -4 3 
6308 6 0.60218 0.451456 0.0348618 3 -5 5 
5044 6 0.637612 0.460524 0.0635109 -2 2 3 
8936 6 0.184036 0.449399 0.0431077 0 1 2 
8706 5 0.271614 0.441926 0.0472836 0 5 -1 
8851 5 0.538041 0.46394 0.0341166 -4 0 -2 
6648 6 0.985901 0.477256 0.0449293 -3 -1 4 
6739 6 0.442899 0.539513 0.0212715 5 6 0 
7138 5 0.685424 0.485074 0.0884062 -3 -1 -2 
7237 6 0.0890677 0.47921 0.0661711 5 -4 2 
7641 6 0.164763 0.548701 0.0511687 -2 3 -5 
8555 6 0.583194 0.503232 0.0366132 1 -4 -7 
8793 6 0.753685 0.533695 0.00884576 0 -2 3 
6800 5 0.985194 0.517332 0.0225294 -2 1 0 
8992 6 0.204906 0.534839 0.0155299 8 -6 -3 
8804 5 0.76477 0.555095 0.0509255 1 -4 2 
8056 5 0.98303 0.546825 0.0239986 0 -4 0 
5784 6 0.0737201 0.596768 0.0267789 3 -3 5 
8762 5 0.645479 0.606367 0.0288259 -4 2 6 
8568 6 0.687688 0.567059 0.0291434 5 -1 -3 
6706 6 0.413679 0.616104 0.0746438 1 1 -2 
5299 5 0.612414 0.611958 0.0276235 0 -1 -1 
8104 6 0.189595 0.616422 0.00176168 -3 -7 5 
7738 5 0.452663 0.652105 0.0213491 0 0 8 
8228 5 0.0140875 0.620859 0.0153287 3 1 -1 
5254 6 0.0838905 0.697778 0.99026 -2 1 1 
8109 5 0.641365 0.704912 0.00059716 3 0 1 
6711 6 0.766374 0.680953 0.0500792 0 -3 1 
6432 6 0.445281 0.708242 0.0471412 -1 0 3 
6279 5 0.646525 0.698214 0.0170483 1 -1 0 
8795 6 0.90032 0.701622 0.00675287 -4 -1 4 
5411 6 0.949866 0.715651 0.0358288 -2 1 -1 
5269 6 0.752207 0.752594 0.0362851 0 4 -1 
7181 6 0.466421 0.776144 0.052727 0 0 -1 
6074 6 0.560787 0.766306 0.0360341 1 1 4 
5876 5 0.271287 0.766043 -0.00165453 -3 9 0 
7666 6 0.775267 0.765834 0.0459806 -1 -1 -1 
5094 6 0.864043 0.796799 0.0504681 0 -2 -3 
5692 5 0.404768 0.789469 0.0497206 -2 0 3 
7881 6 0.467112 0.803847 0.0570614 0 -1 2 
8421 5 0.902937 0.839886 0.0315951 -4 1 3 
6555 6 0.0747981 0.830851 0.0834178 2 -5 -2 
5746 5 0.554596 0.854374 0.0271001 -3 3 1 
8990 5 0.97528 0.873307 0.0450615 -5 0 1 
6141 6 0.106824 0.879574 0.024223 4 -2 2 
7505 5 0.327893 0.920706 0.0106166 1 -4 1 
7117 5 0.988112 0.870985 0.0394919 1 -3 1 
6985 6 0.104868 0.91808 0.0334251 2 0 -3 
6880 6 0.369181 0.899889 0.00837662 3 -6 2 
7840 6 0.663955 0.979364 0.070271 4 -2 -2 
5744 5 0.757214 0.916839 0.0160091 0 -1 2 
7684 5 0.834341 0.962668 0.0393464 -2 3 -3 
8197 6 0.0898928 0.980308 0.0931398 -3 0 0 
7058 6 0.353574 0.000649686 0.0154737 2 4 -2 
5272 6 0.286579 0.0251876 0.0741176 1 -6 1 
7310 5 0.293574 0.0314556 0.0751626 2 0 0 
5404 5 0.756387 0.0151275 0.0679165 0 -1 0 
8744 6 0.816097 0.0266022 0.0488668 5 -3 -2 
7416 5 0.971149 0.039527 0.057342 1 -3 2 
8994 5 0.269663 0.0775998 0.050932 1 -1 -2 
8461 5 0.998677 0.0653885 0.0962315 3 4 1 
6197 6 0.588782 0.0991718 0.0151153 -3 5 -1 
5360 5 0.227432 0.174167 0.0782343 4 3 0 
5621 5 0.35341 0.15618 0.0815492 0 5 0 
6572 6 0.393723 0.179413 0.0561846 0 -1 0 
6465 5 0.290033 0.164723 0.0644034 -2 1 0 
6883 6 0.241517 0.255269 0.0375457 -2 1 1 
5381 5 0.0872593 0.236717 0.0747978 -2 2 -3 
7328 5 0.397128 0.283527 0.0508062 1 -1 4 
8297 6 0.76638 0.243937 0.0517634 10 3 6 
5168 6 0.2856 0.232831 0.0491976 1 -2 -1 
8960 5 0.503056 0.270367 0.0721308 -1 4 -2 
7613 6 0.247198 0.302459 0.0506644 1 4 -3 
8021 6 0.802267 0.303689 0.0451428 0 3 2 
8651 5 0.985151 0.288039 0.0563954 -3 3 -1 
6037 6 0.15159 0.341741 0.0491629 -2 -1 2 
8432 6 0.347504 0.290329 0.0612693 0 0 1 
8927 6 0.5669 0.327567 0.0647624 0 0 3 
5909 5 0.813103 0.355532 0.079701 -4 1 -4 
7353 6 0.870891 0.354167 0.0422097 0 -4 5 
6533 6 0.975262 0.33418 0.0116248 -2 -4 -2 
6638 5 0.288993 0.382042 0.0845411 5 -4 2 
8036 6 0.944906 0.371412 0.0512283 -1 6 -3 
7267 5 0.00757982 0.371007 0.0659975 1 0 3 
8736 5 0.461863 0.402614 0.0803727 -2 -1 2 
8551 6 0.0113827 0.383629 0.0738481 1 1 2 
8943 6 0.151058 0.43058 0.0475189 4 -4 2 
7121 6 0.326957 0.422744 0.0826371 5 -2 3 
5730 5 0.31113 0.404436 0.0487898 -2 2 -1 
5890 6 0.436455 0.419557 0.0314058 4 -1 -5 
5238 5 0.780747 0.386325 0.0363174 -4 -2 -1 
5549 5 0.237184 0.459034 0.0506425 -3 4 -4 
7872 5 0.504199 0.450457 0.0342632 5 1 1 
5445 6 0.354524 0.473491 0.056904 -1 0 6 
5911 6 0.870688 0.464762 0.0955238 -2 3 1 
8717 5 0.149636 0.488451 0.044423 -1 0 -3 
5611 6 0.345112 0.484826 0.0687877 1 3 -1 
7624 6 0.909679 0.465497 0.0373613 -3 3 -7 
6624 6 0.945841 0.483267 0.0694061 0 2 0 
7663 5 0.398503 0.512889 0.045486 -1 0 1 
7809 5 0.94478 0.542239 0.106396 3 1 4 
6034 5 0.322619 0.514906 0.0380233 -1 5 3 
6885 5 0.299687 0.505758 0.0899461 0 3 -1 
6247 6 0.480267 0.555994 0.068684 1 -5 -3 
7399 5 0.763619 0.593297 0.0501396 -1 -4 3 
7540 6 0.116395 0.598195 0.023401 2 -1 0 
5082 5 0.146729 0.59259 0.0613696 4 1 -5 
6336 6 0.277731 0.596899 0.0529457 2 -1 1 
6609 5 0.301841 0.610682 0.110442 4 2 -1 
5146 6 0.376728 0.639099 0.0621602 1 -2 2 
7558 5 0.51359 0.640471 0.0855734 -2 -3 0 
5108 6 0.778461 0.65862 0.0658629 -2 -2 2 
6220 6 0.891524 0.661005 0.0906532 -1 -1 -3 
6354 5 0.0440099 0.708825 0.0737529 -1 -4 5 
5297 5 0.0267465 0.746301 0.109724 -2 -1 4 
8742 5 0.668638 0.678084 0.0657173 -7 2 5 
8580 5 0.771765 0.714811 0.0687141 3 0 -2 
6552 6 0.072168 0.718385 0.0710394 1 2 5 
5885 6 0.0830872 0.726659 0.0699964 -1 6 -2 
7584 5 0.240968 0.696352 0.0576932 -1 4 -1 
6547 6 0.310442 0.748654 0.0572661 3 1 -1 
8169 6 0.404193 0.743216 0.0504169 1 -1 1 
5048 5 0.408173 0.732929 0.0836394 0 2 0 
8520 6 0.849357 0.787922 0.0664239 0 3 2 
6783 6 0.898225 0.758206 0.0591653 5 2 -2 
7046 6 0.936415 0.799039 0.0596955 1 -1 2 
6253 6 0.980637 0.77357 0.0428107 0 7 5 
6174 5 0.198338 0.826301 0.067322 3 -1 -1 
6405 5 0.409649 0.791257 0.0674603 3 2 3 
6616 6 0.451999 0.772887 0.0527596 3 1 3 
8649 6 0.223712 0.800948 0.0680888 0 1 6 
5825 6 0.381186 0.81361 0.0417517 1 -8 -1 
7242 5 0.901575 0.786535 0.0487822 -4 5 -3 
5997 6 0.168018 0.839273 0.0710698 -2 1 1 
5678 5 0.221103 0.851406 0.0415011 4 5 -5 
6215 5 0.180919 0.842245 0.0435171 3 -1 -2 
7150 5 0.343873 0.844605 0.0444317 3 0 -1 
8759 5 0.731888 0.834874 0.0920965 -4 0 -3 
8136 6 0.698602 0.848872 0.0718764 -2 -3 -3 
7307 6 0.880841 0.947528 0.0873507 3 3 -1 
7589 5 0.0384286 0.915018 0.080179 2 0 2 
5884 5 0.719173 0.988424 0.0499949 -3 2 1 
8545 6 0.846099 0.0215924 0.0571339 -1 1 -1 
6841 5 0.0342608 0.0381291 0.0516489 -3 1 -1 
7518 6 0.0680532 0.0588205 0.0447794 0 -1 0 
8997 6 0.787245 0.0713001 0.104724 6 0 -1 
8672 6 0.887348 0.0550725 0.0882605 0 -2 -2 
7998 5 0.426036 0.0806882 0.106102 -1 -3 -1 
5610 6 0.458914 0.0915126 0.0531075 0 2 -1 
7760 5 0.762799 0.0606914 0.102669 2 -2 1 
5483 5 0.960934 0.0779828 0.0303306 -2 -1 -4 
8357 5 0.0960412 0.123689 0.0910829 -1 1 -3 
7928 5 0.693531 0.0871568 0.106625 -2 0 3 
7385 6 0.753132 0.0983857 0.0812571 -4 4 1 
5684 5 0.286618 0.137208 0.0661332 -1 0 2 
6860 5 0.437316 0.153251 0.0935566 6 0 2 
8695 6 0.460303 0.116764 0.0746925 3 -1 0 
7617 6 0.981822 0.142212 0.13743 -1 2 2 
6690 5 0.0479957 0.182765 0.0866135 3 0 -4 
8617 6 0.536106 0.155089 0.0643861 -1 4 -6 
5224 5 0.568411 0.150718 0.0740862 -4 -2 -1 
6569 6 0.83835 0.201351 0.112366 -4 -2 0 
8407 6 0.072233 0.188719 0.0713165 3 -2 -4 
6729 6 0.394788 0.206359 0.107505 -2 3 -4 
7821 6 0.701998 0.253543 0.0808815 -2 5 0 
6831 5 0.0193782 0.260295 0.0576158 2 2 0 
5187 5 0.0403246 0.291774 0.0951818 -2 1 -1 
5780 5 0.465445 0.259242 0.0994522 3 1 -6 
8294 6 0.981964 0.309442 0.0921497 -3 -1 2 
8371 5 0.977723 0.329951 0.0840558 -2 1 3 
8039 6 0.0912391 0.341474 0.0690965 -2 -4 3 
8519 6 0.0770846 0.314728 0.0839124 0 1 0 
5465 5 0.209665 0.338045 0.115171 4 -4 -1 
8412 6 0.470217 0.314544 0.0412943 -4 -1 1 
7230 6 0.129787 0.368213 0.0691665 -6 4 -5 
8121 6 0.240695 0.307302 0.0498042 0 4 -1 
8268 6 0.338488 0.32928 0.0564724 3 5 0 
8939 6 0.26121 0.365685 0.0895502 2 -5 0 
8362 6 0.761913 0.391875 0.104851 -2 1 0 
5145 5 0.834942 0.376569 0.0432053 -1 2 -1 
6587 5 0.0334852 0.368759 0.101678 -3 3 1 
5156 6 0.526619 0.370707 0.0529876 1 -6 1 
7661 6 0.852448 0.428659 0.0553665 -2 2 -5 
5325 5 0.692066 0.42875 0.0720422 -1 -3 -2 
8300 5 0.884385 0.447522 0.0883903 -3 1 1 
7281 5 0.0630479 0.458834 0.0496265 4 -1 -4 
6167 6 0.0684659 0.472911 0.0822692 -6 4 -1 
7396 6 0.106155 0.466907 0.0979382 1 4 -1 
6591 6 0.701598 0.454084 0.0492649 -1 -4 2 
6577 6 0.033777 0.50196 0.0497934 0 0 4 
6448 6 0.578613 0.497075 0.060066 -6 5 0 
6146 6 0.964587 0.533527 0.0676158 1 -2 -2 
5802 5 0.240052 0.521066 0.106501 1 0 2 
7591 5 0.318773 0.505506 0.072529 -2 -2 3 
6221 5 0.518412 0.487116 0.0738388 4 -5 -1 
7143 5 0.871406 0.522391 0.102836 4 -2 3 
8287 5 0.920301 0.55214 0.0937027 -1 2 1 
8507 6 0.988688 0.493601 0.11308 2 4 2 
5492 5 0.0807616 0.551429 0.0475414 -1 -2 1 
6537 5 0.848669 0.545284 0.0664546 6 -5 1 
5797 6 0.333738 0.629352 0.0574658 1 4 0 
8295 5 0.575126 0.608864 0.0739357 0 2 -3 
6193 6 0.145995 0.631696 0.0829707 -1 -2 -2 
7822 5 0.0691745 0.673283 0.0800394 -4 1 0 
5054 5 0.812758 0.656299 0.0702406 -1 2 0 
8865 6 0.031962 0.666559 0.0957586 0 -1 4 
8072 5 0.0170764 0.646876 0.0744326 2 -4 1 
7899 6 0.83312 0.697388 0.068101 -2 0 -2 
6330 5 0.926805 0.699244 0.0558645 1 1 2 
5380 6 0.460496 0.70387 0.103639 1 0 -1 
8003 6 0.603501 0.742844 0.0928266 2 1 2 
7118 6 0.673847 0.677779 0.0813536 4 -4 -6 
7506 6 0.665081 0.672682 0.113361 -5 0 -3 
7846 6 0.2355 0.753683 0.104461 2 -1 2 
6458 6 0.437353 0.75802 0.0930904 1 -2 0 
8633 5 0.343502 0.766422 0.0865236 1 1 6 
6944 5 0.324794 0.803321 0.0612805 -1 0 1 
6408 5 0.188065 0.869526 0.0857348 1 -4 -1 
7227 5 0.163803 0.817672 0.0669661 -4 -2 0 
8644 5 0.209811 0.836489 0.0637009 -2 -1 -5 
6105 5 0.296241 0.861957 0.0850687 1 2 -5 
5295 5 0.202214 0.929518 0.0997485 6 0 4 
8614 5 0.83002 0.909322 0.0869888 1 1 0 
7196 6 0.318124 0.89284 0.0776482 -3 3 3 
8166 6 0.447547 0.91792 0.0969003 -3 0 1 
7542 6 0.701185 0.0142625 0.117902 0 3 0 
6348 5 0.231434 0.0254401 0.0686757 2 0 1 
6471 5 0.814492 0.0645312 0.141716 0 -1 -1 
6228 6 0.0250585 0.992351 0.10105 2 1 -5 
6151 6 0.0466737 0.0620633 0.115663 -1 1 1 
5759 5 0.0627783 0.0256807 0.100727 6 -1 0 
5290 6 0.737798 0.0821194 0.0989411 -4 -2 2 
5766 6 0.240946 0.0999967 0.100225 -2 0 -4 
5971 6 0.702654 0.0819923 0.0913043 0 1 3 
6038 6 0.850595 0.113432 0.081004 1 1 0 
8042 5 0.107373 0.087216 0.123782 5 1 3 
6825 5 0.390114 0.0829464 0.121777 -1 4 -2 
7363 5 0.881773 0.127773 0.121318 1 4 -2 
6928 6 0.31418 0.164017 0.0953629 -6 2 4 
8206 6 0.210179 0.160108 0.0995225 1 -1 3 
8881 6 0.336158 0.170981 0.0969991 3 -1 5 
8261 6 0.642988 0.172196 0.0966019 -2 0 0 
7541 5 0.903721 0.147844 0.140479 -2 2 -1 
6534 5 0.910267 0.175296 0.109545 -5 0 -2 
7178 6 0.836271 0.232571 0.100567 0 0 2 
6076 6 0.390992 0.184379 0.133795 6 4 2 
6785 5 0.598184 0.204894 0.107344 3 1 5 
6794 6 0.806695 0.2137 0.106903 2 -1 3 
7172 6 0.948946 0.247409 0.0789469 -2 0 1 
7440 5 0.35993 0.272366 0.129318 -1 -3 -1 
6558 6 0.459289 0.308948 0.113425 1 1 0 
8406 5 0.530148 0.285946 0.10963 1 1 0 
5625 6 0.371134 0.310212 0.0885658 -3 -7 -2 
7823 6 0.641249 0.287096 0.157277 4 5 4 
5836 5 0.615874 0.312011 0.130674 5 -5 0 
5466 5 0.925939 0.326921 0.098335 -3 0 1 
7726 5 0.907732 0.324134 0.113729 0 -1 2 
6792 6 0.667405 0.337562 0.114671 0 1 0 
8313 5 0.699036 0.340897 0.118987 -6 -2 2 
7915 5 0.905645 0.300004 0.0811047 -3 0 3 
6364 5 0.443112 0.355555 0.0893926 -2 -6 -2 
7550 5 0.451047 0.352989 0.123294 4 2 -1 
7690 5 0.826615 0.346144 0.137501 4 -2 -2 
7490 6 0.927583 0.40181 0.0903158 2 -3 -3 
5241 5 0.894141 0.390425 0.0908475 1 0 0 
7137 6 0.0798541 0.412414 0.104414 -5 -3 -3 
6380 6 0.0941161 0.389511 0.131199 2 6 -3 
8509 5 0.421273 0.408595 0.0918172 0 -3 4 
8065 6 0.466976 0.415021 0.0834809 2 0 4 
5873 5 0.608785 0.399027 0.132869 0 2 1 
5443 5 0.824289 0.353055 0.129875 3 1 3 
6965 6 0.233206 0.432941 0.0636934 -1 -4 -3 
5139 5 0.347869 0.439657 0.102496 -2 2 1 
5792 5 0.516332 0.451621 0.0985108 0 2 4 
8035 6 0.675062 0.442606 0.0966882 -2 5 5 
6467 6 0.786857 0.468512 0.108804 3 -7 -4 
7203 5 0.416884 0.472896 0.095964 4 -1 -4 
8460 5 0.0766573 0.487571 0.0892239 5 -2 -2 
5270 6 0.301269 0.517268 0.128934 0 -3 0 
5251 6 0.414699 0.51921 0.120085 1 5 1 
7423 5 0.804849 0.478353 0.103525 2 -3 4 
8102 6 0.424482 0.504475 0.0625228 -1 0 3 
8900 6 0.42951 0.526688 0.0897976 0 -3 2 
7634 5 0.295028 0.647242 0.100599 1 0 -1 
7834 6 0.165075 0.623117 0.109473 4 -3 -2 
5728 5 0.364665 0.655278 0.136053 -6 3 2 
6158 6 0.910208 0.629029 0.124344 3 0 1 
8673 5 0.111309 0.704816 0.0742762 -3 2 0 
8911 5 0.246028 0.720427 0.0814378 -3 0 2 
7151 5 0.359601 0.728605 0.101451 1 -2 4 
8687 5 0.965096 0.684938 0.113981 -3 -3 3 
7495 5 0.977176 0.718828 0.113675 0 -1 -2 
7580 6 0.981188 0.75261 0.129584 -6 -5 1 
6051 6 0.580884 0.786945 0.0738491 -4 -1 5 
7975 6 0.652083 0.742947 0.0998255 3 -1 0 
6988 5 0.921511 0.739408 0.0927742 1 0 -2 
7142 5 0.449492 0.787249 0.0964349 4 3 4 
8301 6 0.0691902 0.789322 0.0870793 -1 2 6 
5983 5 0.11904 0.804343 0.0909182 2 1 2 
5332 5 0.234945 0.772457 0.0889884 4 -5 1 
7064 6 0.378876 0.783677 0.0977736 2 -2 2 
5311 6 0.501603 0.806176 0.0909596 3 2 -1 
7615 5 0.56453 0.810648 0.120218 -3 -3 -6 
6517 6 0.701906 0.773481 0.102231 6 -2 4 
7415 6 0.0595069 0.810273 0.142775 0 -3 0 
6746 5 0.138497 0.847919 0.099452 3 -4 -3 
5171 6 0.686996 0.829069 0.0920737 3 -1 4 
7993 5 0.881922 0.850052 0.0821715 -1 -8 -3 
7153 6 0.0356433 0.820461 0.100959 -2 1 1 
7649 5 0.0825447 0.801402 0.101517 4 -1 2 
8842 5 0.371105 0.850948 0.114594 -2 1 0 
7618 6 0.215958 0.905911 0.0691197 0 8 3 
8778 6 0.105831 0.905221 0.0665529 0 -4 -4 
8920 6 0.424527 0.895725 0.121533 -5 -2 -2 
6294 5 0.541426 0.946407 0.107158 0 -4 -5 
5866 6 0.061977 0.925456 0.136864 1 3 -4 
8967 6 0.531408 0.897074 0.104907 5 -1 2 
6907 6 0.0665868 0.955896 0.0962086 1 1 0 
7692 5 0.313456 0.942951 0.110298 1 -1 -2 
6765 6 0.465126 0.943378 0.0742609 3 0 8 
8002 6 0.0343874 0.923514 0.135388 -2 4 5 
5292 5 0.0711936 0.979616 0.131039 1 -3 4 
8769 5 0.197664 0.944532 0.099198 5 0 2 
6637 6 0.459045 0.937533 0.104886 -4 4 1 
5725 5 0.440066 0.984562 0.100258 5 1 3 
6919 6 0.775089 0.978172 0.0838968 0 -4 2 
7894 5 0.591016 0.995192 0.0830482 -1 0 -2 
5008 6 0.867869 0.994236 0.121906 1 0 -2 
6669 6 0.223211 0.04385 0.0880603 -7 1 -1 
8910 6 0.655655 0.043304 0.101952 3 -2 2 
8954 6 0.809381 0.0941531 0.111118 -5 1 2 
5451 5 0.930543 0.111478 0.121606 2 -2 4 
6398 6 0.073097 0.124557 0.171059 1 -4 0 
7023 5 0.504495 0.104868 0.12402 2 -5 -6 
5553 5 0.573119 0.0981902 0.0707366 -3 0 -7 
5838 5 0.768366 0.103406 0.138338 -3 -5 3 
8823 6 0.813256 0.0708192 0.11264 -4 -3 4 
6923 5 0.932156 0.116565 0.165221 -2 0 0 
7412 6 0.0806365 0.120594 0.124606 0 4 0 
8573 6 0.171993 0.133436 0.103793 -1 0 -1 
7198 6 0.435864 0.131618 0.13615 -2 4 -6 
6266 5 0.786911 0.112573 0.0793635 3 0 2 
8751 5 0.517762 0.136212 0.122451 1 -1 5 
7751 5 0.506505 0.168527 0.161687 -2 1 5 
6873 6 0.966713 0.173909 0.13709 5 -6 1 
7352 6 0.087739 0.21066 0.123678 0 0 -3 
5721 5 0.594689 0.192218 0.119111 -1 -1 1 
6033 5 0.711537 0.195701 0.102417 -1 4 -2 
8805 5 0.0212859 0.220602 0.128233 1 0 -1 
6574 5 0.149041 0.218038 0.0792802 1 -1 2 
7893 5 0.428742 0.223065 0.120618 -2 -4 0 
6463 6 0.200994 0.294267 0.109009 2 6 -1 
5762 5 0.65967 0.273681 0.168098 -2 2 2 
7714 6 0.931126 0.269336 0.08815 -3 0 -2 
7014 6 0.599296 0.351525 0.11985 0 1 4 
7806 6 0.669785 0.296276 0.109021 -2 -3 3 
7496 5 0.0629292 0.345978 0.126211 -3 1 -2 
6208 6 0.376021 0.364664 0.113063 4 -1 -3 
6969 5 0.740478 0.372197 0.115829 -2 0 -2 
7830 5 0.229192 0.388184 0.132613 1 -2 5 
5333 6 0.395841 0.351046 0.147012 0 2 -4 
8541 5 0.0349511 0.418741 0.0966101 0 -5 3 
6981 5 0.983382 0.445516 0.114955 -3 1 2 
5948 6 0.0916035 0.443201 0.138471 7 -1 -1 
5084 5 0.264479 0.476746 0.145766 2 2 -2 
5847 5 0.274012 0.45897 0.115827 7 -3 4 
5921 5 0.69282 0.43539 0.149374 0 -1 -2 
8454 5 0.415495 0.463537 0.177247 -1 1 -6 
8948 5 0.284503 0.462859 0.149596 -1 2 -4 
8173 6 0.377334 0.520526 0.118359 1 2 -1 
8180 6 0.736677 0.528053 0.109154 -1 4 -5 
5513 5 0.208652 0.52677 0.111738 0 -4 -4 
5221 6 0.477941 0.531916 0.123203 1 1 2 
5794 6 0.813771 0.545152 0.113686 -3 7 3 
6309 6 0.910951 0.538724 0.115243 -2 -2 4 
8464 6 0.347764 0.572176 0.131784 1 -1 -1 
5878 5 0.0747525 0.607765 0.124419 3 1 2 
8082 6 0.698785 0.561175 0.125974 -3 -5 3 
6435 6 0.833693 0.589955 0.116183 -1 2 0 
6150 6 0.283817 0.609554 0.119957 -2 0 4 
8117 5 0.461066 0.60569 0.142982 -2 -3 3 
8306 6 0.174534 0.689281 0.0733655 -3 5 0 
5273 5 0.320172 0.64519 0.105466 -4 1 8 
5363 5 0.502109 0.656308 0.125299 3 2 2 
8302 6 0.512792 0.639469 0.135115 2 -2 2 
7569 6 0.92935 0.714255 0.15483 -1 2 -2 
5811 5 0.627872 0.748251 0.107794 2 1 0 
6846 6 0.689973 0.717883 0.108068 -3 1 -3 
6286 5 0.382317 0.765759 0.12983 -4 0 -1 
5328 6 0.777908 0.767295 0.129371 1 -4 -1 
8529 5 0.115847 0.802962 0.0821422 2 1 -3 
6820 5 0.66943 0.780316 0.0889984 0 -1 0 
5027 5 0.266911 0.816851 0.0786211 2 -2 5 
5536 6 0.731077 0.80361 0.124209 -4 -8 3 
7219 6 0.478075 0.849085 0.143039 1 5 -4 
7588 5 0.357901 0.857837 0.124334 -4 0 0 
7074 5 0.573585 0.850432 0.12328 2 -2 0 
6426 6 0.653004 0.835034 0.125204 2 0 2 
6601 5 0.837645 0.854594 0.0919481 -3 -7 3 
8395 6 0.197611 0.860209 0.13133 0 -5 -6 
6532 6 0.258997 0.884565 0.148303 1 -2 -1 
8820 6 0.00158659 0.885355 0.139762 3 3 6 
7369 6 0.264982 0.8832 0.139833 -1 2 3 
6689 5 0.533026 0.924588 0.0867109 -1 -2 -4 
5886 5 0.729872 0.89561 0.12413 -1 -5 1 
5864 5 0.897069 0.936026 0.125778 -3 2 4 
8400 5 0.437139 0.91865 0.141614 0 -5 0 
5163 6 0.58157 0.905057 0.125328 1 -9 2 
7944 5 0.536575 0.947278 0.142882 -2 5 4 
5931 5 0.105988 0.998234 0.151586 -1 -2 -2 
6789 6 0.576343 0.000588541 0.126086 0 1 5 
5358 5 0.761958 0.966875 0.12197 3 2 -1 
6325 5 0.0347822 0.0296617 0.1479 3 2 -3 
7764 6 0.405098 0.00123222 0.13981 -3 0 0 
5923 5 0.756347 0.986668 0.135083 1 -1 -4 
5024 5 0.254267 0.0201523 0.158338 -1 -4 0 
5635 5 0.987714 0.0426308 0.187858 2 2 0 
8637 5 0.0350375 0.055718 0.13601 -3 -3 1 
6727 6 0.368951 0.0779118 0.162561 5 3 2 
5436 6 0.346154 0.0780382 0.170333 2 0 5 
7375 5 0.457351 0.057564 0.141974 1 1 3 
5010 5 0.412301 0.0300636 0.18278 2 5 2 
7374 5 0.529301 0.06818 0.139528 -5 2 5 
6876 5 0.59975 0.0416169 0.143611 -6 -1 -2 
5025 5 0.561691 0.0943654 0.156297 -1 6 2 
8363 5 0.146275 0.0562357 0.162991 5 3 3 
6667 6 0.479749 0.10441 0.129698 -2 3 4 
8552 6 0.29581 0.141713 0.170232 -5 4 -2 
8732 6 0.305067 0.149803 0.127387 0 2 3 
5416 5 0.846527 0.109371 0.118418 -3 4 -6 
5954 6 0.131862 0.146848 0.145812 -4 0 1 
6523 5 0.558263 0.150865 0.178045 -2 3 7 
5175 6 0.757139 0.177919 0.179559 2 -2 2 
8549 6 0.442452 0.240056 0.176503 -1 -3 -3 
5994 6 0.630892 0.231875 0.169509 3 1 -5 
7243 6 0.7967 0.213533 0.160699 1 2 0 
8740 6 0.0254568 0.196509 0.174349 1 4 -6 
5564 6 0.457095 0.22533 0.149167 -3 -1 -4 
8930 6 0.174116 0.278051 0.102483 -1 3 -1 
8118 6 0.635762 0.287003 0.112874 4 1 -1 
7087 6 0.334537 0.319384 0.159883 5 2 -1 
8819 6 0.37211 0.307197 0.185773 1 3 4 
6772 5 0.531877 0.324884 0.137651 2 4 2 
5729 5 0.270729 0.367896 0.150006 -1 -5 1 
7680 6 0.950068 0.42632 0.127441 -2 1 0 
8335 5 0.501793 0.420806 0.154958 -2 3 -2 
5231 5 0.683351 0.439347 0.176157 -1 -1 -4 
7960 6 0.512222 0.470035 0.157744 -2 3 -1 
7055 6 0.602696 0.453591 0.164429 -2 -2 0 
5688 6 0.0111969 0.469308 0.16856 -1 5 2 
8019 6 0.0201336 0.446046 0.152496 2 -5 2 
5219 6 0.226056 0.491362 0.124812 -3 3 -3 
7063 5 0.750063 0.48481 0.151863 6 -3 -7 
7503 6 0.791613 0.508435 0.136076 1 7 -4 
5789 6 -0.00144366 0.494859 0.155368 0 -2 -2 
8044 5 0.160807 0.529105 0.136487 0 4 -1 
6127 5 0.117014 0.496819 0.158526 -3 -1 5 
5432 6 0.987432 0.543885 0.15817 1 -3 1 
6744 6 0.755958 0.530127 0.164036 0 -3 -7 
7409 5 0.112884 0.541967 0.112367 2 -3 3 
8625 6 0.43286 0.575508 0.142438 -1 -1 0 
7194 6 0.833365 0.593041 0.165079 -1 3 1 
8224 6 0.643933 0.615093 0.128839 2 -2 2 
6604 6 0.737334 0.694835 0.163993 -2 -1 -3 
5751 5 0.913389 0.65345 0.139599 -2 -2 -4 
7778 5 0.483284 0.713436 0.151204 -4 0 -2 
8600 6 0.0514165 0.745516 0.119241 1 2 -6 
7253 5 0.411116 0.748239 0.142459 0 -3 -1 
5756 6 0.595574 0.743819 0.158851 -2 1 -1 
8806 6 0.873222 0.760913 0.15309 -1 1 2 
6320 5 0.457535 0.79488 0.160432 1 -1 2 
7318 6 0.544336 0.866791 0.115175 -1 -1 -2 
8988 5 0.108838 0.8422 0.16755 -2 2 1 
8405 6 0.240119 0.842569 0.0906711 -4 2 3 
7832 6 0.322958 0.864008 0.114015 5 1 2 
7759 5 0.0840738 0.877404 0.139029 3 -2 0 
5662 6 0.783958 0.838085 0.17048 -3 1 0 
8168 5 0.784625 0.906541 0.173785 2 -1 3 
7366 6 0.314336 0.884241 0.183376 2 -3 -4 
8434 6 0.00811583 0.882884 0.134226 3 -1 -1 
6350 6 0.801658 0.918673 0.170342 3 -2 2 
6982 6 0.415543 0.941162 0.154284 -8 -2 0 
6050 6 0.387762 0.93343 0.149114 1 -3 4 
5407 5 0.573663 0.943258 0.139126 -1 0 2 
5666 5 0.811166 0.907937 0.130367 1 1 -4 
7462 6 0.833513 0.932152 0.13991 -2 -1 -1 
5371 6 0.22117 0.971867 0.158664 1 0 -1 
8781 6 0.368049 0.00867654 0.101512 2 -3 -4 
7884 6 0.566761 0.0202486 0.145404 0 0 6 
8613 6 0.580784 0.0163279 0.159835 1 -5 5 
6041 6 0.677875 0.0290121 0.148729 1 0 2 
5620 6 0.689411 0.0410674 0.221691 0 0 0 
7467 6 0.858028 0.0329505 0.161321 3 -4 2 
8047 6 0.991803 0.0471312 0.156247 1 -5 -5 
7348 5 0.413887 0.106921 0.16324 2 1 4 
5003 6 0.546707 0.0614491 0.176517 0 -3 -1 
7807 5 0.800037 0.057885 0.140938 -2 2 -3 
7389 6 0.235877 0.137293 0.140689 2 0 2 
7890 6 0.373902 0.0901426 0.212317 -1 -1 2 
5920 6 0.751418 0.0541797 0.14736 1 3 3 
8645 6 0.0309445 0.104554 0.172558 -2 -2 4 
7605 5 0.944517 0.0990855 0.143522 0 1 2 
8446 6 0.761646 0.123438 0.146582 5 5 1 
5545 6 0.0628404 0.135563 0.176322 0 1 -1 
8329 6 0.355893 0.11954 0.173221 -1 2 -6 
6588 6 0.503157 0.135761 0.130007 -1 2 -9 
7935 5 0.963815 0.164244 0.150073 -1 0 0 
8212 5 0.0308478 0.131159 0.16948 3 7 -2 
6035 6 0.724739 0.188989 0.147901 -5 -2 2 
5197 6 0.788167 0.171819 0.169065 -1 3 -4 
6319 6 0.151075 0.182984 0.149171 1 2 1 
7504 5 0.844875 0.205117 0.176119 0 0 -4 
5906 6 0.135901 0.259311 0.149518 -1 -3 -1 
6327 6 0.244597 0.298954 0.159481 2 -2 3 
7070 6 0.797932 0.405475 0.166892 -2 -4 -2 
5596 5 0.80308 0.385484 0.158268 -1 -1 -1 
8322 6 0.205898 0.410447 0.183062 -1 -4 2 
5815 6 0.400845 0.414078 0.154856 5 -1 0 
8889 6 0.504558 0.399957 0.121076 -1 1 3 
6582 5 0.629625 0.43287 0.155246 -2 -3 -1 
5490 6 0.581028 0.429071 0.187764 2 -1 1 
7238 5 0.174456 0.518091 0.190821 3 -1 1 
5316 6 0.584246 0.476515 0.146165 1 -2 2 
6133 5 0.918927 0.430931 0.161316 5 1 0 
6570 6 0.342801 0.474178 0.180673 0 2 3 
7687 6 0.52284 0.483257 0.164251 -1 0 4 
8760 6 0.992819 0.470035 0.138669 -1 2 4 
6295 5 0.36366 0.543563 0.138911 -2 3 4 
8497 5 0.663017 0.492717 0.172755 2 5 2 
5345 5 0.798496 0.50819 0.189809 -3 1 1 
6961 6 0.815957 0.520985 0.210915 -4 1 2 
6823 6 0.861545 0.490482 0.203875 -3 -3 2 
5893 5 0.815839 0.532275 0.167044 -4 -6 1 
8158 6 0.303227 0.533242 0.146325 -1 2 -1 
6686 5 0.349619 0.539694 0.190698 -6 -4 -3 
8171 6 0.723647 0.519856 0.177211 6 1 1 
6708 5 0.438264 0.568806 0.175257 0 1 -1 
7869 5 0.110104 0.610219 0.204422 -2 5 -2 
5777 5 0.169271 0.579962 0.195616 -2 0 -1 
6595 6 0.318309 0.630977 0.144601 0 0 -5 
5167 5 0.783064 0.594882 0.159219 -1 -1 2 
6233 5 0.0210468 0.663813 0.178846 -2 -2 2 
7761 6 0.220044 0.655707 0.221274 -3 -5 1 
5450 6 0.330241 0.63097 0.177971 2 1 3 
5682 6 0.4743 0.586533 0.143652 -1 0 -2 
8605 5 0.140701 0.639816 0.170076 -6 -2 4 
7768 6 0.0146247 0.672451 0.126248 1 0 -4 
6732 6 0.0979139 0.689336 0.177534 1 -5 -2 
5522 5 0.779147 0.664501 0.171961 0 0 0 
5446 6 0.952562 0.681674 0.132656 2 -2 0 
8591 6 0.764843 0.722596 0.167156 -7 3 -2 
7454 5 0.672555 0.740854 0.170062 8 0 1 
7933 5 0.00778802 0.743425 0.177874 2 2 2 
6006 5 0.376899 0.770888 0.166519 -4 -1 -2 
5916 5 0.632765 0.774255 0.15769 -2 0 3 
7898 6 0.400304 0.838896 0.152309 0 0 2 
7601 5 0.228534 0.777691 0.179814 -1 -3 0 
7078 5 0.617746 0.826488 0.170633 -4 -1 7 
7442 5 0.784024 0.817284 0.163586 2 -4 1 
8411 5 0.201694 0.834704 0.166611 1 0 -6 
5040 5 0.623318 0.81757 0.178546 -1 -3 3 
6241 6 0.804182 0.838703 0.154748 -2 -4 4 
7429 5 0.276843 0.835673 0.173484 -1 1 3 
6428 5 0.0956113 0.866595 0.173763 6 2 -4 
8012 5 0.83912 0.88059 0.182761 -2 1 3 
5313 5 0.275799 0.908555 0.150668 0 1 -3 
8592 6 0.483566 0.887027 0.142965 7 -4 -3 
6955 5 0.437117 0.935038 0.200543 0 -2 0 
5159 6 0.993849 0.970251 0.182732 -4 4 6 
5318 5 0.0320014 0.960873 0.221091 2 0 -2 
5402 6 0.568427 0.992514 0.156048 4 2 -1 
8489 6 0.58513 0.977198 0.130262 -4 -3 -3 
5591 5 0.7221 0.994861 0.218581 3 -1 5 
5965 5 0.00543773 0.00612956 0.198528 1 3 0 
8947 6 0.0671861 0.0395627 0.202022 2 2 3 
8715 6 0.212869 0.0291646 0.20532 -1 -4 0 
7574 6 0.637032 0.0419112 0.18985 0 -1 3 
6578 5 0.725808 0.0652768 0.219024 1 -3 1 
5073 5 0.945481 0.0788763 0.20009 1 1 -2 
8138 6 0.271672 0.0849468 0.193414 4 -6 1 
8457 5 0.352677 0.102173 0.185595 0 0 4 
5153 5 0.360683 0.13388 0.23291 2 -1 -6 
6226 5 0.458736 0.0937603 0.200763 3 -5 3 
5294 5 0.691306 0.0670486 0.180482 -7 -3 1 
6504 6 0.35892 0.152449 0.169454 6 -1 2 
8348 6 0.461836 0.0782641 0.218326 7 2 1 
8218 5 0.28659 0.125105 0.187512 2 -4 -5 