ITEM: TIMESTEP
20000000
ITEM: NUMBER OF ATOMS
9000
ITEM: BOX BOUNDS pp pp pp
-75 75
-75 75
-75 75
ITEM: ATOMS id type xs ys zs ix iy iz 
5516 5 0.226023 0.011609 0.995825 -3 7 -4 
6060 6 0.24324 -0.00114361 0.983591 -2 3 -1 
8760 5 0.0815168 0.0888147 0.00277212 6 4 1 
5012 6 0.896135 0.0407242 0.0071753 -6 3 0 
5229 5 0.0458541 0.0515847 0.0180098 4 3 3 
7635 6 0.9001 0.111128 -0.00121857 -1 -3 5 
7516 5 0.123706 0.0772121 0.00619117 -2 0 -5 
8890 5 0.395592 0.129992 0.0125228 1 1 -3 
5604 5 0.525574 0.0973249 0.0170948 -3 -5 -2 
5363 6 0.775734 0.147492 0.010796 -1 -3 -1 
5184 6 0.423533 0.144701 0.0312061 -1 2 2 
8680 5 0.834575 0.209566 0.984685 -3 -1 -4 
6969 6 0.923468 0.176437 0.977632 0 -6 3 
7985 6 0.538541 0.226001 0.0165587 1 -1 -1 
8411 5 0.0709938 0.254753 0.0102991 0 -4 -2 
8799 6 0.831505 0.29902 0.00537909 2 2 0 
7650 5 0.344601 0.247261 0.041496 0 0 -3 
5927 5 0.758708 0.31521 0.985632 -2 3 -1 
7449 6 0.886448 0.299125 0.0125364 1 5 -3 
7747 6 0.991486 0.301253 0.980947 -1 -2 0 
7647 6 0.0116259 0.308131 0.0322121 -1 -7 5 
6661 6 0.0410905 0.335683 0.0350547 0 6 2 
6599 6 0.0895176 0.320641 0.0415383 -1 3 -1 
6243 6 0.176001 0.29113 0.0398798 2 -3 2 
7898 5 0.740807 0.316463 1.00019 -1 4 -1 
5748 6 0.110036 0.362942 0.010788 -2 0 2 
5261 6 0.97185 0.30975 0.999719 -2 1 2 
5589 6 0.00964681 0.366469 0.0124054 3 2 4 
8637 5 0.251979 0.331557 0.987673 1 -2 -7 
6913 5 0.795009 0.394033 0.0268514 -2 2 2 
5528 6 0.146866 0.396596 0.0135995 -2 1 5 
6212 6 0.38477 0.34912 0.0257428 2 0 0 
6891 5 0.845993 0.335465 0.982191 0 1 1 
6993 5 0.995791 0.360621 0.0255328 1 -3 -4 
5828 5 0.26344 0.400845 0.0214051 0 -5 1 
7222 6 0.401247 0.414879 0.0478013 -3 0 -1 
6918 5 0.624779 0.450562 0.987657 1 5 0 
8580 5 0.995459 0.472965 0.0304467 4 -1 3 
6465 5 0.547267 0.528787 0.0157504 -3 1 -1 
8802 6 0.846495 0.471427 0.0540232 -1 1 4 
8428 6 0.910774 0.513774 0.0109364 5 0 3 
6823 5 0.226163 0.571399 0.0296189 1 1 -1 
8676 6 0.614609 0.567788 0.0493999 -2 -4 1 
5755 6 0.255175 0.621064 0.0228054 4 -3 0 
7079 6 0.964339 0.546793 0.9835 -6 -3 -3 
7202 5 0.137357 0.609722 0.96752 -1 -1 6 
5084 6 0.438479 0.631608 0.0443254 -4 1 -2 
7490 6 0.21301 0.631374 0.974262 -7 0 -1 
6748 6 0.482044 0.600013 0.0235272 -1 4 -2 
8090 5 0.527755 0.635084 0.984179 -1 3 -4 
5360 6 0.705697 0.63239 0.0143824 0 4 4 
6371 6 0.147204 0.631807 0.0236287 2 -1 4 
7056 5 0.87875 0.634934 0.0219342 2 0 1 
5945 5 0.501344 0.647921 0.998006 -3 -1 -3 
8940 6 0.708742 0.697503 0.0384204 3 -1 -2 
6375 5 0.235665 0.743087 0.971486 3 2 -3 
8017 5 0.424541 0.69759 0.968072 -1 0 -2 
7600 5 0.1177 0.713052 0.0176509 2 0 1 
5713 6 0.200888 0.727515 0.0314936 -4 2 2 
8631 5 0.286134 0.73849 0.996189 -2 3 0 
6964 6 0.441318 0.748822 0.0247679 1 0 1 
6186 6 0.703497 0.732228 0.965367 3 -5 3 
5391 5 0.401558 0.789006 0.0774877 0 -1 -4 
6844 6 0.862981 0.825071 0.997558 -2 2 1 
8683 5 0.205292 0.86988 0.98912 0 0 5 
5205 5 0.443494 0.880854 0.993396 1 2 -6 
5912 5 0.757816 0.868908 0.000876214 -3 1 -2 
8897 5 0.965997 0.799895 0.0139044 -1 -2 0 
7777 6 0.0422015 0.866099 0.0216495 -3 1 3 
5834 5 0.637998 0.864506 0.00693144 1 3 1 
8662 6 0.133924 0.863429 0.0321838 0 -3 6 
8826 5 0.236046 0.930081 0.0274088 -4 1 0 
7930 6 0.372337 0.899376 0.993076 -1 2 -3 
6548 6 0.501751 0.875095 0.00520589 -2 1 0 
7957 5 0.586203 0.887254 0.997472 -5 0 0 
8585 6 0.796187 0.89476 0.98828 -2 -5 -3 
6642 5 0.378749 0.889117 0.0205059 4 -3 1 
8651 6 0.0499676 0.947705 0.0519657 1 -1 1 
8176 6 0.668541 0.94051 0.982411 -1 -2 -1 
5968 6 0.353025 0.0382003 0.0222651 2 1 3 
5238 6 0.539814 0.0127803 0.0371387 -2 2 4 
8677 6 0.752598 0.0676918 0.0532259 0 -1 4 
8887 5 0.201691 0.0455966 0.0358295 1 6 -3 
5708 6 0.538929 0.0768878 0.00674819 6 3 3 
8656 6 0.779314 0.0910615 0.0558973 1 3 2 
7933 5 0.0842952 0.106581 0.0305742 0 0 4 
6498 6 0.0448271 0.104115 0.0246114 -1 -3 -7 
7033 5 0.884876 0.132206 0.00726947 2 -4 -2 
8116 6 0.61244 0.149579 0.0596778 1 -8 -2 
6789 6 0.717269 0.143105 0.000829987 -2 0 1 
5375 5 0.159084 0.179716 0.0474043 4 1 1 
7168 5 0.155469 0.237184 0.0318277 -1 1 5 
6729 5 0.413539 0.183508 0.0106304 -1 -1 1 
5756 6 0.073547 0.19968 0.0482148 1 2 1 
6923 5 0.500251 0.213309 0.0207697 3 -2 3 
6445 6 0.884774 0.198069 0.0151914 5 -1 0 
5402 5 0.243112 0.234723 0.0576895 -1 -3 3 
6840 6 0.1812 0.273414 0.042625 -3 -4 4 
6332 5 0.953594 0.253743 0.0428998 -5 -2 2 
6798 6 0.913787 0.255277 0.0263276 -1 4 1 
6723 5 0.757991 0.274709 0.0199326 -1 -3 -1 
5707 6 0.263618 0.299958 0.0599645 -3 -1 0 
8437 5 0.499253 0.308334 0.0438826 0 -4 3 
6353 5 0.573241 0.282322 0.0243156 -1 1 6 
8353 5 0.622562 0.335621 0.00782499 -1 3 0 
5116 5 0.861269 0.352084 0.0435189 0 3 7 
8466 6 0.903753 0.3306 0.0445816 5 3 -5 
7666 5 0.0419444 0.373818 0.99732 0 0 0 
6593 5 0.354458 0.392645 -0.000779884 -3 2 -3 
7679 6 0.724371 0.388474 0.0667175 1 4 0 
6169 6 0.922855 0.435918 0.0114959 2 -2 -1 
6730 5 0.634546 0.467522 0.0411933 -5 -1 3 
5972 5 0.932564 0.473133 0.00995479 -2 -2 3 
5518 5 0.015462 0.49905 0.0545845 0 6 -2 
6304 5 0.646857 0.522902 0.044235 -1 1 0 
5179 6 0.190069 0.513162 0.0183113 -5 -1 1 
7805 6 0.0612072 0.52956 0.998545 -2 4 3 
6479 5 0.709806 0.561705 0.0494622 -2 2 4 
8311 5 0.908754 0.563346 0.999467 -2 2 0 
6192 5 0.987697 0.526007 0.0488607 1 1 1 
6626 5 0.97262 0.608777 0.0524034 -3 1 2 
5318 5 0.161502 0.61973 0.000427642 0 -4 4 
6861 6 0.703297 0.612686 0.0567958 -4 -2 2 
5211 5 0.793243 0.604945 0.0474551 -1 4 3 
7743 6 0.799848 0.618515 0.065685 -4 1 -4 
6778 6 0.310622 0.62164 0.00702566 -3 0 -3 
5278 5 0.745895 0.674242 0.0374967 2 -2 2 
7322 5 0.215361 0.681311 0.0385245 1 -2 0 
6245 5 0.366267 0.694442 0.0288437 3 -2 -1 
8755 5 0.624933 0.672047 0.0436597 0 -3 1 
6827 6 0.683757 0.700765 0.0485549 -2 5 1 
5063 5 0.86192 0.725289 0.0130569 8 -2 0 
5747 6 0.430592 0.7848 0.0592108 2 -4 1 
7800 6 0.472266 0.794641 0.0548111 0 -3 1 
8318 5 0.553524 0.7549 0.0192762 -1 -1 5 
5387 6 0.926336 0.771835 0.0416301 0 -2 -4 
6197 6 0.124258 0.800144 0.0683845 -3 3 0 
8827 6 0.300089 0.797436 0.0206438 -4 0 2 
5171 5 0.507062 0.836713 0.0359951 -1 0 0 
5711 6 0.517433 0.836526 0.0200319 1 -6 -1 
7571 6 0.168026 0.84352 0.0354589 2 -1 -1 
5161 5 0.219347 0.867813 0.0264928 -3 1 0 
5840 5 0.511426 0.910429 0.0337607 -4 -1 3 
6750 6 0.860606 0.890103 0.0170637 3 1 1 
7586 6 0.250353 0.876519 0.0143434 4 4 -3 
7849 5 0.714121 0.879822 0.0149191 0 1 -3 
8994 5 0.802119 0.88607 0.00516657 -2 -3 0 
6702 6 0.172316 0.957201 0.0145667 0 1 2 
5369 5 0.361181 0.923307 0.0268892 4 -3 -2 
7105 5 0.525859 0.936284 0.0440099 1 -2 5 
5519 5 0.807589 0.930618 0.0679408 -3 -6 2 
7092 6 0.943007 0.946081 0.043757 1 -3 1 
5134 5 0.664317 0.934201 0.0747699 2 -1 3 
6105 6 0.0139618 0.995913 0.0328913 -2 -1 2 
5645 5 0.230613 0.975143 0.0629285 4 1 3 
6022 5 0.27138 0.0404072 0.0563996 -4 -2 2 
6370 6 0.570193 0.0227649 0.0844078 -4 -2 -3 
8540 5 0.58229 0.996173 0.072466 -1 0 -2 
6806 6 0.731571 0.0526705 0.0121085 2 3 3 
6428 5 0.91556 0.0128906 0.0460015 -2 2 1 
7326 6 0.203402 0.0817879 0.996797 1 -2 2 
7123 5 0.248335 0.0463127 0.0554466 -5 0 2 
7770 5 0.363322 0.0106349 0.0194772 6 1 -4 
5149 6 0.546525 0.131812 0.0763944 0 2 1 
7835 6 0.543812 0.155819 0.0580093 -2 3 -2 
7626 5 0.710275 0.132093 0.0636864 -3 -2 2 
8980 6 0.817917 0.138211 0.0546916 3 3 2 
7399 5 0.941191 0.178792 0.031478 3 -1 0 
8306 5 0.536841 0.153773 0.0648836 10 -2 -2 
6553 5 0.779656 0.142945 0.0454209 1 -3 5 
5825 6 0.856282 0.158697 0.079705 0 -1 3 
5146 6 0.419427 0.144987 0.08075 4 1 0 
8911 5 0.56016 0.213447 0.0758439 -3 5 0 
6029 5 0.120899 0.266267 0.0418042 3 2 -6 
5175 6 0.202896 0.261289 0.099554 1 -2 3 
5432 6 0.703541 0.258746 0.0596484 -1 1 -1 
8321 5 0.934652 0.233571 0.0198296 3 0 0 
8584 6 0.636539 0.26015 0.0653064 -1 -2 1 
5931 5 0.671526 0.349234 0.0680644 -1 2 4 
5178 6 0.92003 0.281747 0.0606316 -3 1 0 
7826 6 0.376133 0.368727 0.0298562 -2 3 3 
6784 5 0.918838 0.347505 0.0443914 -6 1 2 
7787 5 0.354093 0.360416 0.0231167 0 -1 2 
7035 6 0.63249 0.361946 0.0679281 0 -2 2 
5677 5 0.0153283 0.418899 0.0486176 -5 3 1 
5451 6 0.9516 0.418076 0.0266405 -3 1 0 
7922 5 0.950044 0.3968 0.0799044 8 -2 -4 
8741 5 0.0884537 0.452647 0.0472761 -2 -6 0 
5877 5 0.0869091 0.43603 0.0464556 1 0 4 
8969 6 0.828784 0.498994 0.0159455 -4 -4 2 
5710 5 0.820844 0.478852 0.0551775 -1 1 0 
7312 6 0.877364 0.471409 0.0633262 -1 -1 2 
5595 5 0.0135674 0.469553 0.0590088 5 -3 -6 
6940 6 0.107594 0.47839 0.0763115 -2 1 -2 
6666 5 0.177085 0.501005 0.0577609 -4 -1 1 
8607 5 0.576964 0.468823 0.0823684 -1 -4 -1 
8471 5 0.584386 0.501475 0.0228214 3 0 -1 
5990 6 0.859037 0.510275 0.0704513 1 1 -3 
8946 5 0.117359 0.503438 0.0507403 -4 4 2 
5971 5 0.156097 0.530237 0.0813067 1 -3 3 
6222 6 0.758025 0.527582 0.0734493 1 2 -1 
6447 6 0.0742744 0.545494 0.0460888 1 5 3 
7313 5 0.318114 0.564908 0.06327 -3 2 -4 
6874 5 0.599156 0.502456 0.059804 0 1 2 
7654 5 0.853356 0.557244 0.0868333 4 -1 -5 
5028 6 0.0374 0.551458 0.0777518 3 4 -1 
7739 5 0.918303 0.583212 0.0733776 0 -4 1 
6870 5 0.070951 0.602429 0.071908 0 1 4 
5452 6 0.529016 0.515265 0.0614095 3 -2 0 
6659 5 0.882585 0.575882 0.0192286 -1 -1 -3 
5960 6 0.226182 0.5868 0.0634781 5 2 5 
7569 5 0.238839 0.584428 0.0418855 6 0 1 
8987 5 0.708203 0.587751 0.0488577 1 1 -1 
8062 5 0.1178 0.651857 0.0747988 4 -2 0 
7797 5 0.973999 0.637682 0.0420433 -3 -2 0 
5636 5 0.0619806 0.653648 0.0702728 -5 0 2 
8123 5 0.212045 0.640195 0.0474921 -1 5 -2 
7903 5 0.347539 0.671768 0.00876774 -1 2 -2 
7053 6 0.988824 0.666268 0.0713407 -2 -4 1 
8407 6 0.994238 0.685219 0.0594625 -2 -3 1 
7247 6 0.301794 0.676081 0.0373412 -1 5 -1 
8196 6 0.828764 0.687204 0.0511896 1 -2 -4 
6603 6 0.520703 0.744477 0.0845984 6 0 7 
5213 5 0.965236 0.711254 0.0881835 -4 3 6 
7997 5 0.18991 0.702837 0.0716304 0 -5 2 
7184 5 0.103172 0.772804 0.0796346 2 3 -2 
6044 6 0.641451 0.735541 0.0848456 1 -1 0 
7674 5 0.032552 0.758485 0.0507854 4 -3 -4 
8774 6 0.29632 0.746861 0.0268971 -1 -1 1 
6464 5 0.364894 0.778802 0.062931 -3 6 -1 
8757 5 0.640321 0.786135 0.0706419 -4 1 1 
6561 6 0.195195 0.815469 0.0539411 5 0 -1 
5614 5 0.329729 0.783151 0.0435281 3 -2 3 
5086 5 0.379402 0.785515 0.0628631 4 3 7 
8098 5 0.675051 0.852964 0.047328 4 4 5 
5797 5 0.748597 0.818716 0.0508678 1 1 -1 
8687 6 0.996876 0.881429 0.0926745 0 3 0 
6224 5 0.739107 0.867055 0.0484377 0 0 1 
7532 6 0.845267 0.884648 0.0277448 1 2 -1 
6452 5 0.960586 0.935831 0.0819071 -5 2 7 
5283 5 0.667038 0.948497 0.0955639 2 2 2 
8978 6 0.785317 0.946642 0.081586 -3 4 -2 
5561 6 0.155894 0.985155 0.069509 -3 -2 4 
6090 5 0.839709 0.983024 0.0466086 -3 0 -2 
6237 6 0.909752 0.940165 0.0371373 -2 1 6 
6003 6 0.455189 0.0125454 0.0636666 3 1 2 
7715 6 0.567772 0.963394 0.0829718 -1 0 -1 
5503 6 0.670251 0.012706 0.060244 -3 5 3 
7029 6 0.723899 0.0332508 0.0657991 1 -1 -2 
5070 6 0.583313 0.0412487 0.0970741 -2 3 1 
8745 6 0.728449 0.00407714 0.0694775 2 1 2 
6577 6 0.369287 0.052602 0.091995 1 -2 3 
5804 6 0.126103 0.0773464 0.0661949 3 0 1 
7596 5 0.435921 0.0648035 0.0320251 3 3 -2 
8000 6 0.688708 0.100339 0.115016 0 -1 -1 
5624 6 0.130531 0.0630192 0.0929229 0 3 -1 
6140 6 0.632708 0.104275 0.0851155 -4 3 5 
6439 5 0.476687 0.132491 0.0818419 6 2 5 
7519 5 0.880534 0.119805 0.0883491 -2 3 6 
7070 5 0.418472 0.127098 0.0603167 5 0 1 
6894 5 0.567383 0.172106 0.0292863 0 -4 1 
8949 5 0.879953 0.16356 0.067857 5 5 0 
8091 5 0.103588 0.201212 0.0586082 0 3 -2 
5310 5 0.799865 0.188396 0.0561277 1 7 -1 
8401 6 0.906324 0.16942 0.0551539 -3 6 -1 
5337 5 0.985644 0.217046 0.0694612 -1 0 2 
7351 6 0.713015 0.165609 0.0738341 -1 3 2 
8889 6 0.269682 0.277558 0.105134 2 2 4 
5193 5 0.878328 0.20093 0.0740116 -3 4 2 
7395 5 0.312884 0.271486 0.0658493 -2 1 -2 
7228 5 0.547924 0.239369 0.0913519 -3 -2 0 
7657 6 0.959006 0.265143 0.0657142 1 2 3 
7513 5 0.338603 0.299074 0.0571402 -7 0 -2 
5948 5 0.34886 0.28708 0.0887614 6 0 1 
5251 6 0.658627 0.354521 0.111504 -4 -2 3 
7697 6 0.0360957 0.347909 0.0332379 3 1 0 
7763 6 0.47052 0.354551 0.0652976 -1 3 0 
5556 6 0.0317832 0.366562 0.0611735 4 0 2 
8272 5 0.556927 0.356223 0.107516 0 2 4 
5307 5 0.961608 0.391175 0.0785809 -5 0 1 
5958 6 0.257381 0.411138 0.101202 0 2 0 
7916 6 0.573286 0.430141 0.10286 -3 -3 1 
6468 5 0.954374 0.392347 0.0631607 -5 2 2 
7135 5 0.126192 0.402191 0.0630753 0 4 4 
8870 6 0.924554 0.452966 0.076352 5 3 0 
6024 6 0.751452 0.458117 0.105573 5 -1 2 
8345 6 0.850851 0.439276 0.0944 -2 4 1 
7636 6 0.640572 0.482936 0.086405 3 -2 -3 
6166 6 0.389771 0.471178 0.0533619 -2 -3 1 
7296 6 0.465707 0.518811 0.0984341 -1 2 -2 
5489 5 0.497168 0.48389 0.0773151 0 4 2 
6878 6 0.710049 0.433711 0.0485843 3 6 -6 
6617 6 0.0521795 0.468282 0.08109 -3 -5 2 
5241 6 0.349362 0.560035 0.038894 -3 -2 6 
7713 6 0.629195 0.554631 0.0544688 3 0 2 
7667 6 0.0926348 0.578918 0.070586 0 0 -6 
7575 6 0.523291 0.573382 0.0703042 4 -4 3 
6110 6 0.0222131 0.644485 0.0918789 -4 1 -5 
7369 5 0.458711 0.631302 0.10586 1 -3 3 
7969 5 0.539772 0.61765 0.0367823 -2 -1 -2 
8809 6 0.191121 0.669948 0.0987781 -2 0 2 
7557 6 0.230844 0.65571 0.0903964 0 3 4 
6369 5 0.85155 0.66154 0.0905865 4 0 0 
5277 5 0.108898 0.67443 0.0870578 -1 -4 -3 
7018 5 0.454839 0.716753 0.0658285 6 -3 0 
7454 5 0.0158861 0.767293 0.0892612 3 3 -1 
8810 6 0.0571797 0.746382 0.102461 0 -3 1 
7420 6 0.127432 0.707112 0.0443279 1 4 2 
6794 6 0.393974 0.763968 0.071293 6 -1 -4 
6909 5 0.695514 0.688438 0.0579323 6 4 0 
8971 5 0.43992 0.732707 0.10761 -3 3 2 
8728 5 0.878264 0.779541 0.0968988 2 -2 -2 
7479 6 0.269562 0.777885 0.0753748 -3 -1 2 
7995 6 0.0378909 0.762113 0.0922447 2 -2 8 
7458 5 0.281499 0.774524 0.0953079 1 -5 -1 
8503 5 0.574141 0.776741 0.0885175 -2 4 0 
5502 5 0.292056 0.811936 0.0877359 4 -1 0 
5258 6 0.190533 0.809873 0.0854369 -3 3 -1 
5697 6 0.231272 0.822869 0.0832578 4 -2 -4 
8977 6 0.0263202 0.866865 0.0560965 3 5 -3 
8006 5 0.700845 0.849679 0.0831094 -2 0 0 
5864 6 0.856137 0.872866 0.058938 1 -3 1 
6196 5 0.519596 0.838509 0.092221 1 -1 3 
5475 6 0.55705 0.88027 0.068888 3 -2 1 
8378 6 0.857956 0.88637 0.0762116 -1 -1 2 
5583 6 0.344024 0.914906 0.116251 -5 -1 3 
5887 6 0.864629 0.972716 0.103787 2 -1 1 
5244 6 0.0394424 0.0159605 0.0972837 1 -1 -1 
6526 5 0.415279 0.950988 0.0897838 5 -3 0 
8145 5 0.516452 0.959693 0.0975634 5 -1 1 
7239 6 0.012817 0.942788 0.0974653 -2 -6 0 
5638 5 0.173713 0.959151 0.0603169 5 -3 1 
8932 6 0.664235 0.983635 0.100899 1 0 3 
5162 6 0.772091 0.0415881 0.0949456 -1 -1 2 
7031 6 0.42247 0.0292541 0.0960849 6 1 0 
8151 6 0.608775 0.016143 0.10307 3 -3 0 
6402 5 0.941276 0.0716707 0.0715789 0 -1 -1 
8232 5 0.455251 0.111965 0.0857699 0 5 6 
7129 5 0.572542 0.0731811 0.107239 6 -2 6 
6934 6 0.811415 0.094554 0.0790943 2 3 -1 
6555 5 0.808726 0.0972032 0.103555 -1 5 1 
7324 5 0.576252 0.0993922 0.0959588 -7 -3 0 
7090 6 0.802713 0.0951357 0.0883926 0 3 2 
6579 6 0.943444 0.123041 0.0959617 -2 0 -2 
5096 6 0.713535 0.193945 0.0842363 5 1 3 
5962 6 0.742278 0.212971 0.129225 -4 4 -4 
5065 6 0.363696 0.200615 0.074735 6 1 0 
5754 6 0.875132 0.213635 0.13124 1 1 4 
8159 5 0.660582 0.268649 0.13596 3 5 1 
7036 5 0.827873 0.275639 0.0965012 -3 4 -2 
5791 5 0.0333637 0.22428 0.0798901 7 3 8 
7248 5 0.215176 0.302189 0.0951398 3 4 2 
6269 6 0.741329 0.288211 0.103552 2 -4 2 
7309 6 0.0352377 0.30317 0.127384 -1 0 -3 
8624 5 0.0524331 0.297024 0.0903411 -2 -1 -2 
8898 6 0.384468 0.29837 0.110333 -3 1 3 
5999 5 0.385702 0.258932 0.108444 -4 7 4 
7396 5 0.462221 0.280868 0.0746259 -1 5 0 
5600 6 0.515034 0.32009 0.0762172 3 4 5 
8869 6 0.166252 0.326968 0.104427 -1 0 -2 
6724 5 0.812526 0.311416 0.123836 2 -2 0 
5766 5 0.53718 0.34742 0.100994 -2 0 1 
5893 5 0.624764 0.313844 0.113255 -1 -3 3 
5228 6 0.265179 0.348449 0.0908202 3 0 -7 
7642 5 0.41068 0.370093 0.131985 -5 -3 4 
7259 5 0.463568 0.365372 0.0833215 0 1 -2 
7593 5 0.729814 0.334258 0.107275 -5 1 0 
5833 5 0.75052 0.398568 0.118332 1 -1 -3 
8545 5 0.835597 0.409432 0.11225 3 4 2 
7462 5 0.372524 0.398616 0.108486 2 -9 1 
7128 5 0.193594 0.45759 0.0900818 3 -2 -3 
8645 5 0.394728 0.391111 0.0979996 2 -3 -3 
5353 6 0.518271 0.435316 0.0635545 -1 -4 0 
6397 6 0.143176 0.443932 0.0723528 -4 -1 8 
8477 5 0.759435 0.410257 0.112123 -3 3 0 
5282 5 0.667429 0.504702 0.0734723 2 -2 2 
6690 6 0.313726 0.500252 0.0779197 -1 3 4 
7050 6 0.725966 0.483201 0.0977917 -2 1 -3 
8465 5 0.799004 0.574629 0.107916 -2 -2 1 
7285 6 0.206815 0.582186 0.138002 2 8 -6 
8001 6 0.198649 0.576553 0.1069 -3 -3 -5 
5885 6 0.258185 0.59156 0.107103 -1 -5 0 
8893 5 0.737662 0.567039 0.0808972 4 5 1 
6817 5 0.684418 0.559814 0.0823101 -2 -5 -4 
8694 6 0.97251 0.563295 0.101491 5 -4 -2 
8881 6 0.191789 0.630631 0.0851875 3 -2 3 
5124 5 0.395408 0.607347 0.0987268 -5 -4 0 
8016 6 0.35016 0.62137 0.0719655 2 0 3 
8076 6 0.504303 0.64753 0.102541 1 -6 2 
6685 6 0.783074 0.66911 0.158929 4 0 3 
8485 5 0.617681 0.681754 0.0643239 1 1 -2 
5368 5 0.727952 0.70166 0.0914681 -2 -6 3 
7624 6 0.591962 0.698526 0.116013 4 2 -1 
8214 6 0.0131292 0.739619 0.100084 2 5 -1 
5343 6 0.103976 0.710404 0.101131 -1 4 0 
8044 5 0.232277 0.727274 0.0733649 -1 -1 1 
8285 6 0.484015 0.709487 0.10517 12 -1 -2 
7979 5 0.609529 0.668589 0.0855141 5 3 2 
7794 6 0.35794 0.754388 0.103174 2 2 6 
8177 5 0.829743 0.740203 0.104559 5 1 6 
5097 6 0.995466 0.728917 0.0473549 0 -5 3 
5210 5 0.57395 0.762251 0.113091 1 -4 2 
8508 5 0.829993 0.8157 0.109107 0 -1 -3 
6560 6 0.239232 0.825663 0.0813328 3 5 0 
5959 6 0.573366 0.81705 0.0932899 2 1 2 
5037 6 0.471478 0.850318 0.0923131 2 2 -2 
7459 5 0.533077 0.84471 0.102268 -4 3 -1 
6163 6 0.705932 0.867459 0.126347 -7 1 -2 
8727 5 0.840776 0.915261 0.0902379 -5 -6 -2 
5724 6 0.0316237 0.932319 0.12007 -3 3 2 
5739 6 0.178283 0.939395 0.065489 1 0 3 
6692 5 0.823283 0.924168 0.130627 1 3 2 
6774 6 0.164212 0.923775 0.0806592 -7 -3 5 
6218 5 0.658522 0.933666 0.163751 -3 0 -1 
7945 6 0.666869 0.981281 0.093715 1 3 3 
7788 6 0.734196 0.982533 0.100097 1 1 1 
6910 5 0.130872 0.950084 0.0742841 0 1 2 
8488 5 0.269436 0.952309 0.10642 5 -2 -6 
5209 6 0.685098 0.0137416 0.123387 1 2 2 
6097 5 0.099141 0.993104 0.12718 1 3 5 
6946 6 0.986157 0.0238312 0.14408 1 3 1 
6725 5 0.498275 0.0242366 0.115865 2 -4 0 
8923 5 0.490935 0.00279432 0.117801 0 0 -2 
5943 5 0.440613 0.0761796 0.131846 -2 1 2 
6429 5 0.599783 0.0708892 0.166141 1 2 4 
7584 6 0.616101 0.0418085 0.118843 -4 -3 3 
8616 5 0.423313 0.0479029 0.132636 -2 -4 -5 
8086 5 0.439125 0.0631401 0.116203 -3 -1 6 
8671 5 0.0538386 0.12895 0.148206 3 -2 0 
6902 6 0.753414 0.0425507 0.138681 3 -2 4 
5976 5 0.26397 0.0989554 0.170575 -1 0 -4 
7934 5 0.951466 0.116037 0.136349 4 -3 4 
6683 5 0.218798 0.141333 0.145214 3 -2 -2 
7354 5 0.77319 0.141635 0.129143 0 1 -3 
6306 5 0.0291867 0.18464 0.120465 0 4 -1 
5669 5 0.059512 0.195171 0.137715 4 -5 2 
5511 5 0.509842 0.192653 0.127947 3 0 3 
8570 6 0.815437 0.223444 0.0828478 -5 1 1 
5663 6 0.172967 0.195459 0.104085 -4 5 -4 
7578 5 0.599068 0.233736 0.118633 0 2 -1 
6226 6 0.00937357 0.291142 0.168859 2 -7 0 
5811 6 0.428241 0.242545 0.14609 5 -3 1 
8181 5 0.427131 0.304299 0.139862 2 0 -3 
8567 5 0.658847 0.296939 0.133985 -1 1 4 
7762 5 0.687063 0.280639 0.150219 3 -3 -2 
7100 6 0.478953 0.33179 0.114332 0 -2 -3 
5019 5 0.648964 0.346111 0.125166 1 2 0 
7111 6 0.501612 0.348733 0.12199 -1 -6 -3 
5027 5 0.701362 0.319244 0.137631 2 0 -3 
8041 6 0.829307 0.361542 0.105292 5 -3 1 
6822 5 0.477894 0.368735 0.0896647 5 2 0 
6869 6 0.523144 0.354549 0.153285 -2 3 1 
8593 5 0.658715 0.32752 0.122126 -3 1 2 
8373 6 0.395848 0.400883 0.131228 -1 1 -1 
6925 6 0.42242 0.442729 0.114257 -2 3 0 
5524 6 0.858202 0.477106 0.0781525 -4 0 -3 
5646 6 0.60898 0.529328 0.104398 -6 2 3 
5314 6 0.942343 0.519945 0.156188 3 -3 7 
7068 6 0.526437 0.541807 0.134563 1 -5 -1 
8307 5 0.0230748 0.584069 0.146706 -4 -6 -1 
6002 6 0.822898 0.551679 0.16684 0 1 5 
7671 6 0.901168 0.524717 0.133782 -4 -3 0 
5206 5 0.169923 0.585743 0.134926 2 0 5 
8756 6 0.876208 0.606415 0.115318 -6 0 -1 
5115 5 0.538103 0.538301 0.151107 5 -1 0 
7040 6 0.60677 0.626751 0.103083 -3 1 0 
8738 6 0.527123 0.651647 0.127433 -2 -1 2 
7283 6 0.545205 0.620418 0.114229 2 1 1 
6529 6 0.937419 0.624618 0.104055 2 1 4 
7982 6 0.287996 0.681997 0.131439 1 2 0 
6608 6 0.264057 0.648703 0.148519 2 6 1 
6908 5 0.280848 0.654057 0.113671 1 -6 -5 
7243 6 0.346119 0.636827 0.157323 -2 -1 1 
8204 5 0.475978 0.697466 0.141827 1 3 2 
8393 5 0.719731 0.676298 0.15654 -1 -2 -1 
5066 5 0.757193 0.647901 0.107961 -6 -1 -2 
5181 5 0.399767 0.745585 0.137149 2 -2 -5 
7358 5 0.58145 0.705617 0.123548 4 -7 2 
8037 6 0.507531 0.722673 0.144193 1 0 6 
6508 6 0.713519 0.727553 0.14086 0 -1 2 
7543 5 0.846753 0.712743 0.11594 -3 -2 0 
6705 5 0.933098 0.820136 0.159653 -2 -5 2 
8689 6 0.179402 0.803191 0.101939 3 0 4 
7189 5 0.273231 0.847435 0.0962977 0 -2 -2 
5606 6 0.616736 0.785649 0.118766 2 -2 1 
7622 5 0.721991 0.851578 0.110818 2 4 1 
6395 5 0.0377909 0.875347 0.119876 4 1 -2 
5262 6 0.287883 0.857347 0.124566 5 1 1 
8309 5 0.28205 0.86611 0.0957717 -1 0 -4 
8873 6 0.927495 0.879028 0.155878 -3 -3 1 
6129 5 0.787507 0.865341 0.149204 0 -1 0 
7598 6 0.226595 0.903881 0.0944323 4 1 1 
7871 5 0.339051 0.945459 0.128883 -5 -2 -1 
5560 6 0.432403 0.927476 0.144679 -1 1 3 
7414 6 0.643301 0.946297 0.113503 4 -3 1 
8164 6 0.671323 0.934165 0.144848 4 1 0 
7670 5 0.0817528 0.932658 0.117204 3 -3 1 
8660 5 0.126081 0.940663 0.129394 -6 -2 3 
7964 5 0.330729 0.937928 0.0988703 -2 -1 2 
5768 5 0.426104 0.943267 0.14276 4 -3 6 
6984 5 0.803406 0.912381 0.124335 -5 -2 3 
7415 5 0.257588 0.933581 0.140243 -4 -2 4 
8089 6 0.145577 0.981564 0.0821888 1 2 -1 
5361 5 0.66267 0.996022 0.162447 2 1 2 
8492 5 0.165437 0.0248092 0.114384 0 1 4 
7003 5 0.919223 -0.000189245 0.131175 -1 -1 2 
7444 6 0.998175 0.0516148 0.171581 -7 0 1 
7334 5 0.508052 0.0411263 0.149244 -5 0 -3 
6505 5 0.270292 0.0725219 0.120331 5 3 1 
5338 5 0.894807 0.100814 0.168458 -2 -2 -2 
8550 5 0.964926 0.0968303 0.146774 2 -2 -5 
5418 6 0.658123 0.118982 0.171259 -3 2 6 
8199 5 0.17283 0.133726 0.149378 3 -1 -1 
6743 5 0.272182 0.15121 0.120421 -1 -2 2 
8141 5 0.0311968 0.163646 0.162316 0 2 -1 
5816 6 0.898769 0.164276 0.124771 -2 1 4 
8225 6 0.0953866 0.180583 0.110475 3 4 2 
5348 6 0.68824 0.170112 0.161556 -8 1 1 
7884 5 0.677332 0.234424 0.124816 0 2 -1 
7122 5 0.306745 0.267594 0.129441 2 5 -2 
5831 6 0.191664 0.287187 0.11261 -4 -5 1 
8405 6 0.332002 0.262813 0.177064 3 -1 1 
5254 5 0.542603 0.268101 0.117194 -5 1 5 
6466 6 0.552637 0.280777 0.174557 -2 -3 -1 
6509 6 0.976695 0.263053 0.156016 -2 -5 1 
8742 5 0.622771 0.271957 0.142236 1 -2 0 
8462 6 0.137573 0.297332 0.179653 0 0 5 
7303 5 0.521238 0.313421 0.152307 -2 -4 -5 
5539 5 0.210953 0.324911 0.162758 2 -3 1 
8160 6 0.515658 0.309364 0.138308 3 3 1 
5207 5 0.924329 0.322171 0.174814 0 0 3 
7014 6 0.119963 0.344028 0.136526 4 2 -1 
7315 5 0.183127 0.333503 0.167517 -2 2 -5 
8625 6 0.534329 0.373575 0.14112 1 -8 5 
7521 5 0.49034 0.380909 0.148329 -3 6 1 
8289 5 0.784634 0.359183 0.122889 1 -3 0 
7289 6 0.0280815 0.453326 0.143876 -6 -1 -3 
6339 5 0.137223 0.444128 0.122083 0 -5 -3 
8329 5 0.16483 0.437488 0.162908 -6 -3 -5 
6475 6 0.285707 0.443522 0.153147 3 5 3 
7028 5 0.344687 0.480007 0.161406 -4 1 1 
6924 5 0.570877 0.403024 0.130964 -5 0 1 
6256 5 0.731597 0.447573 0.13023 -2 -2 0 
5267 6 0.998211 0.448719 0.163145 4 -3 5 
7852 6 0.621337 0.454781 0.130745 1 -1 -3 
8069 6 0.328605 0.524854 0.145979 -4 0 1 
5057 6 0.64719 0.517091 0.172059 -2 2 4 
8514 5 0.351931 0.544569 0.142225 -6 -1 7 
6912 5 0.030543 0.535365 0.146523 2 -1 3 
5018 5 0.277965 0.595353 0.141871 -3 3 -2 
5635 6 0.460493 0.544085 0.158699 1 -2 2 
7441 6 0.54903 0.546867 0.135662 3 -1 0 
7074 6 0.306451 0.58288 0.129692 -2 5 3 
7758 5 0.442108 0.636792 0.165329 -1 -3 -3 
6664 6 0.423822 0.604101 0.172828 2 2 1 
8400 6 0.452894 0.597662 0.118434 -1 2 -3 
5695 6 0.0308906 0.675572 0.180312 2 3 1 
8840 6 0.620452 0.62026 0.149521 -3 0 -2 
6678 6 0.448391 0.631236 0.184316 2 -1 -2 
5483 5 0.293896 0.700216 0.152532 -2 4 7 
7700 5 0.707957 0.689924 0.161731 4 3 0 
6297 6 0.915242 0.709823 0.156867 5 -4 0 
6530 6 0.85447 0.694363 0.128799 -3 -6 -2 
8803 5 0.153452 0.729956 0.12901 -4 -3 -1 
8336 6 0.312354 0.718748 0.128425 5 -2 0 
6911 6 0.815041 0.747256 0.171934 -5 -3 0 
6275 5 0.15621 0.787845 0.184906 -1 0 -5 
8007 6 0.240288 0.741758 0.139259 4 -1 -3 
8211 5 0.398728 0.739664 0.150169 -2 -4 -3 
7447 5 0.448056 0.763172 0.180585 -1 -1 1 
6194 6 0.185528 0.787647 0.16343 0 -1 0 
7485 6 0.176392 0.80978 0.115019 -6 -7 3 
7185 5 0.262787 0.764827 0.151706 -1 3 -2 
8262 6 0.791219 0.803727 0.148606 -2 3 -2 
7359 5 0.642544 0.850878 0.174461 5 -1 -1 
5612 6 0.908492 0.873606 0.145316 1 1 4 
6200 6 0.341603 0.902878 0.161399 0 3 0 
7405 5 0.856419 0.930625 0.1374 -3 0 2 
5365 5 0.0940822 0.926452 0.141257 0 1 -2 
7016 6 0.0216894 0.917977 0.135247 0 2 -2 
5765 6 0.221994 0.96901 0.159158 5 0 -2 
8692 5 0.335904 0.993678 0.169964 -2 -4 -1 
6547 6 0.973462 0.00994395 0.16036 -6 -2 -1 
8950 5 0.987273 0.973921 0.131464 -6 2 3 
6069 6 0.918281 0.943225 0.160256 3 -7 -1 
5832 5 0.976044 0.969276 0.155644 5 -1 2 
5821 5 0.63331 0.048484 0.178223 -3 0 0 
7012 5 0.602036 0.0496874 0.150673 3 5 0 
8046 5 0.169645 0.0826984 0.169617 0 -1 7 
5735 6 0.0652918 0.116486 0.189419 -2 1 1 
5417 5 0.233675 0.128966 0.152111 -1 -3 3 
6489 6 0.318079 0.118579 0.201794 2 0 -3 
5679 6 0.495858 0.138986 0.187587 -3 1 0 
6960 6 0.222923 0.180307 0.187693 -1 3 4 
5588 5 0.300278 0.144677 0.160529 5 6 5 
5041 5 0.793998 0.148337 0.148799 0 0 2 
6756 6 0.815983 0.133257 0.176591 -2 0 4 
7811 5 0.429262 0.205835 0.137558 -5 5 1 
7022 6 0.603064 0.151913 0.130065 -3 -5 -3 
7816 6 0.671497 0.219192 0.155167 -2 -3 5 
8961 5 0.862019 0.156864 0.164622 0 2 2 
6457 6 0.951825 0.185123 0.193429 2 5 2 
7331 5 0.249561 0.210809 0.155066 -3 -4 1 
7528 5 0.518392 0.2159 0.150646 1 3 0 
6605 5 0.790742 0.22105 0.203756 1 1 4 
8339 6 0.898987 0.227408 0.180142 1 2 4 
6111 6 0.0268138 0.227057 0.172303 2 0 0 
5420 6 0.0950949 0.248755 0.169275 1 1 -2 
8549 5 0.145307 0.230067 0.168328 0 -3 0 
6025 5 0.29375 0.228289 0.145429 4 4 -6 
5173 6 0.372522 0.222618 0.190596 -2 -1 3 
7972 5 0.912449 0.282469 0.18917 0 -3 0 
6399 5 0.814216 0.288476 0.153999 0 1 2 
6148 5 0.310381 0.334178 0.194534 4 -4 2 
6574 5 0.284631 0.300854 0.146208 0 -4 -1 
6381 5 0.33886 0.313891 0.182557 1 6 -3 
6773 6 0.369961 0.312692 0.148285 4 1 -4 
5284 5 0.646951 0.343767 0.179997 -7 1 0 
8906 6 0.431058 0.386351 0.149156 0 -1 1 
5575 5 0.576767 0.387163 0.216502 0 -2 0 
7004 5 0.786742 0.377084 0.172876 1 3 4 
5060 6 0.0327987 0.37846 0.150182 2 2 -3 
8947 6 0.494269 0.414957 0.181463 -3 -3 2 
6726 5 0.516751 0.383852 0.178006 -4 -2 -3 
7116 6 0.938941 0.404232 0.222913 2 -1 -4 
7611 5 0.607862 0.401322 0.17988 4 -1 -1 
7793 6 0.780404 0.410923 0.170205 -1 -1 -4 
5689 6 0.173633 0.455626 0.116459 -2 -5 0 
7058 5 0.367832 0.425882 0.131982 5 -2 2 
6712 5 0.588651 0.453736 0.175766 0 6 -5 
5235 5 0.931522 0.412985 0.185489 2 -1 -2 
6517 6 0.589464 0.454016 0.167379 7 0 2 
7962 6 0.948923 0.511183 0.190407 -6 2 5 
7298 5 0.196546 0.507187 0.178548 2 2 4 
7350 5 0.32006 0.522564 0.146321 -2 -1 3 
7556 5 0.594907 0.534528 0.148519 -2 -1 3 
5247 5 0.896652 0.518017 0.182006 1 -3 6 
5394 5 0.360447 0.562495 0.181118 4 -2 1 
5332 5 0.502956 0.525042 0.182954 4 -1 4 
5692 5 0.543503 0.542468 0.192834 0 0 1 
5845 5 0.660566 0.577603 0.119943 1 -3 1 
7834 6 0.694421 0.588338 0.173448 -4 4 4 
7890 6 0.801787 0.602668 0.191063 2 -1 4 
7549 5 0.588531 0.581058 0.189541 0 3 1 
7225 6 0.781788 0.583533 0.173362 5 2 -2 
5810 6 0.210447 0.656799 0.164758 -2 -1 -1 
7419 5 0.405901 0.653928 0.169887 -3 5 2 
5619 6 0.658613 0.716311 0.224399 -5 -1 4 
7597 5 0.00509872 0.721466 0.156216 4 1 -3 
8747 5 0.690647 0.755974 0.188455 -5 0 0 
7264 6 0.617274 0.751068 0.177918 3 1 3 
5371 5 0.220482 0.813917 0.184001 0 -1 0 
5788 5 0.362164 0.794777 0.158277 -3 5 -5 
8691 5 0.772969 0.763143 0.207677 2 0 6 
8563 6 0.870679 0.780172 0.15512 1 0 0 
8838 5 0.0661518 0.798703 0.172482 -1 -4 -1 
5347 6 0.177384 0.825505 0.179804 5 -3 -3 
7971 5 0.423372 0.795271 0.160993 -5 5 1 
8185 5 0.02953 0.851552 0.161193 -3 -5 -1 
6889 5 0.328997 0.833693 0.163718 2 3 1 
8790 5 0.0463583 0.878908 0.205723 -3 2 -3 
5495 6 0.565463 0.901869 0.177514 0 1 -4 
7300 5 0.0855826 0.898691 0.141393 -2 4 -4 
7389 5 0.0824327 0.887602 0.174053 -1 1 0 
8042 6 0.593844 0.920901 0.143801 4 -1 -3 
5623 5 0.746866 0.905163 0.211024 -1 -2 5 
8455 5 0.0512698 0.87268 0.167748 -2 0 4 
7499 5 0.16932 0.868818 0.181374 0 -4 -5 
5473 5 0.436179 0.927615 0.175944 0 2 -2 
8714 6 0.433384 0.938321 0.166008 2 0 1 
7872 6 0.534884 0.912658 0.188793 0 4 1 
6781 6 0.843106 0.913627 0.165146 -3 -6 -2 
6387 5 0.903223 0.96682 0.182259 0 3 0 
5469 5 0.957094 0.962062 0.18171 4 -4 2 
8541 6 0.387024 0.949838 0.162944 1 -1 -1 
7714 5 0.435747 0.933086 0.149291 -2 0 4 
8128 6 0.710597 0.974471 0.185969 -1 -1 0 
7585 6 0.585989 0.0107718 0.195291 1 1 -2 
7286 5 0.583017 0.99913 0.207254 5 -2 -3 
5930 5 0.697432 0.00404679 0.212738 3 2 4 
8505 6 0.755963 0.0272616 0.19686 -1 2 2 
8796 6 0.327598 0.0323972 0.182861 -3 4 -2 
5873 6 0.315666 0.029579 0.177804 -2 3 0 
8999 5 0.56025 0.0442647 0.156756 1 -2 -4 
7357 6 0.565059 0.0469314 0.206913 7 1 -4 
6043 5 0.605519 0.0932339 0.20221 -1 0 0 
8340 5 0.723697 0.0466402 0.176226 -3 1 1 
7209 5 0.85084 0.0453086 0.182248 4 3 -2 
7511 5 0.920829 0.0506368 0.186192 -1 -2 -1 
7217 6 0.525226 0.0927828 0.230542 2 1 5 
8305 5 0.597334 0.0870004 0.179042 0 -2 1 
5550 6 0.699908 0.0966271 0.174442 -1 -1 -1 
6708 6 0.736087 0.093943 0.198164 2 -1 1 
8791 5 0.876532 0.0550072 0.216678 1 1 -3 
7501 5 0.890909 0.0770648 0.234648 0 2 0 
7948 6 0.973677 0.0875524 0.206569 1 -5 0 
5201 5 0.422625 0.132901 0.176604 3 -4 1 
5809 5 0.678288 0.111811 0.187881 4 0 4 
7784 6 0.788655 0.0858193 0.214458 -2 -1 -2 
5461 5 0.0232071 0.0945728 0.162298 -1 -1 4 