ITEM: TIMESTEP
20000000
ITEM: NUMBER OF ATOMS
9000
ITEM: BOX BOUNDS pp pp pp
-75 75
-75 75
-75 75
ITEM: ATOMS id type xs ys zs ix iy iz 
7528 6 0.151452 0.985855 0.022019 2 -6 -3 
8717 6 0.403217 0.00656959 0.00658573 1 -4 1 
6835 5 0.696241 0.00467608 0.024587 -5 -5 -2 
5232 6 0.448323 0.0393018 0.0294408 -4 -3 6 
8540 5 0.705858 0.0250074 0.0250057 1 -2 -5 
5175 6 0.989087 0.0458828 0.0344983 1 -2 -1 
7770 5 0.59693 0.0807415 0.0423739 0 -2 -3 
7381 6 0.718251 0.0479466 0.995113 -2 -2 4 
5916 5 0.43091 0.0777562 0.984642 0 4 2 
8185 6 0.476508 0.0737174 0.992978 -1 -2 -6 
5588 5 0.302825 0.10547 0.971122 1 -2 0 
6479 5 0.383108 0.098464 0.996109 -2 -3 1 
5215 6 0.367149 0.0886494 0.9974 -1 2 2 
8909 6 0.58186 0.0984831 0.0223008 3 0 2 
8404 5 0.110444 0.150009 0.037028 -1 0 5 
8793 5 0.30793 0.0827823 0.0137849 4 2 -2 
5447 6 0.884699 0.124407 0.00121248 -1 -2 -2 
6621 5 0.222484 0.128096 0.0190033 -1 -1 -5 
5998 5 0.281889 0.171857 0.0282795 3 -5 1 
6212 5 0.0795535 0.227788 0.00542694 -1 0 -2 
7311 5 0.349338 0.198243 0.00732774 -1 -4 1 
7500 6 0.947979 0.230717 0.973094 -6 -3 0 
8790 5 0.395922 0.229869 0.0259382 -1 3 -4 
8679 6 0.972496 0.239235 -0.00135576 3 -2 5 
8803 6 0.0923654 0.304822 0.0122251 2 2 1 
5587 5 0.374316 0.269721 0.980676 0 0 4 
6989 6 0.396031 0.239901 0.0137082 -2 0 4 
6259 6 0.384682 0.335202 0.973151 5 -2 1 
8377 6 0.752007 0.311818 0.979151 0 1 -1 
6516 5 0.995915 0.308982 0.987589 2 0 1 
5601 6 0.63187 0.307886 0.993976 -2 0 4 
8239 5 0.78735 0.329173 0.0492392 0 3 -1 
8138 5 0.903247 0.302756 0.00109156 -3 1 -2 
6920 6 0.035261 0.388828 0.0453584 3 2 5 
6161 6 0.260098 0.337933 0.0209094 -1 1 -3 
6452 6 0.275571 0.324844 0.00889799 0 -2 -2 
5367 6 0.412609 0.377586 0.0179291 -2 3 2 
6917 6 0.516995 0.425913 0.00685027 3 2 2 
7255 6 0.852187 0.403089 0.0184015 -2 -6 2 
7371 5 0.0947931 0.383819 0.999431 3 1 -3 
6850 6 0.209932 0.431805 0.0207781 4 1 -2 
6734 5 0.173061 0.453651 0.976759 2 -2 2 
8320 6 0.68033 0.410427 0.0239046 -2 2 2 
8636 5 0.898232 0.465167 0.00923869 -4 -3 6 
7826 6 0.137205 0.419009 0.0274445 0 1 -4 
5325 6 0.744412 0.43392 0.988718 1 -1 3 
2580 1 0.470958 0.4894 0.996812 0 0 0 
2577 1 0.470075 0.498319 0.995326 0 0 0 
2578 1 0.470633 0.496288 1.0014 0 0 0 
8094 5 0.515417 0.509364 0.0328253 5 -1 2 
8861 5 0.831781 0.530087 0.0259385 -2 -5 -2 
5717 6 0.97915 0.54029 0.98703 -1 -1 4 
5553 6 0.0663335 0.534088 0.971249 2 -1 0 
7380 5 0.458392 0.519796 0.00435015 -3 -3 -1 
7859 6 0.0798319 0.544512 0.0181301 4 -4 -1 
8682 6 0.659005 0.547319 0.0220249 4 -1 -1 
5489 5 0.884202 0.560115 0.0220985 1 0 2 
8385 6 0.476195 0.647395 0.0146474 1 0 3 
8424 6 0.495627 0.624155 0.0469604 1 -1 2 
8370 6 0.667686 0.664629 0.975602 -2 -2 -4 
6010 5 0.801928 0.625638 0.0371739 -4 -2 2 
6890 6 0.420882 0.717289 0.976869 -3 1 -4 
7556 6 0.6581 0.692723 0.0404352 -3 2 6 
7213 5 0.209206 0.740282 0.00560365 -1 2 4 
7129 5 0.865773 0.703359 0.0100653 -5 2 -1 
7214 6 0.904527 0.721344 0.98256 -2 10 1 
6968 5 0.0559229 0.750063 0.0360585 -4 -2 -1 
6461 6 0.305551 0.726129 0.984556 4 4 -1 
7883 5 0.653509 0.767618 0.0155872 4 -3 3 
5397 6 0.851554 0.746932 0.0240768 0 -3 -3 
6681 6 0.00727275 0.773077 0.00751866 0 -1 3 
7876 5 0.317339 0.787028 0.0543851 3 6 2 
8164 6 0.795035 0.741956 0.0295928 0 -1 1 
5812 6 0.75619 0.757375 0.0262605 1 3 4 
5656 6 0.264806 0.823526 0.999588 -3 -5 0 
5317 5 0.214211 0.78968 0.0132482 1 1 -3 
8366 6 0.472698 0.821675 0.0226033 2 4 1 
7299 5 0.138331 0.813739 0.0242425 0 -2 -3 
6705 5 0.686436 0.858138 0.0124121 -2 0 -4 
7613 6 0.711892 0.843279 0.0138315 1 -3 0 
7197 5 0.179167 0.851981 0.973738 -1 -7 -3 
7639 6 0.461282 0.86957 0.995852 -1 -2 -6 
7827 6 0.591777 0.852275 0.0168969 -6 1 5 
8694 5 0.772871 0.850442 0.985469 0 3 -3 
6027 5 0.973734 0.875453 0.00287154 -6 4 -3 
6864 6 0.913086 0.92693 0.0432043 -3 -4 -4 
5427 6 0.412164 0.936272 0.994968 0 -5 -1 
5834 6 0.955363 0.912415 0.0417351 0 0 -3 
8857 5 0.370409 0.972579 0.989898 2 -1 5 
5597 6 0.964682 0.980983 0.996611 -4 -3 -1 
5535 5 0.0172547 0.943655 0.995353 2 -2 0 
8547 6 0.824323 0.932875 0.987805 1 -4 -3 
8304 5 0.232133 0.989646 0.00853746 -2 -3 1 
8408 5 0.356417 0.0373097 0.00574202 1 3 0 
8233 6 0.338399 0.983493 0.0131831 -1 -2 -5 
8789 6 0.413757 0.0106824 0.0458465 -1 -5 -1 
8805 5 0.493662 0.995031 0.0664749 4 0 4 
7155 5 0.531799 0.990827 0.0209529 -2 -7 -6 
6379 5 0.559337 0.0678319 0.0141423 0 4 1 
6523 5 0.562718 0.00301033 0.0246171 0 1 -1 
7586 6 0.667752 0.0147706 0.0299587 -1 0 1 
8200 5 0.0401539 0.993887 0.0527126 4 -1 -1 
7497 6 0.720041 0.0330753 0.993183 -1 1 -2 
8158 6 0.103516 0.0465276 0.0470686 2 0 6 
6476 6 0.593915 0.0582417 0.0204502 0 1 3 
8418 5 0.518389 0.0675753 0.037188 1 5 -1 
7137 6 0.665998 0.101907 0.0135935 -2 3 1 
5903 5 0.879071 0.0968422 0.0364295 2 -4 3 
7354 5 0.0894251 0.0663897 0.0340086 3 -2 2 
6084 6 0.328078 0.149383 0.0233734 -2 2 -2 
7397 5 0.269007 0.146297 0.0393294 2 3 0 
8308 5 0.53559 0.149695 0.0431909 5 7 3 
6312 5 0.0401613 0.149949 0.0216399 2 -2 -2 
6904 6 0.378154 0.15157 0.0496637 -1 -3 0 
6450 5 0.559183 0.181099 0.00270729 -1 -3 2 
6685 6 0.57708 0.254402 0.0192212 -5 -1 -3 
7964 5 0.106135 0.20986 0.0122475 1 3 -1 
8471 5 0.632386 0.243399 0.0274469 3 1 1 
7981 5 0.733745 0.249437 0.0297167 -1 7 -1 
8619 6 0.780557 0.230757 0.0512556 2 4 2 
6287 5 0.974914 0.22925 0.0158647 2 2 3 
7808 5 0.603982 0.220763 0.0959534 0 -3 4 
8203 6 0.932636 0.24518 0.00313956 -5 0 -1 
8896 6 0.820268 0.31292 0.0268571 -3 1 2 
7478 6 0.145184 0.314136 0.00939303 -2 -1 0 
8635 6 0.249118 0.295864 0.0226217 -5 1 0 
8059 5 0.709865 0.337411 0.0553743 2 3 1 
7921 6 0.0218895 0.385119 0.0292084 2 -3 -1 
8998 5 0.876392 0.355399 0.0666885 5 -1 -1 
7632 5 0.356184 0.411068 0.0395922 -4 1 0 
6832 5 0.443263 0.39668 0.0392114 3 1 0 
7340 6 0.90666 0.410323 0.996908 2 -1 -1 
7925 5 0.912447 0.413421 1.00049 -1 4 0 
8663 6 0.797522 0.408898 0.0662879 7 4 5 
5884 5 0.379695 0.435588 0.0265092 -1 -3 -1 
8144 5 0.432645 0.441257 0.992592 1 -6 -4 
7959 6 0.0857506 0.471755 0.0339976 1 5 -1 
6754 5 0.321176 0.491808 0.048539 -2 1 2 
6051 6 0.501184 0.547767 0.0530404 -3 -1 0 
5395 6 0.738373 0.503401 0.0636506 -1 -1 4 
7580 5 0.779729 0.463884 0.0571521 -6 4 0 
7359 5 0.843142 0.482741 0.0706289 -1 5 0 
5059 6 0.980211 0.487331 0.0612858 0 2 -2 
6319 5 0.107848 0.499554 0.0280876 0 3 -7 
6053 5 0.799284 0.525103 0.0217127 2 -2 -1 
7154 6 0.315539 0.516211 0.0383902 6 4 3 
7143 6 0.708338 0.541921 0.0279052 -5 0 0 
7739 6 0.683049 0.535471 0.0297152 -1 3 -2 
5804 6 0.295359 0.52774 0.029367 -1 -4 0 
6671 6 0.333897 0.544021 0.0170868 0 1 3 
5195 6 0.724271 0.568961 0.0461613 -3 -4 3 
5682 6 0.707035 0.557051 0.0535817 1 -3 0 
8362 5 0.0540669 0.547725 0.0104483 -4 -4 -1 
6791 5 0.165142 0.548768 0.00702829 3 -7 2 
5013 5 0.716399 0.621228 0.0426108 -4 -1 4 
6853 5 0.125603 0.582288 0.0255209 -2 -4 3 
7656 6 0.731116 0.622058 0.0270294 -2 -4 -4 
8331 6 0.987652 0.609856 -0.000522131 -4 3 0 
7097 6 0.0803716 0.643838 0.0352527 -1 -5 0 
7909 5 0.201691 0.607284 0.0718548 3 7 -3 
5949 5 0.78797 0.592494 0.0657773 0 -3 2 
5378 6 0.00626972 0.672313 0.0269369 -4 0 3 
6687 6 0.0555078 0.626316 0.0360243 1 1 2 
5308 5 0.478418 0.628948 0.0304447 3 -1 0 
7705 5 0.0185735 0.642507 0.00389742 -3 1 2 
8609 6 0.0778032 0.682328 0.0364607 -2 0 0 
5037 6 0.860999 0.654156 0.986329 -1 2 -3 
7073 5 0.954578 0.680933 0.0152594 2 2 0 
7938 6 0.194126 0.670799 0.0113851 0 4 1 
8554 5 0.370473 0.700839 0.0205881 -1 -1 4 
5482 5 0.621018 0.779203 0.0157198 -3 -2 -2 
6329 5 0.354849 0.77759 0.0377406 3 -1 -3 
5864 5 0.101105 0.832817 0.993588 -4 -2 -1 
7740 5 0.638193 0.8424 0.0335289 3 -5 -2 
5731 6 0.914241 0.82097 0.00923069 -1 -4 -4 
8873 6 0.950775 0.837137 0.0410814 -1 -6 3 
5529 5 0.709406 0.854452 0.0173169 3 0 1 
5962 5 0.775157 0.867954 0.0271373 -5 2 2 
5555 6 0.798163 0.853743 0.00903646 0 1 -2 
7183 5 0.889292 0.881868 0.0670392 0 1 3 
6179 6 0.16669 0.900411 0.0573151 -3 -1 -2 
8559 6 0.285664 0.875666 0.0226975 1 2 3 
6513 5 0.704249 0.865235 0.0478655 1 -5 -1 
7198 6 0.0787574 0.909513 0.0444447 1 0 6 
5838 6 0.109526 0.888748 0.0532347 -1 -2 -3 
7784 5 0.310949 0.900792 0.0824721 1 -8 6 
5631 5 0.874238 0.916053 0.990277 -3 -2 -2 
5953 6 0.22892 0.943895 0.0116286 2 0 -3 
7902 6 0.210032 0.962346 0.0319734 0 -3 1 
8626 5 0.350697 0.940612 0.0169813 1 4 2 
5679 6 0.540941 0.925696 0.066674 0 -3 5 
5809 6 0.510546 0.984277 0.032179 0 -1 1 
5187 5 0.991861 0.984311 0.0117605 -1 3 1 
7475 6 0.437576 0.979149 0.0643448 -2 -2 1 
6415 5 0.884004 0.0155693 0.069456 0 -3 1 
8799 6 0.514234 0.0394365 0.0749905 -1 1 1 
5760 6 0.363531 0.0522249 0.0588796 -4 7 2 
8423 6 0.404852 0.0349028 0.058609 -4 1 -2 
7038 6 0.632979 0.0563718 0.0987161 5 5 -1 
7996 5 0.910124 0.0584755 0.0309577 -5 0 -3 
5563 6 0.382629 0.0607978 0.0097285 -1 4 -7 
7608 6 0.193235 0.124299 0.0715557 -2 0 0 
5090 6 0.617613 0.0773655 0.0135992 5 2 1 
8429 5 0.865098 0.114402 0.0863868 -2 9 3 
7898 6 0.962399 0.131315 0.0794293 -2 3 2 
6307 5 0.164091 0.0973712 0.0315745 4 -1 -2 
6156 5 0.866392 0.122369 0.0748105 1 2 0 
7393 5 0.439154 0.178263 0.0634339 4 3 1 
8582 5 0.502368 0.119031 0.065515 -1 5 0 
6219 5 0.824077 0.144195 0.0442894 -1 -2 1 
6934 5 0.993964 0.177825 0.0637253 -4 -4 -3 
6454 6 0.618539 0.140527 0.0186895 -3 0 1 
5872 5 0.645254 0.213287 0.0631386 0 -1 2 
7303 5 0.686464 0.210317 0.0589786 -2 2 -2 
6985 6 0.807556 0.195104 0.0749844 3 -1 -3 
8044 5 0.0958216 0.260935 0.0476202 3 2 5 
6547 6 0.662552 0.263288 0.0310563 -3 4 4 
6078 6 0.18368 0.289264 0.0612691 -1 -1 0 
7502 6 0.699074 0.270864 0.0687109 1 4 4 
7243 5 0.760243 0.287613 0.0488788 2 -2 4 
7492 6 0.38791 0.281047 0.0651014 1 -4 -2 
7780 6 0.0166779 0.3301 0.0790127 2 -1 4 
7068 6 0.746568 0.330044 0.0676733 -3 -3 1 
5878 6 0.647409 0.332967 0.101933 5 0 4 
5324 6 0.711059 0.339896 0.0399323 -2 2 5 
8159 6 0.825369 0.339748 0.0693363 1 -1 -2 
8795 5 0.349446 0.396336 0.0479287 4 3 -5 
5909 6 0.391774 0.398296 0.0357691 2 1 0 
5542 6 0.95424 0.395397 0.0909777 2 0 0 
6473 5 0.108786 0.411419 0.00949085 2 5 5 
7248 6 0.585702 0.380931 0.0852279 0 2 0 
6177 5 0.395922 0.427908 0.0877618 -2 -2 -1 
6724 5 0.80361 0.416275 0.0267553 -4 -3 6 
8919 6 0.119846 0.452378 0.0348481 -1 1 3 
8878 6 0.18941 0.484859 0.051166 -3 1 -2 
6080 5 0.23501 0.445295 0.0890888 0 1 1 
5698 5 0.55796 0.483743 0.00208369 3 -4 2 
7852 5 0.577192 0.440693 0.0745472 -1 3 4 
6497 6 0.662456 0.448478 0.0304154 -1 1 5 
7719 5 0.914987 0.455086 0.0793506 -5 1 -1 
8759 6 0.153653 0.518485 0.0645758 1 3 -1 
6189 6 0.385114 0.526081 0.0834148 4 -2 2 
6746 5 0.91947 0.5085 0.103779 3 -3 1 
5353 6 0.935386 0.495742 0.0636587 -5 2 2 
5082 6 0.134173 0.539897 0.0866106 3 -2 2 
8525 6 0.394935 0.550024 0.0626428 -2 3 0 
8905 6 0.894807 0.4796 0.0602626 2 4 -1 
7017 6 0.0455241 0.570564 0.0683013 -6 -4 4 
8599 5 0.287506 0.510096 0.0513896 1 -5 1 
5808 5 0.424013 0.570069 0.0954089 0 3 -4 
5446 5 0.112319 0.594339 0.035877 0 2 3 
7081 5 0.91763 0.57272 0.0856692 -3 -2 0 
8422 5 0.620314 0.581365 0.0410635 2 -3 1 
6924 5 0.631204 0.574459 0.0442556 -1 0 -1 
5315 6 0.589394 0.62886 0.0710932 6 0 1 
8614 6 0.704774 0.677451 0.0658546 -3 2 1 
8294 6 0.311093 0.666059 0.0495707 -4 1 -1 
8908 6 0.29777 0.662671 0.0715817 4 2 -1 
6619 6 0.890549 0.642693 0.0664386 -5 -2 -5 
5141 6 0.447209 0.709129 0.0843387 -2 3 2 
6424 6 0.827634 0.68898 0.0978473 -2 -3 3 
5198 5 0.21733 0.717639 0.0360318 -4 -2 -2 
5470 6 0.369245 0.713889 0.1012 1 -3 4 
6940 5 0.0779609 0.736885 0.0718137 1 1 -1 
5755 5 0.594568 0.762193 0.0217749 1 1 -1 
6781 6 0.77335 0.738784 0.064487 -1 1 1 
8343 5 0.795466 0.705475 0.0875384 0 0 3 
8760 5 0.0159713 0.773119 0.0750008 -4 2 1 
7003 6 0.542111 0.714414 0.0590157 -4 0 4 
8364 5 0.191386 0.779834 0.0612017 6 -2 -4 
8461 6 0.566151 0.782758 0.0431409 1 3 3 
6160 5 0.728513 0.817598 0.0510554 -2 -3 2 
5803 5 0.0310507 0.828035 0.0295284 1 -1 -1 
6303 5 0.914438 0.817999 0.0262789 3 -1 -1 
5784 5 0.00830669 0.871983 0.0573754 1 0 -5 
8356 6 0.0184973 0.832588 0.0251782 2 -5 1 
6399 6 0.390797 0.796468 0.0637273 -1 6 1 
6760 6 0.713616 0.867452 0.0780447 2 -1 -2 
5172 6 0.751802 0.813371 0.0677457 2 2 -1 
5699 5 0.238695 0.867934 0.0311384 1 -1 4 
6148 6 0.484566 0.870829 0.0409803 1 3 4 
8214 6 0.740777 0.903018 0.0772728 2 -3 -2 
5410 5 0.397457 0.964028 0.045089 4 -1 3 
6339 5 0.712724 0.902123 0.0885288 -2 -2 0 
7307 6 0.93761 0.948589 0.0512389 -8 4 3 
8781 6 0.371948 0.930305 0.0508646 1 1 -2 
6129 5 0.413869 0.99546 0.100721 0 -1 2 
7695 5 0.960894 0.978345 0.03748 -2 4 -3 
5461 5 0.56833 0.965145 0.0833469 -1 -1 3 
6884 5 0.224668 0.0367362 0.0440649 -1 -3 1 
7904 6 0.603952 0.99173 0.069429 0 0 3 
8659 5 0.192759 0.0117092 0.0653505 1 1 -3 
5545 6 0.24428 0.981642 0.0797703 0 -4 -2 
7753 6 0.0642758 0.0901046 0.0798803 3 -3 -2 
7134 6 0.139495 0.0676087 0.0829415 1 0 -2 
8544 5 0.738734 0.0991522 0.0671716 -1 1 -2 
8199 5 0.707946 0.074347 0.0785331 -1 5 -4 
8303 6 0.976917 0.0899226 0.0776093 1 -2 1 
6274 6 0.79391 0.109982 0.0855333 -1 0 0 
6152 5 0.113484 0.0798719 0.086005 1 3 -2 
8076 5 0.239803 0.133606 0.0939404 1 0 2 
7301 5 0.87174 0.089644 0.0587967 -1 -2 1 
7620 5 0.896682 0.0596858 0.118349 5 -1 -1 
5505 5 0.370381 0.0919854 0.0490426 3 3 1 
6398 5 0.0227053 0.195056 0.0788811 2 0 6 
6840 5 0.144756 0.13715 0.100719 3 4 1 
6693 6 0.135295 0.120994 0.0952299 0 2 0 
7899 5 0.553518 0.160582 0.0817732 -4 3 2 
5334 6 0.984188 0.201312 0.0910813 -3 -1 1 
6015 6 0.157368 0.158293 0.0991145 1 6 4 
5339 5 0.796161 0.229924 0.0827545 0 -5 2 
7188 5 0.439815 0.232371 0.0786826 1 -1 1 
6396 6 0.848531 0.248633 0.0804386 0 4 -3 
5373 5 0.408172 0.251044 0.0417099 -3 -6 7 
8557 5 0.691439 0.219335 0.062691 1 0 3 
6443 5 0.802034 0.252785 0.0793037 4 0 1 
6921 6 0.946542 0.28398 0.114536 -1 1 2 
8924 5 0.130327 0.27695 0.12061 2 5 4 
7942 5 0.555511 0.258049 0.0618891 -2 3 1 
6405 6 0.160724 0.304156 0.0582748 0 -2 2 
7317 6 0.31839 0.279365 0.134797 5 -5 -2 
8978 6 0.492762 0.281984 0.120432 1 -2 -1 
5434 5 0.645 0.286695 0.0517099 -1 1 2 
5272 5 0.0324702 0.342338 0.0887748 -3 -2 -2 
8653 6 0.00376129 0.322629 0.0222757 0 3 0 
7518 5 0.027873 0.334554 0.0662992 4 7 -1 
7649 5 0.0712393 0.39072 0.0933669 2 3 2 
7044 6 0.980931 0.415455 0.0768301 1 2 0 
8230 6 0.535736 0.414778 0.105447 0 1 5 
5319 6 0.995537 0.412272 0.109724 -3 -1 1 
6400 5 0.902543 0.42052 0.0785062 -3 -1 2 
6380 6 0.860666 0.462707 0.0849247 -5 1 5 
8947 6 0.946985 0.473896 0.11249 -1 -1 2 
7011 6 0.764331 0.494169 0.0633713 0 1 3 
7239 6 0.947161 0.480372 0.0557672 -2 1 1 
8747 6 0.734249 0.473787 0.0900788 5 -2 -1 
8246 6 0.153651 0.508636 0.114647 5 5 -4 
6872 5 0.292189 0.509625 0.0761358 -1 -5 -1 
8018 6 0.156738 0.523717 0.0714349 -4 3 1 
6571 5 0.244308 0.545338 0.0582431 1 1 -1 
8806 6 0.511177 0.522505 0.0539568 0 1 -1 
5905 6 0.554022 0.532251 0.0763161 -1 -4 -2 
7905 5 0.981233 0.543504 0.0723159 -1 -1 -5 
7296 5 0.694576 0.551776 0.0805623 2 -1 3 
5585 6 0.223905 0.595624 0.0466314 1 -1 -5 
8892 6 0.450681 0.602181 0.0553071 2 -1 4 
7282 5 0.526838 0.624324 0.0672001 0 -2 0 
6071 5 0.657912 0.584073 0.0529578 1 2 2 
7669 6 0.724025 0.623038 0.0916295 -2 2 0 
5099 6 0.0938445 0.64022 0.0576004 1 -2 2 
5602 6 0.113063 0.661543 0.050159 5 3 2 
8859 5 0.273567 0.628556 0.0637208 -3 1 -2 
6030 5 0.537909 0.640347 0.0689581 -2 -2 -1 
5376 6 0.222293 0.669367 0.0820275 -5 2 0 
5130 5 0.839082 0.660822 0.101449 -2 0 0 
5191 6 0.227553 0.756176 0.0970894 0 2 -1 
6925 5 0.573348 0.716114 0.0639422 -3 -5 1 
7965 6 0.442906 0.729738 0.0922089 6 -3 1 
5764 5 0.13553 0.727696 0.118701 1 2 2 
5709 6 0.821029 0.725059 0.0777268 -2 1 0 
8839 6 0.33181 0.741851 0.0710222 -1 0 2 
8721 5 0.530517 0.786689 0.0871394 1 1 1 
7933 6 0.860615 0.718057 0.0830065 3 -2 2 
5547 5 0.4375 0.768276 0.0859338 2 -1 0 
5724 5 0.859542 0.808924 0.101222 1 -3 0 
5040 6 0.279223 0.80847 0.0465879 -5 1 -1 
7297 5 0.362962 0.862193 0.0657774 3 -4 2 
8161 6 0.421556 0.868652 0.0871248 -2 0 -1 
7920 5 0.659589 0.813664 0.0769527 2 -5 3 
7414 5 0.953072 0.859011 0.055511 -2 -2 -2 
8406 5 0.489614 0.866148 0.0358714 1 0 -3 
7945 5 0.541081 0.84352 0.0399284 1 -1 2 
6607 5 0.178541 0.868916 0.0630874 0 -3 -1 
6583 5 0.362976 0.924615 0.0917798 3 -1 0 
8409 5 0.351145 0.91562 0.0910706 -5 2 -2 
5488 5 0.690472 0.930353 0.0792927 -3 -1 1 
8398 5 0.456243 0.963373 0.0827047 -2 3 -1 
7077 6 0.731131 0.987866 0.11564 1 1 -2 
5851 6 0.0492954 0.0376594 0.0548501 -7 -3 1 
6033 6 0.38881 0.0362702 0.0824645 5 -4 5 
6862 5 0.180594 0.0318093 0.0864397 -1 4 4 
5657 6 0.170021 0.0627583 0.0839225 1 3 -4 
7855 6 0.440386 0.00356245 0.114967 1 -1 -1 
6196 6 0.660958 0.0422345 0.101419 1 0 4 
7004 5 0.0798627 0.0884332 0.0894339 2 -1 2 
6568 5 0.773282 0.121363 0.0958303 -1 1 -3 
8285 5 0.165706 0.095539 0.0987427 -3 1 -1 
5305 5 0.378847 0.130233 0.125769 2 3 0 
6836 5 0.366852 0.0926828 0.0895992 -5 3 -3 
6914 6 0.535839 0.157037 0.116176 2 -4 -5 
7269 5 0.360177 0.168763 0.109959 -2 3 -1 
7289 5 0.715919 0.196715 0.0621646 -3 2 1 
5498 5 0.34046 0.2078 0.0717408 -1 -3 7 
6757 6 0.487786 0.180667 0.139112 3 4 0 
7228 6 0.582778 0.173869 0.0926499 -1 -1 0 
6866 6 0.595954 0.203428 0.0725218 -1 2 4 
5667 6 0.694362 0.214633 0.0698358 1 1 1 
5261 5 0.19551 0.204695 0.0965488 -3 2 -5 
5805 6 0.373078 0.221709 0.134511 -5 0 3 
8380 6 0.353485 0.221603 0.0977062 1 -1 3 
7641 6 0.405369 0.2506 0.0748991 3 1 -3 
7313 6 0.592836 0.245931 0.0879377 -2 -4 3 
7651 6 0.61064 0.21553 0.119633 -3 -4 3 
8485 6 0.72435 0.25625 0.129157 -2 3 4 
7015 6 0.292347 0.247658 0.114606 1 3 -4 
5407 6 0.779529 0.264884 0.0844245 -2 4 4 
5439 6 0.783607 0.323372 0.0957824 -3 -4 -2 
8288 6 0.631582 0.286569 0.124907 -1 3 1 
5091 6 0.322648 0.338805 0.110258 6 -2 3 
8265 6 0.745692 0.397693 0.0809891 0 0 2 
8190 6 0.886285 0.380884 0.088107 0 0 4 
6793 6 0.244776 0.365887 0.0832766 -2 1 0 
5614 5 0.827394 0.39114 0.104847 2 0 -3 
6480 6 0.317889 0.375132 0.118391 3 -2 -1 
6173 5 0.634703 0.418304 0.0897034 1 0 -3 
8601 5 0.74667 0.464112 0.0775003 -2 2 3 
8537 5 0.220069 0.387027 0.121121 -2 2 2 
7466 6 0.84511 0.447167 0.0976404 0 -3 3 
6962 6 0.803373 0.456167 0.077047 2 3 1 
7402 6 0.971041 0.43858 0.118018 3 -3 0 
7002 6 0.561968 0.497114 0.109988 1 -3 2 
6373 6 0.850726 0.470621 0.0959636 0 -5 6 
5102 6 0.449184 0.469231 0.109011 6 7 0 
8341 6 0.398046 0.493061 0.124023 2 5 -2 
8042 5 0.944761 0.516992 0.0773713 -1 -4 -3 
7488 5 0.477895 0.54825 0.121064 -4 -2 -5 
5318 5 0.305257 0.575533 0.115128 -3 3 3 
8581 6 0.656578 0.53141 0.0981167 0 7 3 
8419 6 0.0498464 0.576575 0.0812847 2 1 -3 
6135 5 0.319914 0.554951 0.0953291 -4 -1 1 
5554 6 0.581942 0.578396 0.0890366 -5 3 2 
6417 5 0.684544 0.581289 0.158162 1 0 -2 
5168 5 0.702622 0.635056 0.0899293 3 3 10 
8327 6 0.114548 0.615372 0.101428 0 2 4 
8440 6 0.216559 0.615615 0.126964 1 -2 -1 
6243 6 0.73461 0.653378 0.109873 1 1 3 
8478 6 0.981765 0.620613 0.125729 1 2 4 
6025 5 0.460569 0.667608 0.0917791 1 3 2 
8030 6 0.564259 0.682061 0.0956921 0 0 -1 
6676 6 0.659647 0.702501 0.131704 5 2 1 
7923 6 0.653078 0.690524 0.0626235 0 4 3 
6932 6 0.714677 0.657592 0.110899 0 1 -5 
5399 5 0.355365 0.709529 0.0912543 0 3 6 
8147 5 0.629978 0.735466 0.107204 2 0 2 
7526 6 0.942177 0.724887 0.084211 -3 -2 -2 
6846 6 1.00158 0.756376 0.113068 -3 -2 -1 
5071 5 0.610314 0.822589 0.0794177 2 3 2 
5712 6 0.764158 0.799905 0.101664 -4 -5 -1 
6188 6 0.349607 0.883249 0.134657 3 1 2 
7203 6 0.690194 0.936627 0.117512 0 0 -2 
8373 5 0.718535 0.873129 0.114461 -6 -7 -1 
6758 5 0.189656 0.888824 0.0704713 4 3 -2 
5773 5 0.823455 0.868558 0.0992766 2 -2 -3 
7730 5 0.163295 0.893027 0.089006 3 -7 -3 
8088 6 0.43922 0.93137 0.0700509 1 2 0 
6494 6 0.451962 0.922474 0.0929153 0 5 2 
5429 6 0.559809 0.885355 0.0852492 -2 1 -1 
7771 6 0.81438 0.908122 0.121589 -5 0 -2 
6952 5 0.857073 0.933353 0.102189 -2 -4 1 
5677 5 0.863421 0.938365 0.0897599 -3 6 -1 
6930 6 0.114391 0.911725 0.0877595 1 -7 0 
6115 5 0.554974 0.0401365 0.12274 1 -4 1 
5249 6 0.0308393 0.0640793 0.137718 2 2 1 
7029 6 0.23391 0.0261833 0.0904945 3 5 0 
7633 5 0.238876 0.0675201 0.133563 4 1 5 
8820 6 0.712351 0.0845405 0.130798 3 1 -2 
8956 6 0.835665 0.0699765 0.14447 4 2 2 
8145 6 0.959961 0.0703328 0.0805123 1 -1 1 
7702 5 0.430975 0.125222 0.0939104 1 0 1 
8445 6 0.24316 0.122835 0.135144 4 0 3 
8643 5 0.528276 0.10233 0.128841 0 3 3 
7541 5 0.556598 0.147398 0.144279 -5 2 1 
7550 5 0.912736 0.158154 0.118283 -1 1 -1 
5948 5 0.944324 0.125131 0.145364 -2 4 3 
5024 5 0.248694 0.143044 0.127056 -1 1 -1 
8511 6 0.34803 0.156132 0.130082 2 -1 -1 
6787 5 0.182306 0.188849 0.092007 -1 0 6 
8742 6 0.428096 0.160541 0.10069 -5 -2 1 
5109 6 0.880642 0.155982 0.121705 0 2 1 
5145 5 0.951346 0.181989 0.120234 -1 1 1 
6766 6 0.0334871 0.144715 0.125306 -1 5 -3 
5222 6 0.0932616 0.23574 0.134606 3 -6 -2 
6825 5 0.530805 0.21626 0.0865691 2 0 0 
8090 6 0.699131 0.198372 0.0633302 -6 -6 1 
5693 6 0.366223 0.250544 0.128365 -2 -3 2 
7983 5 0.518295 0.21908 0.142275 -2 0 -4 
5128 6 0.591454 0.26198 0.138429 1 -3 -3 
6130 5 0.224304 0.260791 0.125308 2 4 -3 
7761 5 0.505561 0.2598 0.0983311 1 -4 1 
6357 6 0.537798 0.264321 0.119323 0 7 -1 
5669 5 0.818545 0.297987 0.11365 -4 -2 1 
7023 6 0.137271 0.304913 0.145085 -1 -4 0 
6098 6 0.473403 0.342935 0.103741 -1 6 -1 
6176 6 0.0792135 0.326286 0.107848 1 0 0 
6058 6 0.138599 0.303636 0.121536 -2 1 3 
7018 6 0.635548 0.325296 0.11739 0 2 1 
7092 6 0.324446 0.408301 0.108778 -4 -2 -1 
6326 5 0.939391 0.403959 0.132702 3 -5 0 
7520 5 0.322257 0.415991 0.163821 -2 -1 1 
6740 6 0.391531 0.409387 0.15111 0 3 2 
5582 6 0.433142 0.402818 0.110854 -3 3 0 
5412 6 0.0470484 0.434722 0.12528 0 2 3 
7663 5 0.692425 0.442969 0.128192 4 0 3 
5946 6 0.708461 0.516145 0.137064 -1 3 4 
7912 5 0.963486 0.497748 0.131139 2 1 -2 
5785 5 0.0608757 0.504864 0.110676 3 -3 -1 
8804 6 0.508233 0.527427 0.119509 -1 -2 -2 
7609 5 0.415593 0.550113 0.166902 4 0 3 
5284 6 0.56087 0.564454 0.10396 -1 1 2 
7764 5 0.0967148 0.53807 0.136965 1 -4 -4 
8080 5 0.794356 0.589187 0.119016 -1 -3 -4 
5067 5 0.0477975 0.545264 0.140304 -4 1 1 
6099 5 0.101726 0.633683 0.112273 5 0 7 
6089 6 0.238401 0.564607 0.0973769 2 0 4 
8652 5 0.630682 0.639366 0.174334 -1 -3 -6 
6922 5 0.701751 0.612203 0.122898 -3 0 7 
7438 5 0.164317 0.630548 0.0893652 1 1 1 
5352 5 0.4317 0.659901 0.153747 -1 -3 -2 
5129 5 0.629887 0.649361 0.121338 -1 3 -4 
8064 5 0.676627 0.630491 0.0825743 -3 2 2 
7032 6 0.785924 0.656437 0.132486 1 2 4 
7434 6 0.427927 0.658486 0.135735 -2 -1 7 
7200 6 0.539024 0.657327 0.13619 -4 9 -1 
6214 5 0.95358 0.674528 0.121668 -2 -1 3 
5374 6 0.818928 0.71999 0.119563 5 0 -1 
7235 5 0.902945 0.704577 0.133834 -5 0 4 
7777 5 0.647218 0.791051 0.0645878 3 -3 -1 
7088 6 0.721874 0.761723 0.106645 0 -5 2 
6678 5 0.892736 0.775296 0.151815 3 -3 1 
5589 5 0.442679 0.820113 0.104684 -6 3 -2 
7571 6 0.535236 0.829174 0.105452 4 -1 2 
8718 5 0.491444 0.851151 0.120732 -1 -2 5 
6901 6 0.598905 0.861604 0.122154 -2 -7 -2 
8957 6 0.858145 0.894971 0.110845 -2 -1 -3 
6727 5 0.956235 0.857149 0.135082 -2 0 3 
6502 5 0.44617 0.856097 0.16709 5 0 -2 
7045 6 0.58292 0.931453 0.0859704 0 1 1 
5156 5 0.71963 0.904038 0.117299 -1 -3 0 
8382 6 0.111705 0.916658 0.130393 -1 -3 -1 
8097 5 0.597867 0.956347 0.149079 -4 -2 -5 
7914 6 0.809621 0.867549 0.177378 -3 4 6 
5164 5 0.466123 0.958179 0.117007 4 -1 1 
6125 5 0.669488 0.940734 0.101595 -1 -3 0 
7338 5 0.935734 0.914453 0.138696 1 2 0 
8695 5 0.57607 0.988269 0.129423 -3 -2 4 
6822 6 0.130472 0.981116 0.150154 1 -3 2 
7746 6 0.396177 0.99606 0.149512 -1 -1 2 
6852 5 0.891659 0.972108 0.13914 1 -5 0 
8770 6 0.00875343 0.0184239 0.139578 3 4 3 
7597 6 0.824086 0.0125119 0.161186 0 2 1 
5943 6 0.105124 0.99475 0.154297 0 -4 -1 
8942 6 0.182309 0.0627151 0.149629 -5 2 0 
7211 5 0.804354 0.0665228 0.118158 3 3 2 
6997 6 0.958018 0.0519335 0.165206 1 -3 4 
7703 6 0.0679428 0.111159 0.156106 -3 2 0 
8390 5 0.925642 0.0864352 0.184822 0 1 3 
8898 6 0.795698 0.0968154 0.137025 2 -3 6 
5015 5 0.812978 0.113819 0.151114 0 0 -3 
7503 6 0.373206 0.087668 0.122748 8 4 0 
8821 5 0.478889 0.146722 0.1371 4 -2 0 
6384 5 0.586111 0.0956184 0.15068 -1 1 0 
8823 5 0.778237 0.135986 0.149369 -7 0 4 
8876 6 0.0414963 0.16065 0.177079 4 -2 -4 
7396 6 0.152759 0.137028 0.133855 -3 0 2 
7697 6 0.248156 0.137227 0.118137 3 0 -4 
7567 5 0.593811 0.16393 0.108436 -3 -4 1 
8386 6 0.514668 0.192858 0.142923 4 3 2 
8637 6 0.806762 0.190791 0.113503 -2 -1 6 
8675 5 0.188196 0.185388 0.168254 3 1 5 
7962 5 0.310264 0.248404 0.168153 1 3 -3 
6026 5 0.399446 0.251269 0.160576 -1 -1 1 
7468 5 0.58928 0.200209 0.16233 -1 0 2 
6265 5 0.664412 0.256299 0.160514 -2 1 0 
5616 6 0.959935 0.247184 0.148528 0 2 1 
8922 6 0.217783 0.275103 0.137958 1 3 0 
8948 5 0.408049 0.280083 0.157469 -1 4 4 
7457 5 0.105542 0.275876 0.13435 0 3 1 
6820 5 0.286841 0.29518 0.109148 -4 0 0 
8329 5 0.403756 0.293012 0.131333 0 4 3 
8944 5 0.637971 0.336443 0.128693 -1 0 3 
7193 5 0.688707 0.319357 0.203772 -3 1 2 
8858 6 0.779469 0.310578 0.150567 -5 2 2 
7231 6 0.874796 0.295064 0.157976 -4 2 -5 
7961 5 0.0924846 0.338883 0.165963 -1 1 3 
8305 6 0.492902 0.378091 0.168382 -2 -5 3 
7543 6 0.525831 0.335831 0.165006 -5 3 -2 
7108 5 0.726451 0.364908 0.147281 1 -6 -1 
6488 6 0.454104 0.366706 0.149092 0 -1 0 
5728 6 0.768237 0.392937 0.145001 -3 -2 2 
6975 6 0.977114 0.366345 0.152218 3 -2 2 
8043 5 0.107536 0.388308 0.153472 2 4 0 
6462 5 0.758121 0.411898 0.156782 -7 0 0 
8801 5 0.0427075 0.4328 0.170099 0 1 -4 
6695 5 0.781561 0.419586 0.171968 2 2 -1 
7490 5 0.936423 0.438567 0.128596 4 -1 2 
7093 5 0.0156088 0.408608 0.147733 -3 -2 -3 
7089 5 0.278638 0.447566 0.130171 -4 1 1 
6477 6 0.993762 0.459968 0.143115 -4 -1 -2 
7484 6 0.0689228 0.453719 0.154547 1 -3 0 
7977 5 0.35249 0.480975 0.147636 -4 -4 0 
8529 5 0.490661 0.48677 0.13514 1 1 2 
6609 6 0.168132 0.508068 0.136556 3 4 -4 
6868 6 0.223833 0.483841 0.131286 0 -2 4 
8326 6 0.616015 0.533216 0.131023 1 2 2 
7999 5 0.593683 0.505748 0.156661 -1 1 1 
8565 6 0.678799 0.547579 0.156288 -1 -3 -1 
6375 5 0.299576 0.513039 0.144697 -1 -3 -1 
8142 6 0.903006 0.52423 0.148765 1 3 5 
6313 6 0.332892 0.52084 0.160328 -3 3 2 
6216 5 0.794432 0.574796 0.13598 4 -1 0 
8049 6 0.952218 0.55618 0.136661 -3 1 2 
7430 6 0.13882 0.562033 0.168214 0 -3 -1 
5543 6 0.0747563 0.61068 0.171142 -3 -1 1 
7369 5 0.726959 0.623606 0.133004 4 1 4 
7836 6 0.31943 0.622832 0.139434 1 -2 4 
8495 6 0.797649 0.610266 0.140704 -4 1 -1 
8527 6 0.838662 0.618896 0.139521 0 -1 1 
6532 6 0.472647 0.643374 0.174441 -2 2 2 
6145 5 0.581388 0.648201 0.160416 -2 -5 2 
5765 6 0.241762 0.674998 0.144013 -2 1 -4 
6445 6 0.404155 0.703477 0.177731 0 2 -3 
6581 6 0.505796 0.675161 0.12936 0 2 8 
7828 5 0.507161 0.701598 0.176468 1 -2 -1 
6789 6 0.0270377 0.659351 0.176383 4 0 4 
6199 5 0.0791636 0.709452 0.133548 0 2 2 
6464 5 0.215761 0.667546 0.145625 3 1 -1 
5944 6 0.505568 0.686071 0.152522 0 3 3 
8193 6 0.767177 0.746639 0.17152 -2 -4 0 
8132 5 0.191402 0.742163 0.149339 0 -3 0 
7952 5 0.618968 0.752562 0.177347 0 1 -1 
6973 6 0.901757 0.707632 0.147548 0 0 4 
5925 5 0.106004 0.763758 0.144693 0 -5 1 
7212 5 0.168795 0.756062 0.172221 2 -3 2 
7323 5 0.478412 0.817525 0.136242 2 -1 5 
6923 6 0.130665 0.905645 0.184835 1 2 -3 
8101 5 0.235413 0.85135 0.144511 1 0 -1 
8313 5 0.104671 0.890142 0.193395 0 -4 -3 
6347 6 0.241825 0.899841 0.151359 0 0 5 
8462 5 0.0749335 0.96484 0.15957 2 -2 -2 
5119 6 0.397813 0.98884 0.170139 -2 4 -2 
6260 5 0.0843599 0.980604 0.157117 3 3 -4 
6073 6 0.146551 0.00664771 0.160847 0 4 -4 
6674 6 0.499792 0.000239736 0.156706 -1 3 -3 
6511 6 0.602982 0.970246 0.125091 -5 3 -3 
8143 5 0.929497 0.964809 0.12886 0 -2 0 
7533 6 0.770306 0.983566 0.192986 -4 2 -1 
7353 5 0.236635 0.0501771 0.179175 -2 2 -1 
7020 5 0.51189 0.0878009 0.194443 -4 -1 -3 
8077 6 0.701182 0.12977 0.173704 1 3 0 
6201 5 0.848426 0.0863421 0.153708 -4 1 3 
6870 6 0.922098 0.0963578 0.159885 -2 -2 2 
8272 6 0.177278 0.11307 0.135781 5 -1 0 
5424 5 0.612851 0.0766022 0.181831 1 0 -2 
6082 6 0.961528 0.0949207 0.163622 -1 -5 3 
8187 6 0.610191 0.0970241 0.174124 0 1 3 
6393 6 0.682805 0.125266 0.171744 0 -3 6 
5564 5 0.247327 0.150175 0.164922 4 -3 5 
5759 6 0.897245 0.163364 0.187155 -3 -4 0 
6977 5 0.830741 0.175005 0.147058 -2 -1 2 
8489 6 0.0279547 0.123975 0.205682 -1 -1 2 
7657 5 0.209876 0.152788 0.139676 1 6 -2 
7714 5 0.453651 0.197922 0.183998 -4 1 4 
8160 5 0.674928 0.206199 0.178138 0 -3 2 
5011 6 0.239926 0.213911 0.156726 3 -2 7 
6052 6 0.293101 0.22201 0.164862 8 1 -1 
6292 6 0.41239 0.202498 0.180481 -1 7 -2 
5939 5 0.103406 0.243123 0.153555 0 1 -1 
5695 5 0.438956 0.22103 0.178334 -1 3 3 
7950 6 0.525011 0.246996 0.175207 1 -7 1 
8255 5 0.926466 0.244634 0.203008 -5 -3 -5 
7810 5 0.268439 0.222101 0.14483 4 -3 0 
8923 5 0.36485 0.293075 0.158774 3 5 0 
5320 6 0.504052 0.253751 0.178053 -2 4 3 
8227 5 0.634426 0.255317 0.174705 -1 -1 1 
6761 5 0.809353 0.259658 0.149261 2 -1 0 
7202 5 0.686966 0.312643 0.155005 -6 0 -1 
5783 6 0.883934 0.323279 0.16825 -2 1 1 
7252 5 0.981007 0.291624 0.179953 -4 2 3 
5327 5 0.312812 0.308396 0.203986 2 1 -3 
6123 5 0.392289 0.305111 0.152459 -3 5 -2 
6778 5 0.0315087 0.317487 0.177197 1 -2 0 
5705 6 0.462301 0.316882 0.169502 -2 1 2 
5140 5 0.500454 0.345028 0.177532 -3 2 0 
7531 5 0.713221 0.326093 0.187252 -1 -2 -2 
7234 6 0.75992 0.391777 0.168668 3 8 2 
8405 6 0.802773 0.370337 0.196829 -1 3 1 
7260 6 0.354464 0.383782 0.188736 1 1 -3 
6348 5 0.627866 0.365497 0.189207 8 0 -2 
5815 5 0.72271 0.388159 0.147066 4 4 2 
8388 5 0.958151 0.388892 0.165373 3 4 -2 
6057 5 0.530789 0.42791 0.163413 1 -4 1 
8333 6 0.632479 0.443682 0.161156 -4 -1 2 
6965 6 0.197151 0.428227 0.187691 1 -2 -3 
5727 6 0.908245 0.430789 0.179914 0 0 2 
8591 6 0.233686 0.439537 0.185679 6 -1 2 
7667 6 0.79041 0.486303 0.188476 -1 0 0 
6774 6 0.0600163 0.49792 0.169655 4 -2 0 
7517 5 0.0969563 0.518851 0.120599 2 0 2 
8762 6 0.569309 0.516562 0.159401 4 1 -2 