ITEM: TIMESTEP
20000000
ITEM: NUMBER OF ATOMS
9000
ITEM: BOX BOUNDS pp pp pp
-75 75
-75 75
-75 75
ITEM: ATOMS id type xs ys zs ix iy iz 
7140 6 0.0228002 0.0525283 0.0346105 -1 1 2 
6600 5 0.294834 0.0402233 0.00738558 -1 -1 1 
5702 5 0.296353 0.00795894 0.00679638 2 2 2 
8334 5 0.307729 0.994909 0.0194565 -1 0 4 
5172 6 0.469981 0.0416417 0.000749057 -4 3 6 
7262 6 0.635951 0.00411761 0.992913 4 -4 -2 
6010 6 0.730631 0.00818707 0.0151906 -1 -3 -1 
5426 6 0.115144 0.0489957 0.00641757 0 -5 0 
6102 6 0.634367 0.0552531 0.984272 3 5 2 
6458 5 0.156687 0.104571 0.0195382 4 -2 2 
8629 6 0.19005 0.0799479 0.0118998 0 -1 0 
8748 5 0.627954 0.0739548 0.992121 -3 8 -7 
8624 5 0.458493 0.124666 0.948008 0 6 3 
8403 6 0.50509 0.094696 0.00924864 1 -2 4 
6348 6 0.558323 0.120698 0.990258 0 -3 -1 
6654 5 0.755011 0.131552 0.0089477 -1 -5 1 
8653 5 0.0659898 0.158343 0.958119 0 -1 0 
5164 6 0.648577 0.174502 0.0349603 -1 -2 -1 
5375 6 0.0402743 0.178303 0.00464628 -3 0 4 
5611 6 0.210387 0.216204 0.0190487 5 3 1 
6900 6 0.25556 0.185695 0.042576 4 0 -5 
8266 6 0.323111 0.182418 0.981216 1 -1 -4 
7402 5 0.774416 0.171956 0.0273073 4 2 1 
6270 6 0.391481 0.156202 0.97768 -1 1 1 
8965 6 0.581034 0.154411 0.974167 -2 -3 0 
7997 6 0.628228 0.210596 0.976147 -4 -1 0 
6845 6 0.126415 0.228549 0.0128607 3 1 -2 
7418 6 0.185538 0.200768 0.00378719 1 -3 -4 
7698 5 0.829917 0.251269 0.00696714 0 3 0 
8605 6 0.194837 0.237712 0.028234 2 -1 -3 
6385 6 0.756959 0.281212 0.016792 0 -3 1 
8067 5 0.763693 0.297853 -0.000541641 -1 -3 6 
8227 6 0.974143 0.245211 0.0104466 0 1 2 
8966 6 0.143429 0.291007 0.0135988 2 -5 -1 
6324 5 0.190123 0.322432 0.00338422 -3 0 3 
6402 6 0.269046 0.318897 0.0132223 -1 4 -2 
6792 6 0.515223 0.31553 0.0280316 3 -3 4 
7839 6 0.720062 0.287917 0.0197053 5 1 0 
5477 5 0.571144 0.318604 0.996353 2 -1 0 
5068 5 0.168339 0.349811 0.0268089 -2 0 2 
6875 6 0.996307 0.398124 0.0169185 -6 -2 -1 
8692 6 0.315612 0.374963 0.0154476 0 0 -2 
5414 6 0.399012 0.341102 0.0320467 -1 -8 0 
5125 6 0.477461 0.397291 0.0254914 -2 -1 2 
7107 6 0.0908722 0.424066 0.0409728 1 -3 -4 
6003 6 0.927468 0.419691 0.97848 -1 1 3 
8803 6 0.153627 0.41974 0.0533709 1 0 3 
7020 5 0.220922 0.448654 0.975753 -1 -1 -1 
7499 5 0.338189 0.47116 0.0323367 -3 2 3 
8946 5 0.602617 0.469579 0.0259341 -3 -3 0 
6173 6 0.204473 0.538669 0.00694468 -1 0 0 
8299 6 0.628034 0.514861 0.988738 2 2 5 
5882 5 0.00113818 0.548425 0.963734 -1 -3 -1 
5201 5 0.465302 0.499961 0.014384 -3 -1 -1 
6678 5 0.693345 0.54984 0.00386824 1 4 2 
8527 6 0.141056 0.574879 0.0228598 -3 6 -4 
8384 5 0.847256 0.560998 0.00395557 -1 0 -2 
5964 5 0.906704 0.602053 0.00226774 2 -1 2 
5194 5 0.0703245 0.590135 0.0183345 3 -2 -1 
8993 5 0.526384 0.575134 0.024704 3 -5 -3 
8250 6 0.226745 0.618633 0.0231163 -3 2 -3 
8694 6 0.402076 0.647767 0.0198571 0 -4 0 
8870 5 0.601211 0.629324 0.0215446 4 1 5 
6182 6 0.164151 0.651193 0.996284 -4 2 -5 
6934 5 0.677701 0.720732 0.0171735 -2 3 2 
8223 6 0.304137 0.758518 0.979922 -1 -4 3 
7595 5 0.283384 0.723834 0.0551981 0 -1 -2 
7348 6 0.0939195 0.747573 0.981451 2 -5 -1 
8783 5 0.846305 0.757716 0.0202923 5 0 3 
7999 6 0.903979 0.736255 0.0146932 0 0 -1 
5470 5 0.109109 0.831683 0.0185457 -2 -6 1 
6176 5 0.0776167 0.800149 0.031278 1 -1 2 
6579 5 0.558522 0.804788 0.997546 3 0 -2 
5572 6 0.757315 0.83373 0.0239846 2 -5 1 
8972 5 0.164934 0.882189 0.0196799 0 -5 2 
7390 6 0.786687 0.863788 0.996868 -3 -4 4 
7412 6 0.178101 0.850184 0.999811 -1 -2 -4 
6255 6 0.220795 0.879781 0.0224261 -4 -2 5 
7886 6 0.685275 0.88695 0.030731 0 -1 -3 
7579 6 0.794733 0.867079 0.0209312 -5 -3 -1 
6868 6 0.00284244 0.867206 0.0288842 3 4 2 
8849 6 0.742735 0.89398 0.00971227 3 3 -3 
5880 5 0.639405 0.91697 0.0216346 0 2 -1 
6350 6 0.658665 0.923027 0.0208323 -2 -2 -2 
8025 6 0.785023 0.912765 0.0261316 2 0 -3 
6156 5 0.835963 0.925065 0.0181981 2 -3 1 
8155 5 0.543345 0.944534 0.0157229 3 1 1 
6313 6 0.751538 0.918475 0.0352193 -4 0 5 
8331 5 0.525418 0.973687 0.997208 5 -6 -2 
6761 6 0.237223 0.990045 0.994589 -4 1 -1 
8531 5 0.358242 0.990227 0.017291 1 3 -3 
7572 5 0.495716 0.98937 0.0460713 -3 0 -1 
8738 5 0.716485 0.974132 0.994775 -1 1 -1 
5383 6 0.0503303 0.963515 0.0113179 1 -3 2 
6779 5 0.209242 0.0230356 0.0335271 3 -4 -1 
5618 5 0.229728 0.0243053 0.0210354 3 4 -3 
7716 5 0.357589 0.0146953 0.0174697 2 3 -2 
7515 6 0.649906 0.0258562 0.049602 2 -2 3 
7427 6 0.785327 0.0201615 0.0414248 -3 0 -3 
7117 6 0.12453 0.0337377 0.0299596 -1 3 -3 
6857 6 0.508747 0.0430099 0.0860272 -2 0 4 
6197 5 0.616759 1.00119 0.042274 1 -2 7 
7916 6 0.522693 0.0913705 0.0493808 1 3 -1 
6649 5 0.878903 0.0658659 0.00706375 -2 -1 4 
7159 5 0.911371 0.0931813 0.0399903 -3 2 0 
6881 5 0.908074 0.139727 0.0189938 1 4 1 
8587 5 0.662137 0.155054 0.069426 -1 -4 -4 
8088 6 0.552827 0.178331 0.0288619 3 3 -3 
7136 5 0.539027 0.2245 0.0217494 1 6 2 
6614 6 0.733826 0.21897 0.038842 -2 0 1 
6883 6 0.181809 0.213504 0.0451537 0 4 -5 
8298 6 0.447242 0.24321 0.0169428 -3 4 -2 
7591 6 0.864163 0.277512 0.0131233 0 -2 0 
5505 5 0.614838 0.315305 0.0844307 -1 -5 -3 
6388 5 0.792818 0.311087 -0.000411871 2 -1 -3 
6309 6 0.958605 0.26306 0.0270449 -1 -3 -5 
5599 6 0.411079 0.340638 0.044098 1 2 -2 
8522 5 0.455587 0.296689 0.0429154 -2 -2 4 
5711 5 0.0125111 0.338949 0.0421164 -1 -6 -6 
8809 6 0.0615739 0.349878 0.0161288 1 5 0 
5706 5 0.166645 0.350011 0.0036174 7 -1 1 
5832 6 0.362907 0.358142 0.998209 -3 0 4 
5258 6 0.960935 0.361385 0.000848596 -2 -1 -4 
6294 5 0.029626 0.401967 0.0207831 -4 3 -1 
8728 5 0.186706 0.42699 0.0156886 0 -2 5 
7815 5 0.387534 0.396786 0.0392954 -1 -2 4 
6765 5 0.541109 0.412751 0.98811 -3 0 2 
8236 6 0.601088 0.396776 0.0284105 1 -1 2 
5642 5 0.565156 0.360957 0.0414659 1 -1 -2 
7976 5 0.139337 0.40442 1.00096 -4 -5 1 
5372 6 0.665321 0.42342 0.0573446 1 -3 3 
6750 6 0.890973 0.404815 0.0297671 -2 -4 0 
8451 6 0.0320018 0.421782 0.00519771 2 2 3 
6325 5 0.690513 0.442741 0.0691954 2 0 5 
5757 6 0.0786227 0.490585 0.0553518 0 2 2 
8869 6 0.199966 0.475123 0.0625082 -1 0 -2 
5985 6 0.818688 0.547926 0.0249229 0 -3 -2 
7114 6 -0.000522843 0.512977 0.0735147 -3 -1 3 
5370 6 0.13487 0.495125 0.0101703 1 0 -4 
8272 6 0.866959 0.504496 0.0516245 -1 -1 0 
7781 5 0.0114857 0.530662 0.0690857 1 -6 -4 
8087 6 0.504874 0.577691 1.0018 -3 -6 -3 
7718 5 0.0360177 0.646104 0.0623922 5 1 1 
5297 6 0.645174 0.629944 0.0458051 -4 -1 -2 
5071 6 0.471849 0.649974 0.0287625 -1 -1 2 
5862 6 0.733751 0.603228 0.0294889 1 2 -4 
5354 6 0.0680331 0.615914 0.0287515 2 -2 -1 
5440 6 0.389631 0.689454 0.0413593 4 -2 1 
7080 6 0.642004 0.73437 0.027792 1 1 3 
6517 6 0.231828 0.713855 0.0260089 -2 1 0 
7077 5 0.792901 0.738987 0.0246459 2 0 2 
7715 6 0.38764 0.732674 0.0422041 -1 -1 2 
8673 5 0.549134 0.769646 0.0369384 2 -5 0 
7810 5 0.079138 0.846605 0.0595802 -4 3 2 
5404 5 0.177676 0.820498 0.0540158 0 -6 -4 
8761 6 0.759198 0.812253 0.0552593 -2 3 3 
8478 6 0.309836 0.853655 0.0581551 4 -5 -4 
5669 5 0.761449 0.805316 0.0191555 -2 4 -2 
6235 5 0.732456 0.851732 0.0330057 2 1 1 
6416 6 0.115906 0.859403 0.0314696 0 -4 4 
8085 5 0.104626 0.911327 0.0381341 -1 -6 4 
8330 5 0.222673 0.900457 0.0184368 1 3 8 
7957 6 0.245194 0.901305 0.0392178 3 -1 1 
7112 6 0.81731 0.875184 0.0525456 4 -2 -1 
8636 5 0.829426 0.88447 0.0595371 -1 1 4 
7407 6 0.824377 0.940637 0.0636808 6 0 3 
7899 6 0.189517 0.916821 0.997302 -5 0 -3 
7488 6 0.506298 0.946127 0.0179067 9 -1 -1 
7950 5 0.723302 0.937956 0.0340156 2 -3 2 
7938 6 0.949017 0.95009 0.0459582 -2 -1 5 
5208 6 0.212859 0.997587 0.00917265 -7 -2 -2 
5603 6 0.140229 0.0269379 0.0274692 3 -3 -4 
8861 5 0.771923 0.990945 0.0416535 1 -5 -1 
8927 6 0.197327 0.0465782 0.0533277 -1 8 2 
5401 6 0.347631 0.0442995 0.0544123 5 7 2 
8309 6 0.408047 0.0441032 0.0723349 -8 1 0 
7043 6 0.513502 0.0391768 0.0305841 -2 -3 1 
7019 6 0.79982 0.0601396 0.0579652 3 3 0 
8027 5 0.45945 0.0737506 0.0485676 0 -1 5 
7520 6 0.517977 0.0752644 0.0770618 1 2 -2 
6869 6 0.715949 0.0914486 0.0553115 1 -2 5 
6405 6 0.808311 0.0783032 0.0410339 1 0 -4 
7932 5 0.968087 0.0617887 0.0613009 3 1 2 
6560 5 0.144151 0.163538 0.0652655 0 0 1 
8846 5 0.441771 0.139102 0.074319 3 4 -3 
5285 5 0.766735 0.130754 0.0492135 -3 5 0 
6293 6 0.213668 0.121772 0.0486131 0 1 4 
8030 5 0.327239 0.163899 0.0728556 2 4 2 
5865 6 0.860114 0.155299 0.0818139 1 4 3 
5149 5 0.133912 0.16168 0.0602632 -2 3 -2 
6520 5 0.725289 0.221108 0.0512276 -1 0 0 
5373 6 0.776438 0.146837 0.102167 1 1 -2 
8680 6 0.154192 0.19642 0.0807147 0 1 1 
7431 6 0.269777 0.218687 0.0918606 -4 -1 -1 
8214 6 0.491908 0.210273 0.0447212 -1 -4 2 
6658 6 0.693938 0.209025 0.0845105 4 -5 4 
7288 5 0.665881 0.208899 0.0559188 -6 -1 1 
5560 6 0.780448 0.228309 0.0471604 1 5 -1 
8573 5 0.878694 0.229663 0.0574492 -5 -3 3 
8659 6 0.96434 0.216366 0.0867426 -4 -3 -2 
5960 6 0.946408 0.206258 0.0198485 1 -3 4 
8436 5 0.652926 0.269113 0.0833572 -2 4 3 
6209 6 0.700008 0.23511 0.0515843 -5 0 6 
6986 6 0.820942 0.259976 0.0360311 -5 -1 3 
7307 6 0.217691 0.265273 0.0405066 -1 -1 2 
6304 6 0.987045 0.245679 0.0314795 -2 -2 -2 
8928 5 0.29117 0.264501 0.0869762 2 -4 2 
5252 5 0.482548 0.252551 0.0683704 4 -2 2 
7728 5 0.531664 0.328991 0.039615 -4 0 5 
8447 6 0.175211 0.289024 0.0452874 -7 -2 2 
6268 5 0.406227 0.340948 0.0627748 3 -1 4 
7012 6 0.929401 0.337736 0.0423022 0 -5 -1 
7161 6 0.420113 0.361801 0.0527868 -4 1 -4 
7960 5 0.239709 0.385758 0.0453866 0 1 0 
5096 5 0.838952 0.367152 0.0787462 -2 2 1 
8018 5 0.275978 0.40315 0.0275982 -2 -3 6 
5324 6 0.754053 0.395926 0.0263541 3 2 3 
5835 5 0.905975 0.408115 0.0501466 -1 -1 -1 
8796 6 0.969747 0.403923 0.052269 -6 2 0 
6300 5 0.840375 0.463101 0.0754665 -4 6 -1 
5938 6 0.494127 0.459174 0.0525193 0 0 -1 
7229 5 0.637144 0.457541 0.0772125 3 4 -4 
7296 6 0.928133 0.445573 0.0882478 -1 0 0 
6104 6 0.0843584 0.500629 0.0229957 -1 2 0 
7898 5 0.866597 0.483388 0.0383975 2 -2 -1 
8973 5 0.308225 0.514282 0.0983896 -2 -6 6 
7652 6 0.91125 0.507704 0.060986 1 -2 1 
5741 6 0.115631 0.531912 0.049975 4 2 3 
7870 6 0.766549 0.541246 0.0529937 -1 -1 1 
8566 5 0.855151 0.560529 0.0680904 -2 -1 1 
5116 5 0.308234 0.5661 0.0230328 0 1 8 
8887 6 0.38123 0.542625 0.0531537 -6 0 0 
7868 6 0.805316 0.587166 0.0506625 -4 3 1 
6805 5 0.402255 0.598739 0.0377133 -1 1 0 
6559 6 0.00781755 0.610645 0.0519083 -6 0 -1 
6091 5 0.640405 0.604218 0.0475984 4 3 0 
5001 5 0.734461 0.625676 0.0495173 0 -2 1 
7370 5 0.929575 0.596306 0.0372773 -2 1 2 
8410 6 0.951935 0.618333 0.0611301 -3 0 2 
5936 6 0.279798 0.645974 0.0346188 4 1 4 
8520 6 0.965438 0.626801 0.0561099 0 0 2 
8467 6 0.67608 0.675066 0.0530338 -2 -2 -2 
8894 5 0.673722 0.632403 0.0353082 -2 4 4 
5105 5 0.635867 0.653308 0.102556 0 -3 -4 
7852 6 0.173212 0.635251 0.0437467 4 2 1 
7915 6 0.967421 0.687096 0.049602 -1 -1 -1 
5331 5 0.675663 0.712196 0.0595586 -5 1 3 
6037 5 0.691989 0.746405 0.0591155 1 0 3 
6242 6 0.936316 0.723254 0.0654417 -2 5 -4 
7146 5 0.303011 0.748582 0.0421413 -4 1 -2 
5582 5 0.405192 0.787239 0.0180752 1 1 1 
6994 6 0.0321542 0.787002 0.0271095 1 2 3 
5907 5 0.0570592 0.816522 0.068577 -6 1 1 
7777 5 0.401772 0.810534 0.0854262 -1 0 9 
5200 5 0.114538 0.877444 0.0558024 1 1 3 
7974 6 0.171357 0.813883 0.0887982 5 2 0 
8244 6 0.214312 0.877591 0.0632475 4 1 -2 
5622 6 0.279282 0.864958 0.0340521 1 -2 0 
7345 6 0.803301 0.872628 0.0926016 -1 -1 1 
5102 5 0.622401 0.908383 0.116732 -1 3 -2 
8285 5 0.540389 0.930527 0.0404116 -4 -4 -1 
6099 6 0.918771 0.933334 0.0452755 3 -5 5 
6842 6 0.955699 0.939533 0.0657572 -2 -2 -1 
8441 6 0.42474 0.966661 0.0607939 2 -3 0 
7797 6 0.0847546 0.982851 0.0382465 2 -3 1 
6352 6 0.0621025 0.00453843 0.1179 -2 -2 7 
8906 6 0.215169 0.995153 0.0890831 -3 1 5 
5782 5 0.117779 0.0550971 0.102185 -1 -2 -1 
5002 5 0.128641 0.0212099 0.0859265 -2 0 -1 
8997 6 0.289636 0.05115 0.0798357 -1 6 -3 
5904 5 0.535518 0.024461 0.0834799 4 2 0 
5981 5 0.165456 0.0627245 0.0876245 4 -1 4 
8524 5 0.886306 0.096312 0.0533737 -4 -3 3 
6713 6 0.260991 0.144025 0.0556398 1 3 -2 
6890 6 0.734911 0.150356 0.0962794 -1 -2 6 
6444 5 0.848587 0.132928 0.0995443 2 -2 3 
8341 5 0.0342731 0.146484 0.121793 2 3 1 
7539 6 0.452438 0.145664 0.0563465 -5 -1 5 
8769 5 0.511531 0.208803 0.0821496 3 -2 -2 
6856 5 0.524926 0.29108 0.0689928 2 -1 0 
7795 5 0.764766 0.258122 0.0674223 0 -1 -1 
5856 5 0.891617 0.289145 0.108639 3 -4 -3 
5733 6 0.901411 0.292908 0.0533183 -1 -5 4 
5943 6 0.153785 0.307389 0.0532583 -3 5 -3 
5083 6 1.0048 0.31774 0.080524 1 4 1 
6926 6 0.997956 0.285216 0.0554045 1 2 0 
6800 6 0.179982 0.350536 0.0839182 2 -2 0 
8516 6 0.847781 0.338133 0.119594 0 0 0 
5805 5 0.680247 0.362274 0.0635628 2 3 1 
5538 6 0.741234 0.356419 0.0747546 3 -2 5 
7399 6 0.203335 0.392292 0.0397596 3 1 2 
8154 6 0.363552 0.358633 0.115357 2 1 5 
5715 5 0.372384 0.473969 0.0677919 4 4 0 
7641 5 0.102569 0.481959 0.0805278 -1 -9 -3 
7910 6 0.907218 0.437536 0.0370336 3 -6 -1 
8720 5 0.930414 0.435088 0.0831949 0 -4 2 
7733 5 0.372985 0.463233 0.0759334 1 -1 1 
7460 5 0.542439 0.458864 0.0991779 -5 0 2 
5924 5 0.852315 0.456799 0.102834 1 -1 -6 
6462 5 0.835409 0.432619 0.0834007 0 0 3 
6284 6 1.00122 0.471878 0.0527329 3 -2 -3 
6454 6 0.872199 0.498169 0.0728973 -1 1 1 
5377 6 0.16629 0.51031 0.104113 -2 -3 1 
7465 6 0.200202 0.572811 0.0751056 -1 0 1 
8931 5 0.707766 0.56863 0.077393 2 -1 1 
7510 6 0.781432 0.564222 0.0468743 3 0 1 
8013 6 0.801181 0.596966 0.115933 -2 -2 -5 
5117 5 0.541425 0.644967 0.0824414 3 -5 4 
6159 5 0.330659 0.623124 0.0799336 -1 1 4 
6204 6 0.357429 0.631859 0.0559326 -1 -3 6 
6199 5 0.584157 0.61475 0.0794 6 3 1 
7253 5 0.86187 0.642978 0.0894839 3 1 1 
8413 6 0.955789 0.606181 0.064396 1 3 1 
8005 6 0.301864 0.654909 0.0700051 -3 1 1 
7495 6 0.506294 0.639399 0.0725903 0 0 0 
8881 5 0.324256 0.702967 0.0905399 1 2 2 
7491 6 0.54098 0.674033 0.0886225 -1 -1 -2 
8066 5 0.686589 0.663587 0.097417 2 1 -2 
8971 6 0.0598155 0.748434 0.103592 -1 3 2 
5698 6 0.671544 0.668414 0.07706 -2 -1 3 
8982 5 0.0458042 0.715337 0.0782843 2 0 3 
7014 6 0.465808 0.741591 0.0807565 -1 1 0 
6908 5 0.988795 0.686616 0.101129 -3 1 1 
6802 6 0.232231 0.734006 0.0509947 2 4 3 
5842 6 0.69814 0.738278 0.0452215 -2 5 3 
7188 5 0.0452465 0.758403 0.0830653 -2 0 -3 
6740 6 0.19897 0.772714 0.0543192 4 3 -1 
5323 6 0.444364 0.728869 0.0884183 2 4 -1 
8307 5 0.190928 0.809154 0.0475299 3 -3 -3 
8158 6 0.216358 0.76326 0.0612161 -2 1 2 
5992 5 0.89201 0.752343 0.091883 0 -2 3 
7672 6 0.0411597 0.843022 0.064274 5 -3 4 
6079 5 0.819575 0.821934 0.0485321 -1 1 0 
8300 6 0.880314 0.810716 0.10068 -2 1 5 
6793 5 0.264087 0.805544 0.0673076 1 -6 2 
6198 6 0.169494 0.910771 0.103945 -3 -2 5 
6272 6 0.263978 0.892015 0.0938923 2 1 3 
5455 6 0.75744 0.880259 0.0646496 -4 1 2 
7010 5 0.799924 0.905169 0.0481441 2 -3 3 
6424 6 0.923445 0.906217 0.0581479 -3 -1 2 
7501 6 0.989339 0.901602 0.0674009 -3 0 1 
5776 6 0.163305 0.969602 0.0686783 1 0 0 
7928 5 0.0981511 0.937992 0.0369584 1 -2 2 
7123 6 0.434934 0.97782 0.115318 3 3 1 
5336 5 0.660371 0.970039 0.0811076 -4 -1 -5 
6530 6 0.652285 0.961351 0.119983 3 -2 1 
8736 6 0.673175 0.958558 0.0628687 3 -2 1 
8543 6 0.697242 0.989187 0.0432005 -6 6 5 
5939 6 0.9091 0.997773 0.0466024 2 -3 4 
7120 6 0.354017 -0.00125791 0.0843562 0 1 2 
7361 5 0.367681 0.984816 0.0886147 4 -2 4 
7588 6 0.489908 0.973416 0.0613323 3 -2 -1 
8899 5 0.495846 0.000501026 0.104666 -1 1 -1 
8014 5 0.812433 0.0152791 0.0917102 -4 -2 -1 
8423 6 0.789114 0.0541006 0.0956172 7 -4 2 
8818 5 0.060863 0.0555669 0.114096 -2 3 0 
5683 5 0.211993 0.0855812 0.140721 0 4 6 
5087 5 0.171204 0.104717 0.0810923 4 2 4 
8588 5 0.280518 0.0634957 0.129035 5 -3 1 
6798 6 0.581215 0.0822229 0.0828691 0 -1 -5 
5223 6 0.408338 0.0967317 0.12746 4 -6 2 
7622 5 0.158276 0.175216 0.0693777 0 0 -5 
6645 5 0.827714 0.115829 0.14432 1 1 -1 
6121 6 0.806732 0.132471 0.109208 1 2 0 
5471 6 0.0621112 0.193277 0.0992146 -4 -1 0 
5647 5 0.489965 0.174102 0.0935757 -2 1 -2 
8209 5 0.129374 0.187848 0.11498 3 0 -4 
6834 6 0.242635 0.233205 0.0658764 -1 4 -1 
8912 5 0.177563 0.24626 0.127553 0 -3 -1 
8173 6 0.346866 0.256023 0.105507 5 5 7 
5632 6 0.882146 0.240334 0.0938025 4 3 5 
5483 6 0.183407 0.250067 0.0717496 0 3 1 
8071 6 0.843758 0.266957 0.109236 1 -1 -3 
5106 5 0.825723 0.271334 0.105252 1 1 -3 
5301 5 0.867276 0.248601 0.117451 0 0 3 
7357 6 0.651736 0.32426 0.112106 2 5 0 
5634 6 0.777188 0.331437 0.15418 0 -1 4 
8879 6 0.911259 0.323597 0.0787468 -1 -3 -3 
5237 6 0.956004 0.320937 0.0823258 3 -2 4 
5821 6 0.523038 0.341496 0.0656038 3 -1 3 
6584 5 0.0893427 0.357201 0.120802 -3 0 3 
8042 5 0.624561 0.391494 0.0884373 1 4 1 
6495 6 0.675579 0.361816 0.113814 -3 -1 -3 
6060 5 0.072267 0.387416 0.110445 -4 1 1 
5413 5 0.205081 0.426847 0.115997 0 -1 -2 
7233 6 0.189884 0.368839 0.108971 -4 -4 -2 
7551 6 0.334129 0.40576 0.12921 0 3 -1 
7095 5 0.531206 0.419322 0.115775 -3 -2 5 
5178 5 0.618873 0.40837 0.102102 -5 1 1 
8024 6 0.0565285 0.433386 0.0575261 -1 4 1 
6830 5 0.198271 0.461091 0.0852324 -3 0 -2 
8773 5 0.298427 0.482448 0.0767295 -1 -4 -5 
7240 6 0.542967 0.432409 0.100604 -2 5 -2 
7796 5 0.12078 0.497122 0.116385 4 -5 -3 
8152 5 0.757582 0.451379 0.0968933 0 -1 -2 
7730 6 0.802177 0.487784 0.0779856 6 -2 -1 
8162 5 0.0454054 0.503527 0.0955214 4 -1 -1 
5898 5 0.205136 0.555248 0.11578 5 2 1 
8302 5 0.589844 0.486916 0.130451 0 -2 4 
5094 5 0.00743553 0.53588 0.113149 -3 -1 4 
5349 5 0.819242 0.547489 0.130756 -3 1 3 
7701 6 0.1913 0.588571 0.123474 0 0 4 
7509 6 0.292559 0.558221 0.0986684 0 0 3 
5883 5 0.560553 0.562836 0.104275 -2 1 3 
5866 5 0.0552539 0.625122 0.0861484 1 0 1 
7952 6 0.497725 0.639464 0.107938 0 -3 -2 
5815 5 0.537311 0.624019 0.0896785 -2 1 -1 
8185 6 0.967236 0.585783 0.0698943 1 3 -2 
6605 6 0.108169 0.636081 0.0951581 1 -1 0 
6683 6 0.86282 0.676316 0.105564 1 2 4 
6033 6 0.913862 0.671378 0.120609 -1 -2 0 
8862 5 0.946081 0.657141 0.10168 5 2 -2 
6075 5 0.338489 0.65273 0.104177 0 1 -2 
6489 6 0.383047 0.726206 0.100319 -1 -2 -5 
6378 5 0.569469 0.740151 0.0928976 3 -4 2 
8193 6 0.743773 0.774441 0.137924 2 3 -1 
6086 5 0.801654 0.720184 0.0878273 -4 3 -2 
6195 6 0.927385 0.758728 0.0627214 3 -1 4 
8263 5 0.428728 0.791984 0.0790449 2 1 2 
8726 5 0.819328 0.75988 0.0830598 2 0 -2 
5444 5 0.129126 0.778563 0.131052 1 0 2 
5723 5 0.21436 0.79071 0.059328 -1 3 3 
5124 5 0.980072 0.809082 0.13069 -4 1 2 
8186 5 0.171327 0.820938 0.119425 4 2 1 
8391 5 0.463835 0.869556 0.127863 -1 -2 -1 
5312 6 0.0974339 0.9159 0.0786403 -2 -6 2 
8549 5 0.26519 0.97299 0.104516 6 -4 3 
8293 5 0.842057 0.942242 0.0609741 -3 1 -1 
8848 6 0.743752 0.94597 0.0752307 4 -4 -1 
8693 5 0.461617 0.0186575 0.119289 0 0 2 
7913 6 0.618156 0.969769 0.0952406 -4 -2 0 
5663 5 0.588716 0.0268288 0.081462 -2 0 6 
5790 5 0.628287 0.997499 0.105262 3 4 6 
5088 5 0.462156 0.036963 0.132279 -1 0 0 
7284 5 0.294415 0.0789957 0.118421 0 0 -7 
7549 6 0.480858 0.0523183 0.119667 0 3 1 
5807 5 0.922683 0.0628467 0.102697 -2 3 1 
5919 5 0.0922143 0.0646572 0.161191 -3 4 3 
7251 5 0.685018 0.079729 0.140553 -2 -2 -4 
5541 5 0.240764 0.0963894 0.129304 0 1 3 
6487 5 0.80658 0.120685 0.151926 0 -3 1 
7168 5 0.910442 0.108628 0.131075 -2 1 2 
6667 5 0.953085 0.107444 0.167142 5 -1 2 
6725 6 0.158403 0.117359 0.13823 -3 -4 -1 
7973 6 0.530829 0.165514 0.166298 4 0 1 
6341 6 0.88637 0.10942 0.121547 -4 2 4 
8243 6 0.74455 0.152427 0.112544 7 2 0 
8273 6 0.861665 0.146982 0.141213 2 -2 2 
6556 5 0.622701 0.155727 0.107048 2 1 2 
5759 5 0.779479 0.199667 0.0963389 4 0 2 
7462 6 0.774297 0.146007 0.121074 0 -1 -2 
7636 6 0.802423 0.177438 0.0944731 4 8 0 
8975 5 0.927668 0.177649 0.138943 3 -3 3 
7301 5 0.241013 0.214885 0.156351 -6 2 5 
6768 5 0.904533 0.171479 0.130982 -2 -5 1 
7087 6 0.502979 0.204689 0.109566 1 0 -1 
7712 6 0.297117 0.262927 0.131199 -4 -2 -3 
8654 6 0.595572 0.2501 0.136705 2 -3 -5 
8179 6 0.724803 0.256105 0.110225 1 1 1 
5325 5 0.316005 0.274575 0.0966081 0 -2 -1 
8371 5 0.648885 0.239963 0.114982 -5 0 0 
7787 5 0.872851 0.281683 0.114111 0 -4 2 
8547 5 0.0404503 0.294486 0.16482 -2 4 -3 
6016 6 0.761553 0.308756 0.0991701 0 5 -4 
7256 5 0.379617 0.320513 0.169118 3 -2 0 
8603 5 0.687898 0.349752 0.145553 2 -2 2 
5539 6 0.893195 0.35717 0.0774321 0 -3 -3 
5984 6 0.915144 0.333111 0.149224 4 3 2 
8259 6 0.247322 0.377802 0.133569 1 1 -2 
6180 6 0.668541 0.412593 0.149169 5 3 -3 
8275 5 0.824623 0.441116 0.113099 -3 -3 -5 
8249 5 0.858359 0.440818 0.142568 0 -2 1 
7001 5 0.78793 0.446468 0.0980291 -2 0 -1 
7814 5 0.904866 0.489131 0.117241 6 0 -4 
7514 5 0.125644 0.459823 0.18055 1 -3 -2 
6608 6 0.33442 0.496569 0.127468 -7 1 2 
6322 6 0.0166789 0.516897 0.13202 -1 2 5 
5597 6 0.6728 0.531017 0.137506 1 -2 5 
6746 5 0.706007 0.510185 0.113237 -1 5 -4 
5447 6 0.464541 0.539308 0.117953 0 2 2 
8781 6 0.725972 0.54821 0.13805 1 8 1 
6993 6 0.895958 0.545462 0.159341 -2 1 2 
5389 6 0.533174 0.539014 0.181054 5 1 -2 
5197 5 0.844418 0.622568 0.109574 -5 1 3 
5845 5 0.468699 0.624859 0.166294 -6 -1 0 
5573 6 0.679302 0.623566 0.155232 1 -3 -1 
7982 5 0.765607 0.649976 0.116826 0 0 4 
8558 6 0.481868 0.722512 0.105658 -4 -4 0 
5640 5 0.0810479 0.711704 0.124857 2 -5 -1 
5660 6 0.643306 0.731985 0.135018 -1 -3 -3 
5586 6 0.496409 0.771498 0.157499 -1 -3 -3 
5019 5 0.00593824 0.72573 0.120261 -3 0 3 
5697 6 0.112845 0.82863 0.109376 -3 -3 -3 
6914 6 0.902299 0.830025 0.108519 4 -3 1 
8776 5 0.488885 0.823827 0.115011 -3 2 1 
8991 5 0.758285 0.828439 0.0996391 4 -6 0 
7046 6 0.0865662 0.873605 0.126578 -2 -2 -3 
7336 5 0.348641 0.902944 0.105582 -1 -3 1 
5571 6 0.963939 0.867063 0.118061 6 1 0 
5875 5 0.855248 0.905962 0.120463 -3 -3 3 
7261 5 0.792157 0.916659 0.160436 -1 3 5 
5299 6 0.939408 0.908883 0.107243 -1 1 -1 
8169 6 0.973706 0.992773 0.137345 2 -5 -3 
7254 6 0.0240593 0.951789 0.146482 1 -2 -2 
7070 5 0.185522 0.952598 0.14528 2 3 -4 
5980 6 0.696766 0.953698 0.104812 2 -1 3 
5153 6 0.00483182 0.958741 0.0824105 -4 -2 0 
7165 6 0.624148 0.975617 0.126274 -2 -2 -2 
7309 6 0.978263 0.0369461 0.123554 -2 0 -5 
6759 5 0.302045 0.997967 0.131493 0 1 -1 
7548 6 0.529475 0.0290242 0.14787 -1 -5 0 
6776 6 0.998295 0.0832594 0.117625 2 3 -4 
5997 6 0.269877 0.10369 0.164328 1 3 3 
8825 6 0.713698 0.0568638 0.120569 -4 2 -1 
6809 6 0.295995 0.149872 0.191823 1 2 0 
7039 5 0.554869 0.0885509 0.170806 3 -7 1 
5063 6 0.780358 0.0947585 0.158682 -1 -1 -1 
8962 6 0.850318 0.0938961 0.136785 -4 -3 0 
5163 6 0.856779 0.0970828 0.130943 1 -2 3 
7316 6 0.0619716 0.131499 0.165846 -4 2 0 
7099 6 0.49482 0.152195 0.13689 4 2 1 
6290 5 0.149951 0.124087 0.102248 -3 5 4 
7492 5 0.188947 0.160446 0.170709 0 0 -3 
8099 5 0.2679 0.153812 0.131877 6 -1 -1 
7694 5 0.57457 0.161078 0.117707 3 -2 2 
6312 5 0.696631 0.124422 0.144846 1 1 -1 
7042 5 0.290337 0.182205 0.149501 2 0 -1 
8891 5 0.991923 0.196072 0.133791 0 1 0 
6232 5 0.414052 0.245472 0.137296 -1 -3 -1 
6368 6 0.785066 0.183513 0.150891 7 7 2 
6666 6 0.801705 0.243294 0.134793 -3 -3 3 
8553 5 0.283665 0.275736 0.137954 1 1 4 
8735 5 0.234836 0.297677 0.166519 0 3 1 
6887 6 0.911976 0.270955 0.152328 4 -5 3 
8329 6 0.57847 0.284998 0.122731 1 -2 -3 
6066 6 0.780293 0.301962 0.138697 -4 -2 1 
8677 6 0.481788 0.334866 0.134281 -1 0 -2 
6610 5 0.546035 0.314249 0.146198 -1 3 -2 
7772 5 0.0223177 0.360371 0.161803 1 -2 5 
6124 6 0.89341 0.327375 0.136511 4 -3 -1 
7775 6 0.2943 0.393518 0.14985 5 0 1 
5175 5 0.957892 0.377849 0.160174 0 -1 0 
8382 6 0.977686 0.391058 0.165796 5 1 0 
5587 6 0.405455 0.403916 0.148925 4 2 0 
8835 5 0.992653 0.402514 0.135477 4 -2 2 
6957 6 0.295098 0.41343 0.150741 -2 -1 -4 
6167 6 0.54683 0.447019 0.150842 4 2 2 
7802 6 0.0691826 0.458238 0.143746 -2 0 -1 
5387 6 0.272366 0.456602 0.111932 5 5 -1 
6849 6 0.392165 0.439844 0.162289 1 -1 3 
8557 5 0.116397 0.485076 0.144666 4 -2 -2 
6221 5 0.362516 0.463392 0.096941 0 1 1 
8327 6 0.208309 0.521625 0.136536 -2 -1 5 
5123 6 0.280314 0.472688 0.107197 0 2 -2 
8772 6 0.501791 0.554651 0.164916 -3 0 3 
5799 6 0.846443 0.528032 0.151021 3 -2 -3 
8130 5 0.882114 0.538846 0.149062 6 -2 2 
6251 5 0.350257 0.582572 0.104014 4 -3 -1 
8715 6 0.466909 0.554898 0.119376 1 2 1 
5826 5 0.883802 0.574901 0.14517 0 -3 1 
8075 6 0.992854 0.620961 0.144122 -2 2 2 
6241 5 0.186595 0.631492 0.153696 -4 2 1 
7475 5 0.195644 0.633806 0.185942 -3 -6 3 
6399 6 0.316554 0.606123 0.129345 3 -3 1 
7754 5 0.32691 0.624358 0.117782 3 -4 -4 
7618 5 0.425078 0.626171 0.147745 -1 0 -1 
5891 6 0.778991 0.601232 0.162338 3 1 -3 
6269 6 0.518933 0.67147 0.131321 0 -1 3 
7027 5 0.990419 0.654821 0.176919 1 0 -2 
5247 6 0.147427 0.701589 0.132431 3 -2 3 
8706 6 0.136226 0.627143 0.145481 2 2 2 
5705 6 0.372427 0.67459 0.139318 2 1 -1 
6449 6 0.322995 0.71457 0.141031 4 0 1 
6935 6 0.687782 0.705748 0.139367 -5 -5 4 
8007 6 0.455031 0.707577 0.152648 -2 0 3 
6514 6 0.764832 0.717156 0.122495 4 0 -4 
6169 6 0.836165 0.746746 0.125416 -2 -5 0 
7310 6 0.951619 0.745087 0.179596 6 -1 0 
5537 5 0.137167 0.774114 0.114693 -4 -3 0 
5766 6 0.475761 0.790002 0.137725 4 3 0 
6472 6 0.946975 0.805705 0.131633 0 1 3 
5188 5 0.0186424 0.782437 0.182475 2 0 -4 
7409 6 0.703257 0.786191 0.141459 1 5 1 
5333 6 0.683194 0.834686 0.184646 1 -5 -2 
7130 6 0.900043 0.823759 0.122748 7 -2 -1 
5248 6 0.0948186 0.824744 0.155217 7 -4 -1 
7699 5 0.85742 0.805998 0.142656 -3 0 8 
6172 6 0.824556 0.862683 0.155497 0 -3 -2 
7339 5 0.38418 0.863842 0.124566 2 -4 -1 
7709 6 0.702098 0.91393 0.145389 0 0 0 
5064 6 0.169112 0.86973 0.136323 -1 -6 -4 
6718 6 0.247181 0.916494 0.103599 2 -1 3 
6528 6 0.525953 0.906263 0.147927 2 0 -2 
8647 6 0.7055 0.915779 0.175181 3 5 3 
6601 6 0.612266 0.980177 0.129676 0 0 3 
8649 6 0.0185803 0.0133703 0.164839 -2 7 1 
6028 5 0.993878 0.0231648 0.151267 3 2 -1 
8747 5 0.408622 0.994742 0.175718 0 -5 0 
5458 5 0.485358 0.00396647 0.174652 1 -1 5 
6982 6 0.710961 0.972319 0.189603 -4 -1 -1 
5478 6 0.0593447 0.0554522 0.137136 -1 -2 1 
5380 6 0.169271 0.00792906 0.183374 -4 2 2 
6058 5 0.506922 0.0112569 0.180255 3 4 -1 
6647 5 0.57582 0.082126 0.135143 1 0 5 
5109 6 0.749959 0.07045 0.171572 2 3 2 
8513 5 0.85908 0.0842019 0.13487 1 -5 -4 
7308 6 0.429796 0.0684227 0.173229 1 -4 4 
8660 6 0.0505705 0.0937935 0.191081 4 1 3 
6344 6 0.332852 0.110198 0.181775 -2 -3 2 
7074 6 0.998333 0.0660063 0.180193 1 -1 0 
6785 6 0.203213 0.099009 0.178581 1 -2 0 
6960 5 0.0555055 0.170279 0.175971 -2 2 -5 
8177 6 0.612859 0.132755 0.182497 5 0 -3 
6806 5 0.140971 0.153493 0.20518 4 -3 4 
8565 6 0.28339 0.157396 0.156419 3 4 2 
5556 6 0.403415 0.158252 0.200057 -3 0 -3 
7498 6 0.738965 0.16542 0.220315 3 4 -1 
8113 6 0.794578 0.151911 0.190116 3 0 -2 
7673 5 0.386779 0.232173 0.142518 -3 1 -1 
6289 5 0.510398 0.222711 0.151219 1 0 5 
5341 6 0.607047 0.228512 0.157579 -2 -10 -2 
7164 5 0.731306 0.234088 0.154568 -2 0 0 
6301 5 0.599786 0.2375 0.139044 2 4 2 
6962 6 0.301734 0.277056 0.153833 2 -2 -1 
8717 6 0.988323 0.264663 0.186601 -3 4 1 
5434 6 0.0964378 0.299101 0.153644 -1 4 5 
7219 6 0.257233 0.279195 0.124608 -1 5 0 
5973 5 0.769519 0.280647 0.139412 2 -1 4 
6446 6 0.464519 0.323957 0.145829 1 -2 2 
5740 5 0.0298906 0.316465 0.189158 3 1 1 
7300 5 0.0531505 0.299605 0.157103 -2 -4 1 
6942 5 0.124575 0.336036 0.156796 3 -1 2 
6220 5 0.339561 0.337756 0.174403 1 7 -1 
6778 5 0.789296 0.362789 0.165552 -2 -7 0 
7398 5 0.771738 0.359062 0.1376 -2 2 -3 
7037 6 0.415286 0.360309 0.179183 3 0 -5 
6473 6 0.881679 0.368826 0.137348 3 3 0 
7246 5 0.499139 0.389988 0.107553 3 2 1 
6784 5 0.796171 0.388952 0.15312 0 0 3 
8183 6 0.907947 0.429122 0.175533 0 -1 4 
5662 5 0.119499 0.396689 0.176129 7 -2 -1 
7920 6 0.507577 0.389162 0.156736 1 2 -2 
8699 5 0.807921 0.412977 0.196159 -4 0 3 
6480 6 0.481113 0.444518 0.140385 -2 -1 1 
8454 5 0.713474 0.505815 0.135894 0 4 5 
7525 5 0.0568334 0.494285 0.187914 2 -2 0 
6763 6 0.626525 0.423906 0.177549 5 -2 -1 
6850 5 0.173768 0.481131 0.208018 1 -1 4 
6249 6 0.679752 0.494255 0.182988 -2 -1 -2 
7403 5 0.00790738 0.482121 0.143415 0 0 -2 
7845 6 0.64404 0.534838 0.168754 0 3 0 
7696 5 0.667707 0.518784 0.188194 2 1 -3 
5674 6 0.505183 0.57019 0.174374 7 -1 -3 
7335 5 0.735859 0.561706 0.142588 -1 2 5 
6369 6 0.0309161 0.615114 0.175561 -3 4 -5 
5154 5 0.259614 0.582142 0.197528 -3 3 7 
5497 6 0.676235 0.585586 0.172666 5 -2 -4 
6317 5 0.73446 0.59045 0.140928 -4 -2 6 
5379 6 0.0246293 0.644336 0.158132 0 1 4 
5523 6 0.234423 0.624224 0.187786 -2 -2 0 
8044 6 0.796962 0.651296 0.169593 -7 2 4 
8199 6 0.38653 0.63148 0.15501 -5 -1 -3 
8175 5 0.34543 0.630576 0.175416 -2 2 -5 
7047 5 0.925036 0.639442 0.145992 -2 -2 2 
6913 6 -0.00238111 0.685112 0.209354 0 0 -1 
8622 6 0.654974 0.64266 0.191569 -3 -2 -3 
8093 6 0.421692 0.679042 0.18316 -4 -1 -1 
7356 5 0.80223 0.683747 0.160981 -2 -1 1 
5093 6 0.376948 0.710805 0.163198 1 4 0 
6364 5 0.844406 0.723531 0.165939 1 0 -4 
5161 6 0.606128 0.732854 0.165372 -1 3 1 
8156 5 0.87502 0.753415 0.154197 -5 0 2 
5742 6 0.279916 0.810573 0.156652 1 1 -1 
7904 5 0.35889 0.816758 0.147849 2 2 5 
7630 6 0.526256 0.811193 0.203425 1 2 -5 
8696 5 0.558532 0.769928 0.142908 0 -1 2 
7682 6 0.0538728 0.854757 0.184411 -1 2 -2 
6196 5 0.275261 0.836211 0.194009 -3 0 3 
7277 5 0.496624 0.855851 0.206632 1 -1 -2 
6573 6 0.703752 0.808829 0.168081 -4 2 4 
5588 5 0.743779 0.890025 0.1493 0 0 3 
7897 5 0.540148 0.890505 0.193003 1 -5 -2 
8337 6 0.840494 0.891892 0.159285 5 3 2 
8065 6 0.401902 0.930038 0.152705 -2 -1 -1 
7422 6 0.749571 0.883526 0.138767 -6 -5 1 
7780 6 0.767445 0.878356 0.175708 -2 1 4 
6158 5 0.984012 0.971424 0.172967 -1 -1 6 
5725 5 0.361584 0.928477 0.126105 1 -4 0 
6093 5 0.526535 0.942427 0.192991 0 6 4 
7238 5 0.649962 0.986447 0.119192 -1 0 3 
5664 5 0.767571 0.991931 0.188522 -3 -1 -1 
5394 5 0.814904 0.960474 0.174848 1 -2 4 
8860 5 0.748685 0.977628 0.134023 -2 0 -3 
5230 6 0.952536 0.993589 0.16496 -2 3 -1 
6706 5 0.289379 0.0501438 0.199926 0 3 2 
5861 5 0.598617 0.0536067 0.187595 -5 -2 0 
5494 6 0.268068 0.106751 0.171044 1 -3 -5 
5433 6 0.179454 0.121812 0.194949 0 -3 -1 