ITEM: TIMESTEP
50000000
ITEM: NUMBER OF ATOMS
9000
ITEM: BOX BOUNDS pp pp pp
-75 75
-75 75
-75 75
ITEM: ATOMS id type xs ys zs ix iy iz 
7948 6 0.203298 0.0170868 0.017981 1 -5 -3 
6630 5 0.60567 0.00609881 0.0368471 5 -4 4 
7603 6 0.524014 0.0544428 0.0486938 0 -4 -9 
8406 5 0.861467 0.0575688 0.0110095 -3 4 -7 
5101 6 0.0974582 0.0905392 0.994692 -1 -3 -1 
8093 5 0.428464 0.0727118 0.998541 1 -2 2 
8893 6 0.770097 0.0763199 0.00451965 1 0 -4 
6925 6 0.847555 0.0970675 0.0112002 4 4 -4 
7209 6 0.371675 0.118674 0.00150712 0 4 -1 
5368 5 0.698093 0.122206 0.00891761 2 -2 -1 
8479 5 0.640357 0.158543 0.0191316 6 -10 -2 
8527 6 0.581339 0.223927 0.989814 -8 7 -5 
8032 5 0.719091 0.219625 0.0293104 0 -1 8 
6020 5 0.755621 0.174345 0.983593 3 2 2 
6545 6 0.75544 0.204902 0.00834175 0 -2 9 
8156 5 0.900286 0.209516 0.00814259 -3 -2 -2 
6535 6 0.0497154 0.247458 0.0182765 4 -4 0 
8397 5 0.16683 0.214859 0.988791 3 9 10 
6824 5 0.296241 0.263567 0.977439 9 4 -1 
7558 5 0.748523 0.256966 0.999886 4 0 0 
5832 5 0.87846 0.233242 0.0290697 -3 9 6 
6560 5 0.888839 0.260294 0.0417771 1 5 -6 
7482 6 0.256828 0.246111 0.0358545 -5 3 0 
5147 5 0.602383 0.29244 0.0454821 -6 5 -4 
5887 5 0.184343 0.26879 0.999274 -4 -1 -1 
5052 5 0.665985 0.271643 2.12974e-05 -1 -3 -8 
6498 6 0.676042 0.260455 0.977924 -8 -4 -4 
8478 5 0.217839 0.307046 0.0347325 -5 2 2 
8369 5 0.311281 0.270585 0.0559578 -4 0 9 
7705 6 0.782292 0.320428 0.0155679 0 10 -6 
7916 5 0.47029 0.335818 0.0345275 7 8 -3 
5767 5 0.479648 0.356657 0.0292989 0 1 9 
8548 6 0.0682016 0.363858 0.0475079 0 -11 -8 
6330 5 0.0382605 0.351768 0.99229 -4 7 2 
5200 5 0.28944 0.350387 0.993743 3 2 -9 
6260 5 0.925431 0.4116 0.014993 -2 -5 5 
7454 6 0.940174 0.407817 0.0195806 -7 0 -9 
8678 6 0.335386 0.42866 0.00966295 0 -2 1 
7071 6 0.681194 0.398542 0.0147609 4 -1 5 
8681 6 0.47836 0.441475 0.0238895 -3 -2 -4 
7381 5 0.484053 0.427806 0.999924 2 -5 2 
5207 5 0.64879 0.457248 0.9951 2 6 1 
8417 6 0.511823 0.521802 0.00261804 2 -3 3 
6912 5 0.286606 0.479961 0.0472614 1 -1 1 
6179 6 0.736102 0.495301 0.0189567 -4 -2 0 
8275 5 0.644238 0.472439 0.018588 1 5 -8 
6075 5 0.556071 0.50754 0.0118723 3 3 -4 
6973 5 0.311127 0.507666 0.0446041 4 -6 -2 
8127 5 0.0628897 0.568093 0.0229591 0 1 0 
5317 6 0.0135121 0.602897 0.00953095 -1 3 6 
8667 6 0.286836 0.62891 0.999275 5 8 7 
8811 6 0.950458 0.610503 0.0410186 2 2 3 
5855 5 0.0740322 0.653068 0.00682608 2 -5 -8 
5239 6 0.5075 0.673388 0.0171173 2 -8 3 
8468 6 0.355641 0.679032 0.0447696 0 -5 5 
6538 6 0.786652 0.649955 0.0243966 -2 4 -6 
6440 5 0.759692 0.686712 0.0167137 1 -4 -7 
7922 6 0.827794 0.6904 0.0039166 7 -7 4 
5401 5 0.89364 0.734297 0.0282004 3 4 6 
6602 6 0.930472 0.688136 0.0166407 -4 3 -6 
5099 5 0.835671 0.714383 0.0143298 -2 4 4 
7311 6 0.709717 0.793844 0.024468 5 3 4 
8291 6 0.827614 0.783673 0.991237 -4 3 -1 
8573 5 0.346459 0.843258 0.0221307 -5 2 -9 
6401 5 0.776409 0.781706 0.979825 3 4 0 
8752 6 0.944615 0.83286 0.0123441 2 0 -8 
7629 6 0.322049 0.819592 0.0103649 2 -6 4 
7529 6 0.422959 0.828535 0.0153828 -4 0 2 
7137 6 0.557823 0.841879 0.0522495 4 -1 -5 
6783 6 0.99514 0.873055 0.0401255 5 -4 2 
7992 6 0.0981728 0.82631 0.0360249 1 -7 8 
5938 5 0.109586 0.901771 0.99031 -3 7 9 
6902 5 0.640097 0.903838 0.966332 1 1 -5 
5907 6 0.392024 0.915451 0.998825 -2 -2 -4 
8838 6 0.833816 0.94934 0.0242178 2 2 -1 
5063 6 0.901788 0.933835 0.977952 -3 -4 0 
6404 6 0.952385 0.895406 0.991314 2 1 0 
6895 6 0.64266 0.928017 0.0078634 -5 -6 9 
7810 5 0.735406 0.92097 0.0174699 -4 2 1 
6915 5 0.586533 0.00511982 0.0236142 3 -8 6 
7154 6 0.202943 0.974366 0.95606 0 1 3 
6766 6 0.308685 0.963035 0.98714 -1 -4 8 
5819 5 0.467001 0.0247993 0.0416011 -3 -8 -5 
8793 6 0.965069 0.992587 0.963095 -8 -3 2 
7418 6 0.981065 0.00713341 0.0266344 -3 -1 6 
6617 5 0.542973 0.0285518 0.00779006 -8 2 1 
6342 5 0.910087 0.0535484 0.0855388 -6 -3 -2 
5838 5 0.123916 0.102667 0.0718231 0 4 0 
7437 5 0.505466 0.0296537 0.0375844 -4 1 -4 
7499 5 0.504258 0.0765279 0.00816097 -1 9 2 
6600 5 0.956838 0.0861561 0.0292713 -1 -8 -3 
8501 5 0.990716 0.0717433 0.0375649 -7 7 -1 
6629 6 0.6319 0.119139 0.00526065 3 2 -4 
8715 5 0.782816 0.081063 0.0519426 -9 -7 2 
8003 5 0.913586 0.121588 0.0358894 6 -3 3 
5124 6 0.537047 0.143111 0.0386047 -3 -11 5 
6161 5 0.619326 0.136662 0.0723917 -3 8 3 
7083 6 0.103752 0.170171 0.030153 0 3 -4 
5117 6 0.603212 0.166731 0.0286839 0 7 0 
5845 6 0.986899 0.160982 0.049871 -1 0 -1 
6418 6 0.14062 0.186884 -8.92545e-05 1 7 -5 
5796 5 0.195737 0.223076 0.0250837 6 2 -3 
7494 6 0.37038 0.120696 0.0408073 3 9 -4 
6724 6 0.496811 0.186834 0.0285251 -5 -3 0 
6454 6 0.579798 0.162883 0.993903 0 -1 -7 
6757 6 0.985408 0.198793 0.0409086 -7 3 -6 
5346 5 0.0368314 0.21418 0.0338798 2 0 5 
6014 6 0.502998 0.173762 0.0397505 1 -3 11 
6547 5 0.12389 0.235689 0.0427514 1 5 0 
7849 5 0.0232198 0.285304 0.0357227 -1 6 1 
8602 5 0.11096 0.25839 0.0371326 2 1 0 
8619 6 0.657433 0.259745 0.0426386 3 0 -2 
7684 5 0.686742 0.253828 0.0381022 -4 -9 -10 
8861 5 0.0838738 0.26874 0.0405268 1 -6 1 
5780 6 0.0723221 0.295672 0.00717433 0 -2 3 
8999 5 0.554044 0.270868 0.986366 5 -7 3 
6142 5 0.992641 0.339949 0.0628545 -1 5 6 
7541 5 0.73934 0.315567 0.0503434 1 0 6 
8305 6 0.0378556 0.319431 0.0257042 -2 -2 0 
7240 5 0.307133 0.329875 0.0541807 2 -7 2 
5637 6 0.85265 0.377559 0.0596227 -4 6 6 
6159 5 0.968631 0.376567 0.0193503 -6 -3 -3 
5315 6 0.200821 0.392029 0.0270085 3 -5 7 
5512 5 0.276757 0.398033 0.0221415 2 -5 6 
6375 6 0.413779 0.370068 0.0523991 -2 -1 2 
7062 6 0.991575 0.444413 0.0533215 -1 -3 -1 
5081 6 0.118148 0.402537 0.00971834 -2 -3 -6 
5044 5 0.294876 0.425517 0.0280622 -7 1 8 
6039 6 0.287954 0.43312 0.0189696 -2 -4 -6 
8371 6 0.413025 0.450248 0.034654 2 0 3 
5875 6 0.635932 0.466228 0.0235906 7 2 -1 
7802 6 0.108702 0.462992 0.051661 -1 1 4 
8572 6 0.135387 0.480399 0.998019 2 8 7 
5815 5 0.860055 0.478709 0.997744 1 -2 5 
6031 6 0.328641 0.527219 0.0477342 -3 -2 4 
5053 5 0.222168 0.541544 0.0389994 0 1 -2 
7282 6 0.995643 0.554342 0.0402047 -3 8 1 
8304 5 0.0853031 0.542896 0.0367263 2 -2 6 
5312 6 0.58735 0.542059 0.0393474 7 -3 -2 
8124 6 0.0773006 0.546642 0.045429 5 6 8 
8727 6 0.319311 0.558768 0.0199725 -5 -1 4 
8606 6 0.873125 0.543741 0.0680956 1 4 -1 
5036 6 0.101811 0.608185 0.0732568 3 1 -1 
5933 6 0.1273 0.576736 0.0454544 -5 4 7 
6738 5 0.221361 0.593088 0.0372704 -4 -5 2 
5400 6 0.248027 0.580418 0.0882701 -3 0 2 
6266 6 0.423598 0.631334 0.0424115 3 -3 0 
6660 6 0.356269 0.611756 0.0413334 1 -2 6 
6083 5 0.87384 0.597866 0.0427963 -1 -1 6 
5497 6 0.185471 0.646422 0.0324066 5 -3 3 
6334 6 0.323322 0.700077 0.0284932 -4 4 10 
6168 6 0.487969 0.624791 0.0533326 -1 -6 -1 
5310 5 0.9348 0.71133 0.0542209 7 -7 -3 
5296 6 0.0109755 0.74642 0.043208 6 4 5 
6731 6 0.426003 0.738416 0.0278334 -4 1 -1 
8904 6 0.00467122 0.765881 0.0277474 3 -5 5 
7084 5 0.642209 0.730313 0.0542434 -1 7 1 
7203 5 0.879856 0.773164 0.0247456 -1 1 -3 
6408 6 0.191163 0.771976 0.00952133 -6 2 -2 
7485 6 0.4724 0.791206 0.0450716 3 3 1 
6565 5 0.668262 0.809342 0.0236234 0 -1 2 
8802 6 0.751572 0.783913 0.00961029 -1 5 -4 
6157 5 0.292142 0.80463 0.998458 13 -2 11 
7328 5 0.485279 0.843218 0.0257548 2 11 5 
5769 5 0.564771 0.834721 0.0483608 3 3 3 
5975 6 0.953866 0.872072 0.0341073 2 -7 -7 
8604 5 0.67158 0.859023 0.0306999 -4 -2 4 
8187 5 0.982189 0.874944 0.0565553 -4 0 0 
6798 6 0.0543252 0.916891 0.0588045 2 -11 -1 
8185 6 0.94251 0.919363 0.0637006 0 5 5 
6237 5 0.104364 0.916231 0.0405127 8 2 2 
7173 5 0.352792 0.953408 0.0249273 1 -9 7 
7856 6 0.547444 0.944366 0.0193837 6 2 8 
5067 6 0.632621 0.903044 0.0313413 -2 -6 -1 
7219 6 0.9563 0.909553 0.00446016 3 6 0 
8753 6 0.339554 0.96628 0.0411843 -5 -2 -6 
5090 6 0.134894 0.941004 0.0214942 -1 5 -4 
8705 6 0.454584 0.982425 0.0465365 -5 4 0 
8373 6 0.618022 0.931265 0.0503741 2 -7 2 
6281 5 0.746296 0.928948 0.0176705 -6 0 -2 
8147 5 0.0669334 0.997558 0.0178247 -2 -9 4 
6901 5 0.58998 0.0162034 0.0872151 -1 1 -4 
7189 6 0.234326 0.0578909 0.0661851 -6 -3 -3 
5866 6 0.440544 0.0329423 0.0662866 2 0 -5 
6044 5 0.367316 0.0586783 0.0850877 2 -1 7 
8701 6 0.479265 0.029436 0.0543347 0 -7 2 
5577 6 0.322842 0.0882225 0.0274109 9 7 7 
8035 5 0.360289 0.0582399 0.0658887 -4 -5 6 
8831 5 0.736858 0.0577627 0.0402521 2 -4 3 
8952 6 0.525216 0.12329 0.0565581 0 3 -2 
8631 5 0.670471 0.110928 0.0935906 8 1 -6 
8996 6 0.920023 0.0921479 0.0818526 -3 5 10 
8296 5 0.617498 0.119089 0.0559639 7 1 5 
5625 6 0.436533 0.153852 0.0642573 1 -1 2 
6119 6 0.456766 0.144631 0.0665337 -4 -3 -3 
8109 5 0.143576 0.133907 0.060434 -2 -2 0 
8449 6 0.538396 0.21525 0.0764609 -6 2 -4 
8824 5 0.251456 0.217241 0.079971 -7 -1 -3 
7716 6 0.309373 0.233311 0.065352 3 7 -3 
5411 5 0.138456 0.238652 0.0386483 2 1 -1 
6323 6 0.85039 0.215737 0.0659666 2 1 -7 
7835 6 0.217167 0.243363 0.0698983 -4 -1 5 
8489 6 0.266986 0.286501 0.080229 -2 -2 -1 
8382 6 0.368157 0.312078 0.0609719 3 5 5 
8960 5 0.40113 0.26356 0.0433626 -3 1 2 
7562 5 0.432088 0.31724 0.035589 -3 6 -4 
7014 5 0.126198 0.295375 0.0587127 2 3 1 
7004 5 0.231214 0.317735 0.0470797 9 5 -7 
6809 6 0.0154528 0.389398 0.0807588 -5 -3 -1 
6174 5 0.419693 0.352994 0.0462588 -2 4 7 
7448 5 0.163317 0.359321 0.0581597 4 2 -11 
8722 6 0.52255 0.38079 0.0467194 1 3 -1 
5958 6 0.660489 0.367989 0.0123258 4 -3 0 
5203 5 0.756375 0.39393 0.087477 0 -1 6 
6649 5 0.814765 0.378805 0.0875336 -10 1 -5 
5420 5 0.170443 0.389807 0.0269583 -8 1 4 
5816 5 0.750235 0.41882 0.0529416 -5 -3 5 
7933 5 0.374415 0.460054 0.0996912 4 3 4 
5768 5 0.491552 0.453517 0.0422595 4 3 6 
7961 5 0.764718 0.41606 0.0784792 -2 5 -1 
5660 6 0.704677 0.485896 0.0554377 11 13 0 
7904 5 0.145926 0.531588 0.048893 0 5 -11 
6309 6 0.601676 0.482943 0.0614258 -6 5 -1 
6827 6 0.806837 0.539671 0.035744 0 1 -2 
5441 6 0.523692 0.571829 0.0777653 -7 -1 0 
8617 5 0.832465 0.577435 0.100684 -2 -4 3 
8770 5 0.94366 0.512493 0.0804104 -6 -5 7 
7846 5 0.364208 0.531198 0.0636416 -4 -1 -2 
5576 6 0.0834876 0.580408 0.0549226 5 4 -4 
6544 6 0.290873 0.628476 0.0556021 0 6 1 
8333 5 0.429511 0.598594 0.0556397 8 0 6 
7871 5 0.752537 0.584201 0.0232869 4 3 5 
5607 6 0.856375 0.606611 0.0257733 -6 4 0 
5822 6 0.610693 0.710396 0.0567244 3 4 0 
5644 5 0.345519 0.73639 0.0484382 7 4 -3 
6055 6 0.610945 0.733087 0.055559 -3 -4 -3 
5256 6 0.504573 0.749165 0.0451931 0 0 5 
7988 6 0.0953263 0.757301 0.0575378 9 2 2 
7379 6 0.303562 0.758967 0.0676207 1 1 -2 
5679 5 0.764064 0.753822 0.0603753 9 -3 -7 
5126 6 0.0136315 0.751243 0.0588112 -2 5 3 
8353 6 0.273016 0.784986 0.0704692 -5 -2 4 
7414 5 0.822081 0.774357 0.0478289 -6 -3 0 
6213 5 0.0607482 0.827423 0.0659913 8 4 -7 
7479 6 0.588226 0.861834 0.0290133 2 -2 8 
5595 6 0.833894 0.849988 0.049027 -1 1 2 
5150 6 0.401769 0.841692 0.0632193 -3 -7 6 
5216 5 0.505996 0.860332 0.0435235 -3 -4 -3 
7060 5 0.554585 0.903531 0.0987236 1 1 -1 
8435 6 0.916888 0.923544 0.061891 0 7 1 
8969 6 0.192675 0.910228 0.042165 3 1 8 
5030 5 0.329073 0.925189 0.0590072 0 1 7 
7854 5 0.761686 0.855449 0.0606162 -1 -6 -3 
5686 5 0.937654 0.933423 0.063808 1 -2 0 
8004 6 0.148274 0.931346 0.0945497 4 3 5 
6566 5 0.350874 0.895121 0.070416 -6 -6 -4 
8966 6 0.387214 0.928904 0.0935686 3 -3 4 
6497 6 0.656438 0.881299 0.0274131 0 3 1 
6253 6 0.0740327 0.975339 0.0834481 3 -1 5 
6967 5 0.546647 0.950026 0.0840961 -1 -1 -4 
8080 5 0.592917 0.904701 0.0504876 -2 7 -8 
8936 5 0.689021 0.927259 0.0718744 -2 -5 5 
5287 6 0.921162 0.939167 0.0393642 2 -1 -5 
8410 5 0.308037 0.990627 0.0429538 -5 -3 6 
6098 5 0.212769 0.99948 0.0126786 3 -3 -1 
5462 5 0.458029 0.00875707 0.0416202 7 0 -3 
5903 5 0.611553 0.965051 0.112512 -4 -3 -5 
6387 5 0.450553 0.0661375 0.126905 -8 1 5 
7197 5 0.878492 0.0123742 0.0943886 1 -2 4 
5559 5 0.914329 0.0258029 0.108623 3 1 4 
6371 6 0.0438765 0.0624984 0.0698663 5 -6 10 
7186 6 0.250926 0.0283017 0.088062 -3 -5 -1 
8636 6 0.418223 0.0412021 0.113412 6 -2 1 
6655 5 0.0398601 0.0934582 0.0343921 6 -1 -4 
6118 5 0.917284 0.0884193 0.0888841 0 3 -3 
7302 6 0.301471 0.104032 0.0923459 -8 5 6 
7542 6 0.83767 0.13144 0.081174 -2 7 9 
6974 6 0.161111 0.172035 0.0557996 -1 -5 -11 
6226 5 0.203507 0.162164 0.0930508 5 4 -1 
7136 6 0.65324 0.181009 0.0760498 8 -3 0 
7894 6 0.102556 0.173677 0.059235 -2 8 -4 
5569 5 0.885511 0.18462 0.0679925 0 -4 4 
6815 6 0.959859 0.211917 0.0658392 6 -1 -6 
6485 6 0.986962 0.216598 0.0907239 -4 -2 0 
7093 6 0.32308 0.238366 0.0805544 5 1 -5 
7398 6 0.665461 0.231682 0.100939 -5 4 -6 
5924 6 0.800023 0.257667 0.0503009 2 7 5 
5702 5 0.0992889 0.258345 0.10785 -1 3 4 
8047 6 0.24392 0.272528 0.039207 -6 -1 -2 
8765 6 0.360316 0.252046 0.0771167 -2 3 -1 
6518 6 0.487932 0.269341 0.0470833 -5 1 2 
5734 6 0.834112 0.26294 0.105344 -3 2 -2 
7257 5 0.343616 0.318451 0.0723347 0 -4 8 
8563 6 0.927544 0.298512 0.0802912 2 6 3 
7265 5 0.0654465 0.309638 0.0850196 4 -8 -4 
8126 5 0.61091 0.316377 0.0448973 6 2 -2 
7363 6 0.715027 0.332161 0.0940723 4 5 2 
5132 6 0.500613 0.350141 0.0805333 7 -2 10 
5432 5 0.562749 0.306929 0.0910459 -1 -9 -5 
5449 5 0.530047 0.319033 0.0696407 3 5 8 
8040 5 0.774378 0.328596 0.116372 6 -1 0 
5566 6 0.306709 0.340044 0.0729985 -3 8 -4 
6051 6 0.391671 0.383612 0.0774967 -4 3 2 
6908 5 0.527557 0.344419 0.112802 7 -1 10 
5549 5 0.174846 0.379351 0.0955848 0 0 14 
7207 5 0.558466 0.360685 0.103255 -8 -3 6 
5289 6 0.722901 0.382014 0.0722728 9 4 12 
6695 5 0.313489 0.387222 0.0404765 -5 0 4 
6861 5 0.613945 0.431379 0.101449 0 4 5 
6469 6 0.960256 0.390739 0.0811175 -4 -1 -4 
7793 5 0.270836 0.412216 0.100401 -2 -3 -1 
6859 5 0.304122 0.439737 0.105344 0 2 1 
8148 6 0.857357 0.422781 0.0870776 3 -6 1 
5333 6 0.0745235 0.459797 0.0655988 -8 3 -6 
8393 5 0.315156 0.413828 0.0853592 -1 -2 -2 
5579 5 0.402635 0.430311 0.103367 -1 2 4 
7776 5 0.624378 0.430136 0.0545566 9 0 8 
7401 6 0.71813 0.461298 0.0887202 -14 -3 2 
6391 6 0.124698 0.474859 0.0821164 7 -1 0 
7156 5 0.598747 0.443701 0.0970488 0 3 4 
6145 5 0.17983 0.506375 0.0572091 -1 5 2 
8272 5 0.237809 0.504648 0.0489482 4 6 -3 
7467 5 0.284075 0.468539 0.08952 -2 -3 0 
8779 6 0.0182652 0.521441 0.109121 5 0 -7 
8951 6 0.0555529 0.546676 0.0879295 -3 6 -6 
5696 5 0.264825 0.520954 0.0768921 -4 -4 -2 
6421 6 0.781576 0.527513 0.0711581 -4 -2 1 
8552 5 0.329307 0.623876 0.0201738 0 6 4 
8975 6 0.792272 0.590079 0.071635 -5 0 2 
8577 6 0.889526 0.605095 0.0685225 -2 -6 -2 
7239 6 0.166575 0.655462 0.102307 3 1 3 
6016 5 0.441114 0.619099 0.0653648 -3 -1 -8 
8429 5 0.601354 0.6391 0.0714844 1 11 -4 
7749 5 0.827468 0.617999 0.0743021 -4 -4 3 
5006 5 0.901592 0.668347 0.0744384 -4 7 11 
8034 5 0.404311 0.681069 0.144088 6 2 3 
6381 5 0.295355 0.775153 0.0759056 4 3 1 
5227 6 0.330137 0.73231 0.0896058 -2 0 3 
5574 5 0.233643 0.766526 0.102777 -1 1 5 
6209 6 0.97369 0.751692 0.104678 3 6 7 
7016 6 0.483493 0.770494 0.060189 -5 -5 2 
7852 5 0.646451 0.743979 0.065596 -5 -5 -1 
5914 6 0.844653 0.787678 0.0814876 10 4 5 
6024 5 0.0814141 0.831572 0.102098 4 -1 -8 
6047 5 0.5029 0.824161 0.0668062 0 -1 -4 
5521 6 0.714574 0.837379 0.0832318 4 -1 10 
6735 6 0.738713 0.79394 0.0604578 3 8 3 
8666 5 0.0629704 0.899564 0.0634138 -1 6 11 
7773 6 0.339883 0.882509 0.0831846 1 1 -1 
5865 6 0.54342 0.87764 0.0981161 -6 -2 -3 
7300 6 0.590815 0.82669 0.0637279 -3 5 -3 
6570 6 0.868101 0.821421 0.0757331 -6 -3 2 
6635 5 0.127728 0.883751 0.0634002 -2 -4 -6 
6341 5 0.308249 0.872784 0.0655816 5 3 -1 
5024 6 0.305494 0.976916 0.0868737 -11 -4 5 
6365 5 0.138913 0.950297 0.0828573 3 4 4 
5029 6 0.505482 0.989378 0.0564169 4 -10 -1 
6821 6 0.528487 0.98324 0.0640715 -3 -2 4 
5853 6 0.736891 0.0101297 0.101134 -5 -7 -1 
8256 6 0.0693054 0.045289 0.0673604 0 7 -3 
8246 6 0.417006 0.0202547 0.0963678 3 -5 5 
5362 6 0.565088 0.0448388 0.120887 -3 -1 -6 
7751 5 0.379673 0.108376 0.0880964 -1 -3 -5 
6319 5 0.675699 0.0725051 0.0963916 6 8 -2 
5176 5 0.646551 0.0799771 0.102208 0 -5 2 
5854 5 0.0728025 0.10717 0.100325 3 -3 -11 
8672 5 0.122725 0.123507 0.101305 -2 -7 -2 
8713 6 0.189189 0.104829 0.093336 -7 -6 1 
6633 5 0.692745 0.130151 0.0863419 0 0 0 
7390 5 0.694739 0.124243 0.112387 -1 -2 5 
8884 6 0.04973 0.122429 0.110895 -8 -6 3 
6830 6 0.112071 0.149912 0.143694 3 8 0 
7564 6 0.852943 0.127688 0.0829086 -1 -7 -1 
5293 5 0.290422 0.143879 0.130229 -2 7 -3 
7986 6 0.806433 0.201621 0.100286 5 4 0 
7158 6 0.539989 0.146999 0.125812 6 -9 5 
8798 6 0.721732 0.173719 0.07038 0 4 1 
7253 6 0.603877 0.186589 0.0931219 5 1 0 
5827 6 0.658747 0.185849 0.129018 3 3 2 
5380 6 0.483266 0.248652 0.0777356 2 -2 -5 
6325 5 0.0827487 0.245987 0.0956829 -9 1 0 
7334 5 0.319249 0.241125 0.128215 -6 4 6 
7830 6 0.372735 0.250134 0.0821711 4 1 -3 
5909 6 0.489123 0.207028 0.0933049 8 12 1 
7462 6 0.0253227 0.290565 0.0962949 -5 6 1 
6841 5 0.146663 0.267753 0.0939647 0 9 0 
6482 6 0.627009 0.285833 0.123884 -6 4 2 
5074 6 0.419093 0.306669 0.112388 -9 -3 -4 
8918 6 0.515152 0.328428 0.107681 6 -8 2 
7434 5 0.823331 0.343434 0.106089 -1 -1 11 
7624 6 0.813106 0.343655 0.0974063 5 1 0 
8898 6 0.257875 0.331247 0.107819 2 2 0 
8544 5 0.564948 0.331118 0.104202 -7 2 -1 
6583 5 0.850522 0.322294 0.0979495 -1 -1 0 
8985 5 0.507383 0.357916 0.0839474 3 -1 -4 
6351 6 0.629399 0.375084 0.125429 9 4 9 
7201 6 0.67456 0.361705 0.0999847 0 -8 1 
6247 6 0.874856 0.423134 0.0823047 1 -2 -5 
5580 5 0.957427 0.426398 0.0931525 -1 -3 -3 
8531 5 0.176899 0.431698 0.119502 1 -4 4 
8068 5 0.714239 0.419343 0.127687 -4 -7 4 
7195 5 0.748302 0.461039 0.0958132 -2 -11 3 
6918 6 0.900157 0.434507 0.143424 -3 2 1 
8021 6 0.260013 0.450912 0.156776 7 9 3 
6476 5 0.0212441 0.49709 0.122566 -6 -4 2 
7145 5 0.539829 0.452153 0.0923419 -2 -9 6 
7788 5 0.609015 0.484233 0.0882577 3 -1 0 
7419 5 0.628868 0.519834 0.129399 4 -3 3 
7096 6 0.090117 0.530337 0.0788448 0 -4 7 
5591 6 0.63844 0.55246 0.114001 0 0 0 
6010 6 0.833812 0.526008 0.0956188 -6 0 3 
7972 5 0.409311 0.564196 0.118163 1 -6 -1 
7468 5 0.729412 0.561465 0.081412 0 -7 1 
8205 5 0.0548449 0.608473 0.104593 16 1 -1 
7836 6 0.752101 0.660584 0.124167 -3 -2 8 
6609 5 0.740454 0.679929 0.0876422 -9 -1 1 
6331 6 0.641016 0.683811 0.0946723 -1 4 1 
8024 5 0.339987 0.703848 0.0825149 -4 0 -7 
5295 5 0.95916 0.73555 0.0973239 -6 -7 1 
6166 5 0.334576 0.757004 0.119092 -6 5 -10 
5404 5 0.828765 0.742502 0.0906585 -2 -1 -3 
7504 6 0.0968498 0.757585 0.0996012 7 7 -8 
8917 6 0.402417 0.786158 0.0958417 -2 -1 2 
6706 5 0.498518 0.732702 0.114845 -3 5 3 
5675 6 0.578853 0.755378 0.0751576 11 -8 -5 
8968 5 0.741548 0.765806 0.139198 -2 -2 -4 
6788 6 0.893337 0.762951 0.0712816 15 2 1 
6657 6 0.32549 0.785433 0.132671 6 6 5 
5446 5 0.617522 0.785533 0.111082 3 2 0 
5096 5 0.794648 0.787074 0.106613 -1 1 2 
6742 5 0.335086 0.807565 0.0688984 -1 -4 -4 
5856 6 0.855228 0.839181 0.089659 6 1 -1 
5103 6 0.192987 0.831008 0.100902 -1 -4 -2 
8891 5 0.836444 0.830354 0.104517 8 -10 -3 
7324 6 0.0757395 0.90503 0.0552352 -7 -1 -3 
6926 5 0.372778 0.917451 0.0935731 10 -8 -4 
6571 6 0.745109 0.871014 0.109865 4 -5 -2 
8262 6 0.215276 0.92543 0.115743 5 4 4 
7306 5 0.263397 0.913969 0.0766545 -6 4 -1 
8128 6 0.247412 0.940214 0.112501 -4 1 -4 
5303 6 0.366341 0.90421 0.129256 2 0 -2 
5323 6 0.766 0.94031 0.140645 3 1 2 
7338 5 0.866396 0.9566 0.0862197 2 -4 2 
6961 5 0.817223 0.021236 0.118707 0 4 3 
8277 6 0.103973 0.000307928 0.146599 3 9 3 
8995 5 0.768917 0.0450208 0.117577 7 7 8 
7150 5 0.111353 0.0785649 0.113292 -3 2 5 
7693 6 0.30045 0.0568089 0.110362 7 4 -2 
6776 5 0.485672 0.0687312 0.14179 1 4 3 
5520 6 0.461605 0.097126 0.149556 0 1 5 
6820 6 0.814147 0.0575775 0.0864106 -9 -6 -4 
7224 6 0.296565 0.126083 0.114085 0 7 -2 
8060 6 0.42382 0.133012 0.158302 -3 -2 -3 
5504 5 0.928332 0.168809 0.13868 -4 5 1 
8981 5 0.202568 0.142492 0.137899 0 -5 2 
8931 5 0.309843 0.150935 0.120131 -1 -4 -1 
8497 5 0.190851 0.184431 0.142161 6 -1 -4 
6094 6 0.461269 0.183216 0.152193 -5 5 6 
5494 5 0.492609 0.151799 0.13884 -3 4 1 
6406 6 0.074663 0.202206 0.137653 4 -1 1 
5373 5 0.74246 0.264946 0.140403 9 4 4 
5754 5 0.120037 0.220479 0.140881 9 -2 4 
7216 6 0.798891 0.228949 0.0961278 -4 3 2 
7519 6 0.247367 0.272702 0.148082 2 -1 -3 
8409 5 0.34878 0.263049 0.117799 6 1 1 
8833 6 0.658655 0.278275 0.123817 1 -2 -4 
8961 5 0.986966 0.264192 0.136294 8 -4 4 
8175 6 0.637524 0.2889 0.129258 10 -3 4 
5937 5 0.94807 0.306379 0.14937 -4 -2 -4 
5131 5 0.902409 0.309068 0.141832 3 -6 0 
5297 5 0.127969 0.339995 0.16091 2 0 0 
8027 5 0.265284 0.361737 0.123353 -2 -4 -2 
8121 6 0.302299 0.317557 0.105681 -3 0 3 
7217 5 0.586309 0.313891 0.101475 1 3 -3 
5752 5 0.950362 0.358787 0.105753 -4 0 1 
6294 6 0.782098 0.383295 0.143192 0 -2 2 
6394 5 0.27472 0.395488 0.112026 2 -4 1 
7413 6 0.167017 0.457949 0.156882 -7 1 -7 
7989 5 0.352084 0.453505 0.127932 -1 1 0 
8600 5 0.864491 0.471122 0.106798 -1 -1 -1 
5062 5 0.867277 0.471853 0.149207 0 -11 -4 
8745 5 0.0573438 0.525748 0.105896 6 2 -2 
5140 6 0.69975 0.499889 0.121176 2 -3 -5 
5068 6 0.774703 0.506708 0.132654 -3 3 -1 
8948 6 0.0377193 0.556218 0.0847339 9 6 -3 
8643 6 0.145599 0.545187 0.11466 -3 -3 5 
8063 6 0.176324 0.529941 0.138662 2 5 6 
6964 5 0.894561 0.585306 0.148768 -2 1 4 
5166 5 0.531792 0.579409 0.164 2 5 -4 
5182 6 0.845444 0.608877 0.114537 1 12 2 
6911 5 0.87705 0.590088 0.141605 -1 0 0 
6837 6 0.106443 0.614476 0.151639 6 -7 -3 
8634 6 0.434848 0.623321 0.155089 -3 -16 7 
6184 5 0.506437 0.602438 0.128814 -1 -1 -5 
5308 6 0.56671 0.696204 0.10415 7 -3 5 
7473 5 0.834362 0.681436 0.103983 -4 3 1 
6819 6 0.120902 0.707254 0.122629 4 5 -3 
8290 5 0.874886 0.724142 0.117229 -1 10 4 
8235 5 0.934144 0.708096 0.138136 -1 1 13 
7584 6 0.91684 0.699516 0.128898 -4 2 3 
8512 5 0.975103 0.707195 0.119028 3 4 10 
5491 6 0.0741323 0.761402 0.122434 1 1 5 
8687 6 0.229582 0.745746 0.136504 -7 -10 2 
6768 5 0.370936 0.729022 0.0847019 1 0 -3 
8360 5 0.879826 0.764291 0.141956 5 3 0 
7837 5 0.885592 0.762988 0.126384 0 -9 8 
7912 6 0.0235045 0.799422 0.136551 1 2 -6 
7294 5 0.190884 0.795923 0.132114 -7 0 -3 
7380 5 0.204904 0.789857 0.11363 4 -12 3 
6487 6 0.7453 0.802138 0.10039 -9 -5 2 
6517 6 0.808675 0.847274 0.0993911 3 2 -2 
6434 5 0.676165 0.904925 0.121297 -2 -5 -1 
6759 6 0.0614842 0.964283 0.127303 -3 3 -2 
8674 6 0.778656 0.937297 0.139744 4 1 5 
5460 5 0.792058 0.948436 0.143148 6 -2 -3 
6250 6 0.0927054 0.962094 0.1267 -4 0 1 
5097 5 0.310603 0.940538 0.139454 0 4 -1 
7842 6 0.324356 0.971602 0.112281 9 -5 0 
8358 5 0.630587 0.990284 0.117097 3 -3 3 
8711 6 0.799651 0.95616 0.129543 1 1 -5 
6254 5 0.0447014 0.00265633 0.158299 -1 -1 5 
8259 6 0.298004 0.010853 0.157704 -3 -5 6 
8250 6 0.0691633 0.000695484 0.125436 1 2 -10 
5190 6 0.778376 0.0073679 0.156835 -8 -1 -4 
8894 5 0.868959 0.0608634 0.120633 0 4 -2 
8709 6 0.739049 0.0352827 0.163168 -1 -1 -1 
6274 6 0.985595 0.0602108 0.178654 -2 -2 -3 
7439 6 0.449555 0.115672 0.154815 1 -6 -4 
6140 6 0.699701 0.126068 0.146026 1 -6 6 
5905 5 0.808899 0.0952495 0.135373 4 -3 3 
7875 6 0.283657 0.184612 0.147462 -5 5 1 
5228 5 0.525147 0.184865 0.173225 -1 -2 2 
8562 6 0.658162 0.161767 0.150861 0 2 1 
7805 6 0.827395 0.144001 0.152163 -3 -9 2 
5864 6 0.863237 0.216945 0.16098 6 -1 1 
5369 6 0.836562 0.180432 0.140611 -1 5 -2 
8657 5 0.565562 0.246144 0.117489 -2 3 -5 
5807 5 0.936915 0.244216 0.106504 -6 -4 6 
5214 5 0.473419 0.308191 0.15663 -13 -4 4 
5211 5 0.954651 0.320991 0.164122 0 4 -2 
8005 5 0.219668 0.291358 0.139131 1 2 -5 
5818 6 0.633112 0.279363 0.161176 -11 1 3 
7196 5 0.621629 0.291281 0.177445 2 2 1 
8402 5 0.632074 0.313302 0.143603 -1 7 -4 
8169 6 0.675384 0.331332 0.123379 6 2 1 
8273 6 0.894908 0.3439 0.11612 -12 11 1 
5894 5 0.106874 0.370155 0.138666 -1 -8 4 
6771 6 0.12881 0.340953 0.145869 -7 -3 -4 
8125 5 0.151882 0.371088 0.16533 3 -4 4 
6962 6 0.395164 0.324239 0.122856 -7 -5 -8 
7924 5 0.810474 0.284301 0.168203 -4 -6 -4 
8361 6 0.276857 0.363811 0.12187 -1 2 10 
5038 6 0.0916359 0.402285 0.121095 -1 4 6 
6720 6 0.874515 0.446833 0.145127 0 3 6 
8536 6 0.866053 0.576794 0.131022 2 -1 -3 
7275 6 0.93794 0.523804 0.144336 -3 8 -3 
5708 5 0.225824 0.565778 0.132095 -1 -1 1 
5489 6 0.755129 0.568221 0.175497 3 -1 -5 
5981 6 0.0361652 0.612442 0.141234 -2 -6 2 
7170 5 0.530782 0.612105 0.114636 -2 -6 3 
5923 6 0.210565 0.600156 0.130918 -8 6 -3 
7452 6 0.910404 0.591398 0.153431 -1 7 -6 
7557 6 0.76371 0.672713 0.173585 -1 -1 -4 
8929 6 0.975542 0.690232 0.124245 6 -6 4 
5945 5 0.496533 0.750605 0.138032 -1 1 3 
7906 5 0.748633 0.706654 0.109644 -4 2 1 
7881 6 0.740582 0.707177 0.15776 -2 -3 0 
5186 6 0.840125 0.708379 0.129945 -12 -1 6 
8440 6 0.202929 0.735021 0.147322 3 -5 7 
5128 5 0.615768 0.727152 0.176744 -3 3 -7 
7902 6 0.684971 0.741405 0.145933 3 0 1 
7807 6 0.841742 0.730079 0.156965 -6 2 0 
7290 6 0.642165 0.754302 0.157945 -1 3 5 
8100 6 0.733095 0.785664 0.167715 6 -11 3 
7314 5 0.0607666 0.785051 0.125622 7 7 1 
5850 6 0.127163 0.790749 0.116174 1 -4 2 
5082 6 0.358164 0.811045 0.16194 5 -7 5 
8029 6 0.768859 0.821932 0.189995 3 0 4 
8459 5 0.876409 0.847031 0.160969 -3 -2 -6 
5524 6 0.843871 0.823993 0.145802 0 4 -3 
8177 5 0.901513 0.830063 0.127661 -4 5 -1 
7597 5 0.238586 0.837245 0.138956 4 -2 0 
6380 5 0.961095 0.845798 0.181311 4 3 -9 
8445 5 0.115207 0.901163 0.212474 5 -1 0 
7460 6 0.514101 0.8803 0.13239 -8 2 10 
6850 6 0.990516 0.889158 0.15093 -3 3 1 
7507 5 0.00127103 0.903855 0.189893 0 2 -2 
6074 6 0.876102 0.864893 0.15641 9 -9 -4 
8648 6 0.0548009 0.922668 0.0960822 0 -8 5 
5811 6 0.301243 0.973775 0.153203 3 -4 -6 
8042 5 0.86038 0.899547 0.14772 5 0 -2 
7054 6 0.21491 0.951088 0.153782 5 -2 0 
8203 6 0.500731 0.926887 0.16469 4 -5 -2 
8053 6 0.812618 0.92642 0.145357 0 11 0 
6215 5 0.292725 0.941628 0.129264 3 6 4 
7336 5 0.611915 0.97546 0.115183 -2 -2 0 
6669 5 0.674143 0.988742 0.119006 2 7 -1 
5329 6 0.106219 0.966622 0.173453 -3 -2 -13 
5785 6 0.444431 0.992047 0.188589 -4 -1 -5 
8774 5 0.400202 0.975899 0.192217 7 5 -1 
8605 5 0.787974 0.0744063 0.170032 -6 5 -4 
8218 6 0.797857 0.00821179 0.169386 5 -11 -2 
8742 6 0.10209 0.0512571 0.16182 1 -5 -7 
8543 5 0.456051 0.0291143 0.167379 1 7 9 
7876 5 0.504717 0.0704315 0.193174 -1 0 2 
7469 5 0.830349 0.0693179 0.143396 -5 -3 10 
7491 6 0.190725 0.0863928 0.164347 2 1 4 
5230 6 0.155574 0.0747616 0.149905 -5 3 4 
6505 5 0.281652 0.0716557 0.144607 5 2 1 
6392 6 0.419383 0.0667382 0.17028 2 9 2 
5058 6 0.048037 0.144376 0.178469 6 2 -1 
7915 5 0.49193 0.0962228 0.185074 -6 -10 -8 
8391 6 0.778863 0.0882495 0.164211 -6 -2 -3 
6019 5 0.0894536 0.146671 0.178411 5 -2 2 
5246 6 0.707691 0.170659 0.218667 -1 0 2 
7045 6 0.196891 0.177405 0.203638 -3 -4 1 
8990 6 0.920774 0.153196 0.175299 1 -1 3 
5277 5 0.034261 0.15797 0.184973 -3 -1 -1 
7099 6 0.0218651 0.235165 0.192195 -5 3 -6 
5760 6 0.980043 0.270929 0.156078 1 0 -4 
7770 6 0.442476 0.19816 0.213142 2 -1 1 
8575 6 0.696055 0.220952 0.1408 -4 -3 3 
8208 6 0.744962 0.229297 0.13605 2 12 10 
5667 5 0.460685 0.273174 0.182947 0 -6 -3 
8140 5 0.474022 0.272215 0.192054 -4 0 4 
7975 6 0.819423 0.240637 0.184983 4 -10 -5 
6607 6 0.981701 0.299229 0.167385 -1 0 0 
7787 6 0.0380621 0.302761 0.162252 -1 9 4 
6078 6 0.626577 0.326479 0.158829 -4 -4 4 
5442 6 0.200091 0.339686 0.179624 5 4 -3 
5376 5 0.312479 0.384351 0.215437 4 -1 -2 
8859 6 0.558255 0.351056 0.178516 -1 -2 7 
8057 5 0.721399 0.366194 0.1523 1 5 1 
5639 5 0.2266 0.359529 0.202716 0 0 2 
6046 6 0.0041277 0.418129 0.168777 -5 -3 -3 
5281 5 0.916606 0.390397 0.159091 -4 -3 -8 
6246 6 0.425708 0.445113 0.165583 0 -1 4 
8142 6 0.59309 0.42852 0.173594 3 1 -1 
6317 6 0.566848 0.426661 0.175241 6 -4 7 
5248 6 0.941493 0.40651 0.18136 -4 -4 -2 
5863 6 0.939694 0.447061 0.212478 2 8 3 
8926 6 0.421823 0.483782 0.182302 -2 2 -5 
8972 5 0.64014 0.487692 0.193849 -6 -5 -2 
7283 5 0.172202 0.494057 0.189862 -2 2 0 
6664 6 0.852868 0.531586 0.196102 0 -6 -5 
6803 5 0.963815 0.52871 0.178118 3 2 -6 
6612 6 0.515432 0.51363 0.164939 -1 3 -4 
8269 6 0.784423 0.512395 0.151812 1 -5 2 
5237 5 0.450548 0.572953 0.158982 7 -12 1 
7935 6 0.0305166 0.541206 0.148954 1 -4 -1 
7063 5 0.0965578 0.605192 0.171493 5 -4 2 
5646 6 0.36137 0.598509 0.174129 7 0 5 
5763 6 0.780387 0.596105 0.196052 3 6 1 
8724 5 0.912008 0.615177 0.16342 3 8 5 
8614 5 0.0618649 0.589053 0.180822 0 4 -3 
5004 6 0.112785 0.611639 0.18215 -10 5 0 
6422 5 0.501908 0.60776 0.119471 2 2 5 
6035 6 0.545513 0.586381 0.179326 -10 1 1 
5709 6 0.204661 0.656276 0.149499 -9 -1 0 
8136 6 0.488481 0.650236 0.159214 -3 -3 -4 
7245 5 0.641542 0.645968 0.165613 -11 -8 -9 
7524 6 0.361988 0.706208 0.179144 2 5 4 
5168 5 0.403353 0.670649 0.187775 0 -10 -1 
6120 6 0.605998 0.718857 0.202196 4 -2 -3 
8553 5 0.376456 0.748172 0.164758 5 -5 8 
6491 5 0.608131 0.733584 0.164516 -4 -12 2 
7298 5 0.664225 0.698602 0.159575 2 6 1 
7148 6 0.744561 0.775714 0.174974 -1 -9 -8 
7796 6 0.693307 0.813609 0.190447 2 -3 -3 
5319 5 0.398918 0.823815 0.149255 -5 -1 -8 
6028 5 0.408267 0.884723 0.15362 -1 1 -2 
6288 6 0.394689 0.888424 0.143773 8 4 -1 
7821 6 0.7061 0.887258 0.221257 9 -10 -11 
8341 5 0.261649 0.881097 0.183149 -1 -3 -6 
6779 5 0.545817 0.902259 0.192009 4 1 -2 
8928 5 0.188127 0.90224 0.149454 1 0 3 
5665 6 0.163434 0.961239 0.162913 -1 0 6 
8243 6 0.325244 0.879732 0.17698 -1 -10 0 
5669 5 0.405559 0.957186 0.166453 0 0 0 
5514 6 0.470081 0.925019 0.161072 -1 -7 -10 
7513 6 0.734076 0.914367 0.161449 -8 3 1 
5345 6 0.381138 0.940543 0.172002 2 -5 8 
6784 5 0.590094 0.92275 0.185324 -4 -1 7 
7347 6 0.695299 0.891764 0.156046 -1 8 6 
7816 5 0.335274 0.948647 0.174295 3 2 -1 
8201 5 0.82479 0.968461 0.151649 4 -4 -5 
7280 5 0.600747 0.993698 0.1843 -4 3 -1 
8760 5 0.849639 0.965996 0.188833 -2 -3 5 
7374 5 0.0374508 0.0344329 0.178731 2 8 -3 
7901 6 0.550631 0.0704646 0.191725 0 1 5 
5146 6 0.945046 0.0806354 0.201775 7 3 -2 
8231 5 0.340324 0.0883287 0.184425 1 -6 3 
7690 5 0.733335 0.0750782 0.200362 5 -5 1 
8557 5 0.00919535 0.108612 0.206407 2 2 -1 
6298 5 0.0964819 0.151648 0.172126 4 4 3 
5693 5 0.517621 0.124968 0.193792 -2 0 -2 