ITEM: TIMESTEP
20000000
ITEM: NUMBER OF ATOMS
9000
ITEM: BOX BOUNDS pp pp pp
-75 75
-75 75
-75 75
ITEM: ATOMS id type xs ys zs ix iy iz 
7822 5 0.548938 0.0528763 0.00849959 -3 1 -1 
6371 6 0.42575 0.0723444 0.00379095 3 2 2 
8870 6 0.872557 0.0571434 0.0204016 -5 -4 -3 
6768 5 0.522996 0.0884249 0.0348844 -2 -2 1 
7055 6 0.901656 0.123766 0.0202521 -1 0 -7 
5628 5 0.0211058 0.123043 0.0232729 5 3 1 
5574 6 0.688001 0.106922 0.00657776 -4 -2 5 
7795 6 0.125683 0.137141 0.97275 6 -7 2 
5584 6 0.640377 0.127341 0.994906 -1 1 -2 
8748 6 0.99919 0.150459 0.014584 1 0 -2 
7802 5 0.473723 0.15981 0.0249477 -4 1 -4 
8701 6 0.768958 0.151743 0.0451164 -1 0 -4 
8447 6 0.322175 0.172293 0.0398748 -6 -4 1 
7652 5 0.556491 0.242046 0.0235745 2 1 3 
5377 6 0.68272 0.206002 0.993009 1 6 3 
8642 6 0.342304 0.240603 0.000630096 -6 1 0 
8913 6 0.565362 0.249599 0.0137406 -1 -1 -2 
7004 5 0.152998 0.273376 0.994853 6 -4 -1 
6688 6 0.312503 0.268224 0.0346137 -1 2 6 
8515 6 0.317334 0.249086 0.00123421 -2 0 0 
7878 5 0.566899 0.272616 0.989117 1 4 3 
8915 6 0.680932 0.285767 0.0177252 1 -1 1 
5012 5 0.141155 0.286654 0.0137873 4 -2 4 
7176 6 0.301091 0.269625 0.0221253 -1 -1 -1 
6919 5 0.027511 0.292238 0.022986 0 -2 -2 
8360 5 0.468811 0.340873 0.0349849 1 -2 2 
8313 5 0.653419 0.286483 0.974571 2 4 -4 
6011 5 0.991705 0.332825 0.991643 -1 3 -2 
5147 5 0.516676 0.288234 0.991464 -2 -3 -3 
8872 6 0.884503 0.366289 0.99605 -7 2 1 
6229 5 0.00760894 0.430367 0.0106735 0 3 1 
8951 6 0.114007 0.388104 0.98598 0 2 -1 
8354 5 0.933512 0.379481 0.0265264 4 1 -2 
5353 5 0.414345 0.381945 0.0183702 1 3 0 
6228 5 0.410518 0.452896 0.995713 3 -4 -2 
7495 6 0.0307687 0.460442 0.993374 3 2 -1 
6893 6 0.15307 0.452649 0.0606645 5 4 0 
8261 5 0.332191 0.452064 0.00255059 -5 3 1 
6456 6 0.384668 0.406105 0.00196755 1 0 0 
8656 5 0.651524 0.46529 0.0274889 1 -3 3 
8829 6 0.777073 0.497289 0.0126083 1 1 2 
5080 6 0.758528 0.530007 0.9768 2 4 -8 
8326 6 0.96341 0.501717 0.0101207 -3 2 1 
8530 5 0.573106 0.551625 0.00313401 -5 4 -4 
6730 5 0.858825 0.528643 0.0262684 -2 -2 3 
6121 5 0.369845 0.494703 0.0351451 -1 -1 2 
5224 6 0.50804 0.55453 0.034736 1 -3 -2 
5654 6 0.645118 0.516327 0.0132617 1 -1 5 
5738 6 0.865525 0.559098 0.998092 -1 5 -1 
6235 5 0.327109 0.561911 0.025207 -2 0 -3 
8130 6 0.559897 0.54379 0.000249833 -2 -4 1 
6630 6 0.741817 0.565335 0.982171 -6 -1 -3 
5477 5 0.0530624 0.594596 0.0250052 2 3 2 
8758 5 0.175732 0.64046 0.0236393 3 4 1 
7186 6 0.547347 0.655282 0.0126579 3 -1 4 
7325 6 0.155092 0.682418 0.00186843 1 -1 -5 
8658 6 0.706998 0.656212 0.0210727 0 2 2 
6085 6 0.449843 0.697055 0.986375 3 -1 -1 
6327 5 0.44389 0.706887 0.0492894 5 -6 -2 
5038 6 0.436185 0.692746 0.0207752 -1 -5 6 
6770 5 0.987947 0.694487 0.0354872 0 -4 1 
5940 5 0.522158 0.718037 0.0197019 6 -1 2 
5770 6 0.594479 0.728159 0.0209716 1 0 -2 
7545 6 0.657246 0.741211 0.070683 0 -2 -3 
6081 6 0.916018 0.716365 0.00436083 5 2 -4 
7169 6 0.993313 0.769992 0.027734 -1 1 4 
5699 5 0.184477 0.730667 0.0293412 1 3 1 
8761 6 0.480627 0.76978 0.03116 1 -2 -3 
6188 5 0.500039 0.767701 0.0430996 -2 4 2 
7706 6 0.740847 0.757119 0.00859996 -1 -3 4 
8667 5 0.111432 0.803728 0.0153693 1 -3 -4 
7639 5 0.277734 0.806819 0.989822 1 -1 0 
6477 5 0.0115088 0.775455 0.0377394 5 -4 -1 
5866 6 0.290998 0.817213 0.0361337 -3 1 1 
7774 5 0.492885 0.863528 0.0105222 1 0 -1 
6110 6 0.494164 0.807033 0.975367 0 4 -2 
8782 5 0.620632 0.787244 0.0340368 3 1 -1 
8649 5 0.130906 0.871217 0.991563 1 -2 0 
5436 5 0.691197 0.822737 0.00884892 2 -2 0 
8128 5 0.763808 0.809918 0.0297263 -4 0 5 
6129 5 0.789836 0.826228 0.0216188 -1 -4 4 
5865 5 0.258005 0.849704 0.00971089 1 0 0 
7189 6 0.433918 0.881449 0.987771 7 -1 -9 
6952 5 0.289517 0.937308 0.0234308 -3 0 -1 
7225 6 0.301123 0.914277 0.0508933 -4 1 -5 
8478 5 0.952841 0.899863 0.0195572 -1 0 -1 
5134 6 0.179601 0.951743 0.0560751 1 -3 1 
5168 5 0.436756 0.955543 0.00859749 2 2 -2 
6968 5 0.722093 0.933497 0.992867 3 1 0 
5664 6 0.921163 0.0650404 0.0326281 1 3 0 
8187 6 0.23204 0.0929466 0.0581751 -2 1 -3 
5618 5 0.557184 0.0962506 0.0696198 -2 -1 -2 
5452 6 0.24516 0.069423 0.0544124 -1 2 0 
5392 5 0.913549 0.163629 0.0495403 0 -2 0 
8136 6 0.920882 0.0900899 0.03761 0 -1 2 
8250 5 0.265863 0.126978 0.0661372 2 -2 4 
5379 5 0.367313 0.122053 0.00168599 -5 -1 -1 
5780 5 0.6707 0.184379 0.996007 1 -1 -4 
5417 6 0.287525 0.173907 0.0217513 4 5 4 
8444 6 0.4596 0.17753 0.0351117 -3 1 -2 
8322 5 0.212288 0.177775 0.0218691 6 -1 1 
6300 6 0.837202 0.248436 0.0418918 1 -1 0 
6315 5 0.988806 0.20224 0.999303 1 0 1 
5806 6 0.453473 0.249876 0.0260694 1 -4 4 
8335 5 0.727058 0.273879 0.0326873 1 -5 -1 
5617 6 0.978807 0.255991 0.0284843 -1 3 1 
6795 6 0.0494063 0.267331 0.999236 0 -4 0 
7437 6 0.130352 0.276553 0.0518029 5 1 0 
7608 5 0.116779 0.29423 0.0635456 0 4 1 
7986 6 0.536359 0.354741 0.0280397 6 -4 1 
7879 6 0.591921 0.344721 0.0509545 -4 -2 4 
7831 5 0.0957511 0.389904 0.0217609 1 -2 4 
6903 5 0.309828 0.396917 0.0396893 -2 3 -1 
8169 5 0.380827 0.381702 0.00593558 2 1 0 
5334 5 0.358025 0.391202 0.00959052 3 1 -6 
8038 6 0.983327 0.438639 0.998306 2 -3 0 
7389 5 0.174991 0.419995 0.0708747 0 3 5 
7780 6 0.738572 0.420938 0.0563551 1 2 2 
7809 5 0.102377 0.413172 0.0386883 1 4 8 
6929 5 0.399874 0.514854 0.00668477 6 1 -1 
6261 5 0.630586 0.476887 0.04097 1 1 2 
5025 5 0.310516 0.560517 0.0481141 2 0 0 
5745 6 0.65484 0.487875 0.0392216 5 3 2 
7069 6 0.798563 0.477475 0.0301319 0 0 5 
6827 5 0.0403804 0.586943 0.0568803 6 1 1 
7675 6 0.652592 0.548717 0.0200086 0 3 3 
7119 5 0.990383 0.571366 0.0432841 4 5 -3 
7468 5 0.0496812 0.614212 0.0464717 -1 2 -3 
7320 6 0.432765 0.624144 0.997722 -2 4 -2 
7049 5 0.42603 0.677718 0.0111728 4 -2 2 
8456 6 0.491067 0.688414 0.997024 4 -1 -5 
5869 5 0.513264 0.681779 0.000665346 -5 -4 4 
8981 6 0.143787 0.695621 0.0351089 -2 3 1 
6525 6 0.434785 0.702263 0.0296193 -3 -2 0 
7298 5 0.362598 0.645976 0.00201747 -2 -1 -2 
6552 6 0.792702 0.676286 0.0264662 -5 -4 -1 
8231 6 0.961387 0.705102 0.0115197 0 -5 4 
7684 6 0.416124 0.693138 0.0222661 3 -5 -2 
6983 5 0.460332 0.711908 0.0125827 2 4 1 
5696 5 0.989351 0.74696 0.0266254 0 -3 2 
5916 6 0.876738 0.752674 0.0391157 -2 2 0 
8832 6 0.601211 0.809923 0.0258253 -2 0 -1 
7047 6 0.766642 0.802832 0.0197649 -3 2 3 
7397 5 0.953818 0.828219 0.0600028 2 1 0 
7064 5 0.770524 0.871026 0.0644397 -1 -3 -2 
7172 5 0.870717 0.852157 0.0278391 2 -5 7 
8458 6 0.894933 0.90711 0.0307078 1 -4 2 
6899 5 0.547116 0.972325 0.0452238 -4 0 3 
5834 5 0.739575 0.911304 0.0563488 5 0 2 
6504 5 0.250038 0.947938 0.0258374 -1 1 0 
8697 5 0.686831 0.984192 0.0117451 4 0 1 
7509 5 0.305112 0.0112775 0.00696819 -5 4 0 
5163 5 0.963081 0.991182 0.059908 -3 -1 -6 
6865 5 0.137332 0.0708767 0.0942777 -6 -2 2 
7590 6 0.668614 0.0329649 0.0614049 3 -1 -2 
8854 5 0.298371 0.0767989 0.0485274 3 5 -1 
7422 5 0.618015 0.0502549 0.0716982 -2 -6 -1 
5252 5 0.665303 0.0142448 0.0443193 -1 -2 -4 
8152 6 0.523181 0.076495 0.0359769 2 -3 -3 
5042 5 0.0235463 0.0741538 0.0701949 4 -5 0 
8295 6 0.276443 0.124573 0.0577299 4 2 3 
5178 5 0.54471 0.08754 0.0928555 4 3 -1 
5681 5 0.708961 0.118534 0.0719117 3 2 4 
7140 6 0.875125 0.0817743 0.0666307 2 0 3 
7093 6 0.127339 0.103642 0.0554109 -1 6 -1 
7054 5 0.323606 0.12941 0.0478856 0 -2 4 
6566 6 0.324588 0.116596 0.061024 0 1 2 
6998 5 0.457057 0.171556 0.0448142 -1 0 -1 
6375 6 0.784675 0.131577 0.0664465 -3 3 -2 
5446 5 0.900633 0.116403 0.0436227 -4 -2 -1 
8910 6 0.0765594 0.194576 0.0948197 2 0 -3 
6002 5 0.261116 0.151678 0.0715647 3 1 3 
5043 6 0.7977 0.186819 0.0388187 -3 -2 -4 
6313 6 0.283451 0.189965 0.0927942 -3 0 1 
5863 6 0.963856 0.181196 0.0346047 2 -3 3 
6439 6 0.492248 0.190715 0.0508352 -2 3 4 
8641 6 0.994995 0.220756 0.0505066 -2 -1 -2 
8967 5 0.56177 0.228033 0.0366946 4 -2 -2 
8318 6 0.373051 0.276628 0.0679022 -1 -1 2 
7443 6 0.726106 0.276724 0.0917596 -1 -3 5 
8837 5 0.196308 0.289087 0.0727575 5 -3 7 
8117 5 0.440131 0.313883 0.0771759 4 0 5 
6016 5 0.658939 0.317657 0.0687362 4 0 0 
6293 6 0.670033 0.313173 0.0323141 2 4 1 
6020 6 0.346393 0.372451 0.0587022 -1 1 1 
7517 5 0.64782 0.341918 0.0316509 2 -2 -5 
6936 6 0.755605 0.338712 0.0521366 0 2 0 
7335 6 0.580914 0.322299 0.109641 0 3 -4 
6603 5 0.995284 0.332643 0.0547645 -1 4 -6 
6350 6 0.134659 0.405922 0.0730718 -3 -3 4 
6136 6 0.939421 0.394385 0.058633 -2 -1 -6 
8286 6 0.962134 0.413741 0.00574399 -1 1 2 
7607 6 0.164519 0.451782 0.0673331 2 5 -3 
7750 6 0.232871 0.486418 0.0689878 -2 -2 1 
6373 5 0.68832 0.489414 0.0400894 2 -1 -2 
5796 5 0.762927 0.486416 0.0550038 -3 5 2 
8158 5 0.818914 0.476128 0.0443745 4 -1 -1 
5297 6 0.234875 0.493871 0.0586653 3 2 -1 
5450 6 0.316691 0.484036 0.0577484 0 -3 2 
8328 5 0.433499 0.478574 0.0503667 1 2 -4 
8582 6 0.617372 0.481592 0.0301701 -5 1 1 
6346 6 0.746338 0.475185 0.066512 -4 -3 3 
6635 6 0.826305 0.536287 0.0675523 -2 -1 0 
7844 6 0.238443 0.571354 0.035571 2 3 4 
7114 6 0.252468 0.559537 0.104804 -5 1 1 
5543 6 0.466908 0.562586 0.0892117 0 -3 -3 
5978 6 0.4348 0.570244 0.0257585 -1 0 2 
8905 5 0.816741 0.555926 0.0461249 1 1 -2 
5230 6 0.991261 0.550178 0.0331423 -1 -4 0 
5832 6 0.426692 0.577583 0.0649813 2 -1 -1 
8770 5 0.860247 0.551714 0.0735904 5 7 3 
7349 5 0.403525 0.598106 0.0529043 3 0 2 
5911 6 0.631996 0.633265 0.0299016 0 2 0 
8160 6 0.760134 0.616768 0.0386901 0 -4 -6 
8257 6 0.902557 0.670598 0.0420459 0 0 3 
6717 5 0.00713022 0.663863 0.0458164 -3 -2 3 
7562 6 0.236652 0.698565 0.0641546 -2 3 1 
8839 6 0.0664731 0.700035 0.0816687 -3 0 -2 
5492 5 0.992374 0.685161 0.0770607 2 4 1 
6097 6 0.49822 0.737102 0.0574181 5 1 3 
6052 5 0.731768 0.699969 0.085647 -2 5 5 
5718 6 0.154971 0.772776 0.0588544 0 -3 3 
6522 6 0.579579 0.8005 0.0663031 -2 -1 7 
7485 5 0.468856 0.772092 0.0294171 -2 -3 -2 
8625 6 0.632613 0.800783 0.0377091 2 3 1 
7726 5 0.886109 0.768806 0.0463803 -1 -1 3 
7217 6 0.140657 0.842208 0.0338782 1 -5 2 
5382 5 0.394259 0.82666 0.073171 3 1 1 
7786 5 0.724414 0.777086 0.0855456 2 2 4 
5476 6 0.0894998 0.852483 0.0423045 -1 -5 -2 
7992 6 0.747472 0.867122 0.0439575 1 0 -5 
5199 5 0.815573 0.890187 0.0420712 -5 2 -3 
8392 5 0.267139 0.890047 0.0300373 0 2 3 
7394 6 0.452657 0.883285 0.0893589 -2 0 1 
7612 6 0.461155 0.93543 0.0715702 -4 0 1 
7350 5 0.862433 0.909869 0.058704 -3 -1 -3 
7262 6 0.420346 0.897856 0.0666377 3 5 0 
5167 6 0.444008 0.919896 0.045239 1 2 0 
5754 5 0.700824 0.951225 0.0690931 0 -1 2 
5839 6 0.0302234 0.00766818 0.0621327 -2 3 3 
6417 5 0.709018 0.0635468 0.0559911 -3 1 -4 
8026 5 0.194577 0.991349 0.0896424 1 -2 1 
8431 6 0.102465 0.104284 0.0860393 0 -1 -2 
7976 5 0.533162 0.0778499 0.0732687 -2 0 -1 
7849 5 0.121638 0.157537 0.061041 3 5 4 
8859 6 0.728757 0.127802 0.0674479 -5 1 -2 
7832 5 0.217095 0.146152 0.0792796 6 -2 3 
5675 5 0.298806 0.114794 0.1077 1 0 3 
6995 6 0.998824 0.203301 0.0813378 -2 1 -6 
8923 6 0.053028 0.125682 0.101533 1 3 0 
8438 6 0.20356 0.195031 0.0738535 -1 1 0 
8210 6 0.553847 0.202577 0.0717668 1 -3 3 
5094 5 0.946326 0.143918 0.0882352 -3 -3 3 
5688 5 0.213778 0.175901 0.112021 5 -3 -3 
6884 6 0.827934 0.208291 0.078897 1 -1 -4 
5276 6 0.80732 0.233515 0.0814486 2 1 -5 
5837 5 0.0151146 0.313738 0.099355 -1 -6 1 
5920 6 0.365813 0.28369 0.0895867 7 -1 1 
7677 6 0.454104 0.273892 0.138888 -1 1 -1 
8996 6 0.753624 0.291891 0.0613718 -3 2 0 
8179 5 0.566726 0.316425 0.0679726 0 -4 -2 
8785 6 0.596171 0.308816 0.0622902 1 -1 0 
6748 5 0.621129 0.283479 0.0724696 -1 4 0 
8050 5 0.705786 0.258933 0.0924581 -3 1 0 
8197 5 0.814595 0.318226 0.0942515 -3 -1 0 
7097 5 0.864723 0.304149 0.0610755 0 2 2 
7438 5 0.56926 0.365112 0.0593561 2 -1 -3 
7725 6 0.623433 0.368803 0.0964249 -2 3 0 
7253 6 0.237501 0.395113 0.0965966 1 1 6 
5478 6 0.736308 0.364827 0.0179164 0 -3 2 
7337 6 0.645064 0.429402 0.0704319 4 5 4 
7611 6 0.922784 0.428333 0.0884797 2 -2 1 
6146 5 0.206778 0.41321 0.0729812 4 0 2 
6551 6 0.281835 0.491478 0.0534781 0 0 3 
5891 6 0.796861 0.439101 0.113807 3 0 -3 
6735 5 0.904514 0.425356 0.0745939 -2 5 10 
7113 6 0.348746 0.483829 0.0711337 -6 -9 -1 
7805 6 0.455003 0.452817 0.109562 1 -1 -2 
5102 6 0.830092 0.486456 0.0858652 -1 3 1 
6817 6 0.742922 0.50249 0.12558 -3 5 -2 
6609 6 0.0226394 0.555481 0.0491968 0 3 -2 
8533 5 0.410381 0.51064 0.0422675 1 2 -2 
7155 6 0.395869 0.541025 0.079022 3 -1 2 
6588 6 0.817315 0.549479 0.0794948 -1 1 2 
7092 6 0.828435 0.542576 0.072338 -4 -7 2 
5564 6 0.903201 0.518645 0.0755319 -1 0 4 
7969 6 0.742743 0.530013 0.0485573 1 -4 0 
8577 6 0.652126 0.6386 0.0744764 -6 -3 4 
5186 6 0.838345 0.617848 0.0914356 1 0 -3 
5022 5 0.965317 0.636563 0.0947719 2 -2 2 
6066 6 0.486944 0.662785 0.0864364 0 2 3 
6854 5 0.906479 0.644326 0.081601 0 -4 0 
5607 5 0.996038 0.650377 0.0683781 -2 1 -3 
7815 5 0.845437 0.707155 0.0690005 0 -5 -2 
5138 6 0.821225 0.715971 0.108706 5 -1 -2 
7539 6 0.900292 0.724928 0.0602594 2 4 1 
5971 6 0.690531 0.719602 0.0907466 -2 3 -1 
6145 6 0.510294 0.750954 0.0687259 -2 0 -5 
8076 6 0.0225247 0.743832 0.0852447 3 3 4 
6331 6 0.982777 0.771229 0.0791738 1 1 2 
7665 6 0.236871 0.83794 0.0298508 0 2 0 
6698 6 0.258775 0.828825 0.0747633 3 -1 6 
5407 6 0.628917 0.818231 0.0612918 -1 3 0 
6996 6 0.0943684 0.849502 0.112787 -4 -6 3 
5826 5 0.993429 0.799794 0.0640207 1 1 -1 
7775 5 0.035646 0.84563 0.0740324 5 2 0 
7645 6 0.56869 0.857799 0.0761781 -5 0 2 
8299 6 0.913769 0.874542 0.0386463 -2 0 1 
6092 5 0.566867 0.88727 0.0270699 4 -2 0 
5498 6 0.627964 0.909114 0.0629393 5 -1 -3 
7233 5 0.838318 0.922603 0.0836851 -4 -3 1 
8988 6 0.733505 0.906284 0.120546 1 3 5 
5966 5 0.936033 0.895711 0.0468785 -1 -8 -3 
6517 5 0.0125855 0.962277 0.0847492 -2 -5 -2 
5203 5 0.42955 0.942523 0.0693468 1 2 -4 
8430 5 0.614617 0.948139 0.0617897 -2 -5 -1 
6156 5 0.0415568 0.967989 0.0643308 -6 -6 4 
5048 6 0.121923 0.0140827 0.105254 -4 -1 -2 
5122 5 0.661382 0.0386814 0.0914629 -1 0 0 
6570 5 0.835858 0.0301811 0.106583 -1 4 -3 
6584 6 0.841755 0.00679428 0.0821153 4 2 -2 
5608 6 0.267768 0.052285 0.0536365 4 -1 0 
7452 6 0.318793 0.0391022 0.119978 0 5 1 
5935 6 0.334856 0.0846114 0.1144 6 0 -3 
8889 5 0.566891 0.0651506 0.105049 -1 -2 2 
5074 5 0.366301 0.0820424 0.0650844 5 1 2 
6405 6 0.462059 0.0756234 0.103849 5 -3 -1 
8573 6 0.147322 0.0886683 0.108284 -1 5 -1 
8146 5 0.805099 0.091395 0.0648741 -1 1 1 
5535 5 0.631339 0.0826745 0.095837 4 1 0 
5340 5 0.791637 0.107401 0.0941588 1 -1 1 
7449 6 0.41134 0.140322 0.101291 -5 3 -1 
8010 5 0.524643 0.126411 0.0995631 0 0 3 
7580 5 0.653205 0.12264 0.0900998 0 -2 3 
5822 5 0.091004 0.159581 0.109964 -3 5 -1 
6708 6 0.886363 0.175609 0.127095 2 -2 3 
7035 5 0.993919 0.159207 0.108636 -6 -2 -7 
8312 5 0.173956 0.228475 0.141904 5 0 0 
6318 5 0.283506 0.224403 0.0859897 3 0 -2 
6428 6 0.411074 0.238948 0.0885093 -5 -3 -1 
6147 5 0.815448 0.248428 0.11482 5 -3 -1 
8373 6 0.150384 0.258414 0.11708 -6 1 -1 
6754 5 0.782368 0.255709 0.114201 -3 1 3 
6442 6 0.908834 0.260457 0.106884 -4 2 3 
7668 6 0.731188 0.293837 0.0979564 -3 0 2 
5222 5 0.600139 0.353472 0.099267 3 -7 3 
7454 6 0.686714 0.362451 0.110988 -3 1 -4 
6548 5 0.770509 0.34118 0.100545 -6 -4 4 
8432 6 0.0141491 0.392901 0.14726 -1 -5 2 
7543 5 0.0982764 0.360548 0.112601 1 1 -1 
8895 5 0.798606 0.374085 0.164935 2 -6 3 
5030 6 0.701416 0.435383 0.0798099 1 0 -5 
7456 6 0.888079 0.456972 0.0824205 2 5 -5 
6653 5 0.940644 0.455664 0.136434 4 4 -2 
8720 6 0.968242 0.461824 0.0796368 0 1 0 
8756 6 0.589445 0.467805 0.128218 -3 0 1 
6656 5 0.479814 0.526326 0.11488 -3 1 4 
6665 6 0.791432 0.524205 0.0527169 3 -4 0 
6240 6 0.811541 0.560475 0.106554 -2 3 -2 
7586 6 0.82375 0.563326 0.124974 0 0 3 
7274 6 0.855251 0.530481 0.0714056 -2 2 3 
8048 5 0.0777804 0.632022 0.121461 4 -1 2 
6902 6 0.119325 0.595818 0.0941637 0 -1 1 
5011 6 0.194563 0.553403 0.100904 3 1 -5 
6511 5 0.323487 0.629063 0.0947432 -2 0 -1 
5627 5 0.395008 0.630558 0.112934 -2 -1 0 
8201 5 0.963194 0.619778 0.0879191 0 -2 -2 
6219 5 0.0339836 0.633756 0.108337 5 4 -8 
8243 6 0.0534729 0.639658 0.143197 0 3 -1 
7168 5 0.221621 0.663929 0.0853494 2 0 -3 
7913 5 0.440432 0.610969 0.121766 -3 -1 -2 
7927 5 0.242934 0.617129 0.150901 2 -2 1 
6022 6 0.0333199 0.661584 0.0968757 2 6 3 
5968 5 0.198164 0.636948 0.130233 4 3 -3 
6833 6 0.139565 0.67577 0.130615 0 1 5 
6135 6 0.434688 0.69693 0.0823231 4 -6 -1 
5772 5 0.533369 0.681607 0.104549 -2 -8 0 
5614 6 0.586883 0.686097 0.100797 0 0 1 
6469 5 0.797662 0.690867 0.12348 -2 -2 -2 
7432 5 0.890667 0.686909 0.0927529 1 3 -1 
5423 6 0.995477 0.669521 0.119187 0 0 2 
6913 5 0.968783 0.696272 0.136682 -2 3 2 
8615 5 0.34926 0.697786 0.0999023 -5 -1 3 
6746 5 0.761675 0.71314 0.096145 1 -2 0 
7744 6 0.866494 0.725671 0.127286 -1 5 -2 
7811 5 0.0975424 0.78911 0.105031 -1 2 3 
8790 6 0.573403 0.753866 0.108957 3 0 0 
8806 6 0.564079 0.741856 0.127082 -2 -1 -4 
8042 5 0.707062 0.773817 0.102726 0 -4 -8 
7559 6 0.806285 0.750683 0.0813772 0 4 -1 
7464 5 0.969064 0.771218 0.100367 -5 1 2 
8753 6 0.026192 0.775969 0.0830663 -2 -1 1 
8555 6 0.663886 0.812543 0.102714 -1 -2 2 
8121 5 0.997091 0.76988 0.10802 1 1 1 
7010 5 0.23127 0.802299 0.0800771 1 1 0 
8332 6 0.376124 0.821919 0.0886004 1 1 0 
7761 5 0.136937 0.831211 0.100385 0 -1 0 
6374 6 0.509983 0.804133 0.124728 -2 -2 -1 
7964 5 0.281708 0.903715 0.0961014 5 -2 -1 
7148 6 0.913611 0.840493 0.10823 -3 -1 -3 
6997 5 0.228057 0.872722 0.0993532 4 1 4 
8679 6 0.104771 0.938403 0.100668 -1 1 4 
6434 6 0.986889 0.943294 0.155368 1 -2 3 
5300 6 0.606751 0.915384 0.0758152 -3 0 -3 
7705 5 0.602199 0.991337 0.111752 1 -7 5 
8211 6 0.912012 0.979241 0.0775892 -2 -3 0 
8006 6 0.925597 0.947061 0.106103 4 3 0 
8450 6 0.0897041 0.968456 0.14033 0 3 -2 
8241 6 0.681981 -0.000137465 0.147871 -7 -1 2 
5882 6 0.437349 0.0285173 0.1127 -3 -2 3 
7538 5 0.846629 0.0330148 0.0986437 -4 6 3 
8896 6 0.250895 0.0359227 0.168213 4 3 2 
7292 5 0.361378 0.0415112 0.157128 1 6 3 
7051 5 0.404171 0.0170277 0.139133 0 4 3 
7324 5 0.179207 0.113748 0.145055 0 -2 3 
5231 5 0.532382 0.0685103 0.153341 2 -3 -2 
8546 5 0.575019 0.120062 0.133792 0 2 0 
6862 5 0.686038 0.117067 0.127391 0 5 1 
8852 6 0.772171 0.133769 0.102084 0 -2 2 
7865 6 0.876856 0.156945 0.0709891 -3 0 3 
5573 6 0.177524 0.201942 0.123695 -3 7 2 
5385 5 0.427298 0.163858 0.105936 2 2 -3 
8595 6 0.734313 0.154301 0.111269 -4 -4 -5 
7778 6 0.744552 0.179099 0.122723 -1 -4 -7 
6529 5 0.80543 0.220076 0.122785 2 -6 1 
8293 5 0.295729 0.246724 0.132872 1 0 -2 
6019 5 0.404128 0.207186 0.130175 1 -2 1 
7769 5 0.487087 0.199452 0.107803 3 4 1 
8362 6 0.376575 0.215801 0.131855 2 2 1 
5368 6 0.345454 0.260164 0.115523 1 0 5 
8715 6 0.890588 0.266741 0.116614 0 -2 2 
8993 6 0.111899 0.281098 0.124469 -2 -3 3 
7877 6 0.168304 0.286342 0.124479 0 2 2 
5031 5 0.530016 0.303686 0.119379 -4 -2 8 
6661 6 0.0356198 0.304899 0.171977 0 1 0 
8524 6 0.122092 0.337931 0.117376 0 -2 1 
8561 5 0.0659736 0.304274 0.14532 0 -1 1 
6203 6 0.41421 0.37551 0.118474 2 3 -3 
7732 6 0.65527 0.313028 0.151233 4 0 4 
7553 5 0.687699 0.379123 0.144256 -3 5 -1 
5240 5 0.435905 0.397841 0.131673 0 -2 -3 
8350 5 0.54513 0.377251 0.129037 1 4 3 
5860 6 0.775549 0.360464 0.11951 1 0 0 
8864 5 0.269235 0.434116 0.102036 -3 2 4 
5879 6 0.416938 0.447845 0.105185 -2 0 2 
7156 6 0.16082 0.445838 0.151155 0 -1 2 
7222 6 0.509119 0.49398 0.138098 -5 1 -4 
7890 6 0.833162 0.493633 0.129844 0 4 1 
5912 5 0.840892 0.569448 0.120906 0 -1 2 
7794 6 0.976833 0.519228 0.0975272 -2 2 -2 
7046 5 0.0178707 0.523448 0.170115 0 10 -1 
8903 6 0.270029 0.514391 0.068439 9 -3 -4 
7806 5 0.508708 0.566235 0.12386 -5 0 0 
6017 5 0.895742 0.552568 0.134503 -4 -1 -3 
8057 6 0.557519 0.524907 0.0906374 -1 1 1 
8082 6 0.0621963 0.60098 0.107537 -5 2 1 
5307 5 0.993576 0.574377 0.162882 1 -2 -3 
6972 6 0.361168 0.589489 0.0945724 -2 -3 2 
8009 6 0.396114 0.632953 0.0975438 -2 -2 -1 
5663 6 0.997442 0.63396 0.114327 2 -3 -2 
6780 5 0.413393 0.649993 0.140571 -5 1 -1 
7603 6 0.894549 0.658161 0.131577 -2 -5 3 
5559 5 0.418785 0.658743 0.114139 -5 2 -1 
6172 6 0.949956 0.688411 0.167179 2 -4 2 
8788 6 0.135629 0.661464 0.144999 3 -3 2 
7506 6 0.481502 0.68456 0.129065 -2 -3 0 
5996 6 0.649388 0.688351 0.103635 1 -4 -2 
5343 6 0.743948 0.702213 0.109117 3 -1 1 
8537 6 0.119047 0.745922 0.105093 0 1 2 
8911 6 0.693894 0.689649 0.134629 5 -2 2 
8873 6 0.261768 0.74028 0.133715 2 1 1 
7771 6 0.423112 0.725601 0.10317 3 2 0 
8166 6 0.735673 0.7182 0.135735 1 -4 3 
6000 5 0.148202 0.721909 0.111387 6 -5 -1 
8126 5 0.616019 0.768099 0.123093 3 -3 0 
8302 5 0.905636 0.772273 0.125798 -2 0 2 
8439 6 0.0387772 0.821995 0.131165 0 0 5 
5341 6 0.106395 0.772752 0.100617 1 3 -2 
8891 6 0.610666 0.803671 0.126437 -4 -1 3 
6106 5 0.230027 0.835727 0.152759 -5 6 2 
5713 5 0.491687 0.894204 0.137069 -3 4 3 
7673 5 0.970107 0.910393 0.126164 0 -1 3 
7851 6 0.595009 0.884878 0.137242 -1 6 2 
8157 5 0.257786 0.896003 0.0674323 5 1 4 
5665 5 0.492765 0.89463 0.11707 -1 -4 5 
7288 5 0.558065 0.927888 0.127178 3 0 -1 
7303 5 0.610279 0.967195 0.130713 -1 1 -2 
7388 6 0.0711021 0.0136698 0.170942 1 -2 2 
8547 6 0.82149 0.000547781 0.133317 -4 -6 3 
8015 5 0.939349 0.985912 0.142826 -6 -1 3 
7569 6 0.208223 0.0073344 0.13155 8 1 4 
5972 5 0.450186 0.0984637 0.171057 0 -4 4 
5488 6 0.473781 0.0634239 0.158883 3 2 -6 
8242 6 0.60661 0.085537 0.169563 -2 4 4 
7952 5 0.0946528 0.0505142 0.18023 -1 -3 -3 
8371 6 0.429807 0.0832908 0.154001 4 -1 1 
8721 5 0.648354 0.0338165 0.172764 -1 2 -4 
8985 5 0.956386 0.0866732 0.138564 4 -2 3 
8273 6 0.443792 0.0987523 0.137063 -1 -4 3 
8673 5 0.308922 0.122091 0.155559 -1 -1 -1 
6608 6 0.862192 0.0964452 0.147218 -2 1 3 
5091 5 0.427836 0.187619 0.133118 8 2 1 
6211 6 0.75072 0.178503 0.156732 1 1 1 
7760 6 0.300997 0.20353 0.130667 0 2 4 
6489 5 0.260486 0.250439 0.129578 6 -6 0 
5712 6 0.718037 0.201472 0.191946 -5 1 4 
5246 5 0.387147 0.24559 0.152921 1 -4 3 
6287 5 0.466641 0.273761 0.142423 4 2 -6 
5645 5 0.735411 0.282716 0.157241 6 -1 1 
6496 6 0.870981 0.279791 0.162378 3 5 3 
6507 6 0.665943 0.324663 0.157336 -1 0 0 
8274 5 0.838369 0.347986 0.145592 1 4 -1 
8464 5 0.885625 0.271619 0.171267 3 2 -5 
6038 5 0.0790506 0.290525 0.144623 1 -2 2 
6282 6 0.531266 0.313946 0.162688 2 3 0 
8344 5 0.4852 0.406479 0.177528 -3 -1 3 
8203 6 0.954085 0.353734 0.145984 0 -1 2 
8974 6 0.0035507 0.405299 0.135859 -2 1 -2 
5404 6 0.460687 0.380605 0.120636 2 -4 4 
6419 5 0.0706739 0.436769 0.139291 -2 -1 4 
7823 6 0.425885 0.450991 0.139517 -4 1 -3 
5076 6 0.482025 0.424421 0.110757 0 -1 -3 
7022 6 0.170826 0.485053 0.147084 -3 2 3 
7575 6 0.546088 0.434789 0.184598 1 3 -1 
8018 5 0.972583 0.41837 0.153697 0 2 -1 
5596 6 0.941185 0.437977 0.178683 -1 6 1 
6388 6 0.23424 0.48906 0.161316 3 3 -3 
5359 5 0.656276 0.524535 0.14156 3 -5 5 
5585 5 0.720445 0.511532 0.129359 0 -8 -3 
6445 5 0.744014 0.530159 0.159577 0 2 5 
5565 6 0.859538 0.529904 0.17677 0 2 -5 
8531 6 0.15711 0.525006 0.158852 0 -2 1 
5166 5 0.592357 0.553967 0.148752 1 2 -1 
6789 5 0.89914 0.559657 0.154973 2 -1 4 
5934 5 0.0675048 0.591132 0.145624 2 -2 2 
6254 6 0.459056 0.578539 0.126928 2 2 5 
6675 5 0.122006 0.565363 0.110937 4 0 0 
5197 6 0.488087 0.605815 0.123954 7 -4 -1 
6641 5 0.549505 0.594377 0.165929 0 7 0 
7490 6 0.907526 0.585853 0.14924 -5 -6 -2 
5164 5 0.00870891 0.621087 0.164152 -1 2 2 
7713 5 0.699959 0.644555 0.191455 -4 -5 3 
5895 6 0.735009 0.642378 0.169673 -2 1 -4 
8049 6 0.779951 0.675055 0.144595 2 5 -1 
6166 5 0.875357 0.671066 0.169904 -2 -3 0 
8927 5 0.114099 0.676806 0.180065 0 2 6 
8569 6 0.234838 0.668937 0.176549 -2 0 -2 
7181 6 0.174081 0.695473 0.148787 4 11 1 
5040 6 0.805496 0.746488 0.139025 3 5 3 
8055 6 0.569395 0.72871 0.166943 -1 -1 5 
6128 5 0.593085 0.72491 0.120866 2 1 5 
7573 6 0.654478 0.750846 0.133136 -1 -3 -3 
8646 6 0.528623 0.776856 0.146684 -3 -3 3 
5255 5 0.919895 0.743322 0.185559 0 1 2 
8880 5 0.274004 0.752562 0.155445 0 -2 3 
5759 5 0.31264 0.742103 0.139258 0 2 1 
7801 6 0.331019 0.777336 0.177613 2 1 3 
8487 6 0.456317 0.771811 0.150514 -3 -5 1 
6642 5 0.495963 0.792794 0.143417 1 1 1 
5455 6 0.336135 0.8151 0.123103 3 0 2 
7943 6 0.704368 0.80328 0.154868 -3 -3 -1 
7532 5 0.356345 0.823175 0.140337 -1 2 -3 
8190 5 0.39085 0.846823 0.162245 5 2 -2 
8987 6 0.742943 0.849036 0.153552 0 2 2 
6882 5 0.523575 0.878066 0.145249 -1 -1 -4 
6472 5 0.642781 0.914893 0.169961 -1 -2 -3 
7610 6 0.822523 0.918559 0.169193 -2 1 -2 
8383 5 0.416364 0.936775 0.144619 -1 4 4 
7367 6 0.764157 0.948541 0.152526 0 3 -2 
8359 6 0.551183 0.00876911 0.141292 -1 -3 -2 
6957 6 0.3409 0.000438998 0.13956 3 1 3 
5286 6 0.111694 0.0327927 0.170159 -5 -2 3 
5702 5 0.300088 0.0637202 0.159634 -2 0 8 
8063 6 0.212531 0.0985389 0.147 1 1 1 
6664 6 0.69552 0.0946332 0.165696 -3 2 3 
8180 5 0.697147 0.111258 0.161058 -2 0 -6 
7076 6 0.968176 0.0828922 0.199196 -3 6 2 
5054 5 0.153629 0.11493 0.151671 4 -1 3 
7260 5 0.897753 0.16214 0.16236 -3 -4 1 
8876 6 0.978826 0.158833 0.199623 1 -2 -2 
7887 6 0.373239 0.189546 0.188476 0 -1 1 
5872 6 0.657064 0.206163 0.182017 1 4 -1 
7938 6 0.79861 0.196485 0.213646 -2 -2 5 
7281 6 0.109225 0.216511 0.14947 2 -2 4 
7348 5 0.354034 0.259151 0.194466 3 -2 0 
7338 6 0.354652 0.252562 0.179328 4 -5 0 
6055 6 0.444473 0.229959 0.172308 -4 -4 -1 
8107 6 0.207471 0.271557 0.139965 1 0 -3 
6561 5 0.32194 0.327799 0.147819 -3 1 -2 
5862 5 0.373558 0.306505 0.157517 0 -4 2 
6845 6 0.482695 0.310876 0.217228 2 -2 2 
5621 6 0.241722 0.362939 0.176997 6 1 0 
5082 5 0.905511 0.341963 0.201824 6 8 1 
5526 6 0.964709 0.354423 0.167894 1 0 -1 
7328 6 0.870544 0.350115 0.193364 -2 4 -1 
5755 5 0.405961 0.364308 0.206062 0 3 1 
6061 6 0.593623 0.386779 0.14445 -4 4 -2 
5253 6 0.567481 0.414373 0.178631 2 5 3 
7663 5 0.657723 0.34571 0.139992 4 -4 -2 
5146 5 0.799265 0.447766 0.161775 6 -1 0 
5537 5 0.0302985 0.452471 0.156961 -2 -1 1 
7098 5 0.277202 0.475449 0.171611 6 -3 0 
8834 5 0.622839 0.402258 0.15329 2 7 1 
8321 6 0.248871 0.488204 0.225411 4 4 -2 
7263 6 0.597515 0.50547 0.147596 1 0 -3 
7742 6 0.0147314 0.521096 0.190329 1 0 -4 
6800 5 0.936848 0.508149 0.160728 -2 2 2 
8791 6 0.46355 0.518214 0.161748 -4 -1 5 
6988 5 0.848644 0.506443 0.161924 -4 -4 -2 
7188 6 0.533174 0.521512 0.168568 -6 1 6 
7565 6 0.980036 0.533091 0.183992 0 0 5 
8783 6 0.0741733 0.540033 0.200545 -2 -2 3 
5963 6 0.297565 0.623857 0.17897 1 0 1 
6195 6 0.456314 0.540307 0.194716 0 1 -1 
8367 5 0.117579 0.573662 0.150207 -1 -5 -3 
5513 5 0.223534 0.583271 0.176202 6 2 -1 
8877 5 0.359445 0.607326 0.172406 5 2 0 
8248 5 0.424804 0.597426 0.163188 1 -1 0 
7627 5 0.529336 0.554859 0.152942 3 -4 3 
8540 5 0.647509 0.621769 0.193678 -4 -6 3 
6722 5 0.880135 0.605394 0.171334 -7 3 4 
8857 5 0.862507 0.602505 0.225893 4 -3 1 
5380 5 0.886022 0.669311 0.145266 -1 6 3 
7392 5 0.236386 0.645845 0.19572 -3 0 5 
8340 6 0.523112 0.595653 0.155789 -5 5 -2 
7568 5 0.931549 0.656035 0.0926858 -5 -2 -2 
8900 5 0.402929 0.705616 0.168883 -5 -4 2 
8080 6 0.975658 0.645353 0.176766 1 -2 1 
8640 5 0.184733 0.655092 0.207687 -2 6 -2 
5825 6 0.634594 0.671042 0.149569 1 3 5 
6547 6 0.654353 0.677199 0.156618 -3 -2 -1 
8824 6 0.497261 0.705786 0.171033 1 -2 4 
5172 5 0.811451 0.7226 0.171534 -3 1 0 
9000 6 0.848827 0.720496 0.144613 1 -1 4 
8623 5 0.705145 0.755906 0.176593 -3 -5 1 
7797 6 0.0283669 0.804588 0.133028 2 5 1 
6693 5 0.0320641 0.800024 0.168087 0 0 -6 
5364 5 0.948544 0.774891 0.169334 0 -2 8 
6418 5 0.271325 0.795151 0.143028 0 -3 1 
7812 6 0.0759487 0.794249 0.159132 3 4 5 
6964 5 0.132128 0.892554 0.189323 0 -2 -3 
5743 6 0.435974 0.85392 0.167244 -1 1 -1 
8828 6 0.33625 0.911859 0.221317 2 -5 0 
5682 6 0.242016 0.930068 0.151024 1 -3 0 
7876 6 0.67714 0.953644 0.182459 -1 -1 1 
5097 6 0.873065 0.974233 0.197324 -4 -3 5 
5185 5 0.860694 0.903875 0.149107 2 3 -4 
6582 6 0.959959 0.915335 0.163302 -2 -2 4 
7267 6 0.361269 0.992006 0.197144 3 0 2 
6311 5 0.34965 0.997697 0.182991 3 -2 -3 
8614 5 0.507189 0.989984 0.198096 0 -3 3 
5256 6 0.934578 0.992465 0.154024 2 1 2 
7698 5 0.0471517 0.996631 0.202915 -3 2 -1 
6847 5 0.0334679 0.0239535 0.227242 -1 3 0 
6743 6 0.324059 0.0402033 0.196828 -5 2 0 
6987 6 0.489668 0.065391 0.185528 -4 5 -1 
6214 6 0.929372 0.017865 0.169725 2 0 1 
5914 5 0.03458 0.103196 0.188736 -2 -3 4 
5441 6 0.239793 0.0594357 0.181208 1 -1 2 
7838 6 0.537849 0.104717 0.194213 -5 0 2 
6797 5 0.59517 0.108281 0.177881 3 1 2 
5744 6 0.506026 0.123014 0.199888 -1 2 0 
6325 6 0.795089 0.188217 0.231416 3 0 4 
8799 5 0.779951 0.185786 0.210319 2 0 -3 
7116 6 0.0209375 0.229962 0.207545 0 2 -6 
5928 6 0.492953 0.182316 0.204322 2 1 1 
7414 5 0.140274 0.216255 0.191104 -6 -5 -3 
7825 6 0.456177 0.213179 0.173154 -2 0 0 
7192 5 0.822058 0.264451 0.196311 2 -1 1 
5180 6 0.724479 0.299933 0.195807 2 2 3 
8106 5 0.852184 0.265602 0.160069 1 1 0 
7856 5 0.82484 0.246282 0.15176 -1 -3 1 
7504 6 0.840594 0.256489 0.19569 3 1 2 
6088 6 0.498672 0.272674 0.1914 -3 -4 3 
8603 5 0.029053 0.314695 0.22151 2 -2 -4 
5803 5 0.121856 0.309413 0.168363 6 0 5 
6141 6 0.185803 0.341901 0.209632 3 -4 -2 
6540 6 0.341273 0.339993 0.180653 5 0 4 
7507 6 0.71791 0.328833 0.180014 4 -2 5 
6946 5 0.992861 0.326891 0.199287 0 -2 10 
5536 6 0.1376 0.314928 0.201812 2 1 -1 
6355 5 0.244023 0.334321 0.242816 -1 2 2 
8775 5 0.505734 0.329775 0.178115 -4 4 4 
6007 6 0.0431148 0.348626 0.143013 2 3 2 
7282 5 0.404176 0.371277 0.187604 -2 0 4 
7650 6 0.697502 0.354278 0.211286 3 3 1 
8363 5 0.3389 0.399004 0.211441 1 3 -4 
5830 5 0.250397 0.37515 0.179682 3 2 3 
5590 5 0.431607 0.334513 0.171391 -1 -3 5 
5843 5 0.143128 0.386696 0.223441 -2 -4 0 
8493 6 0.224366 0.442092 0.160763 1 4 2 
6198 6 0.870999 0.437998 0.195184 4 0 0 
7567 5 0.463371 0.50676 0.21072 -2 1 4 
7588 6 0.0206111 0.491801 0.208099 4 5 -4 
8025 6 0.82865 0.495882 0.202186 -2 1 -7 
5974 6 0.0927983 0.494353 0.214045 1 5 4 
5698 5 0.446786 0.474325 0.207385 -4 0 -1 
7326 6 0.0161928 0.565743 0.142747 -5 -2 -2 
8887 6 0.104317 0.546942 0.195802 2 1 6 
6320 6 0.10768 0.560535 0.203699 4 -5 3 
5831 5 0.413317 0.571035 0.185033 2 5 3 