ITEM: TIMESTEP
20000000
ITEM: NUMBER OF ATOMS
9000
ITEM: BOX BOUNDS pp pp pp
-75 75
-75 75
-75 75
ITEM: ATOMS id type xs ys zs ix iy iz 
5237 6 0.412727 0.00472588 0.998508 -3 0 5 
6217 6 0.884574 0.0291914 0.0283836 -1 4 10 
5865 5 0.935119 0.980015 0.996103 -2 0 -3 
8283 5 0.0849991 0.0477433 0.00348974 -1 -1 -1 
8654 6 0.907168 0.0759588 0.0174887 2 0 2 
5631 5 0.734247 0.0703751 0.0147333 -1 -6 1 
7198 6 0.838633 0.0834163 0.0107949 0 -1 -2 
7488 6 0.018518 0.0648881 0.976479 -3 0 5 
8650 6 0.1111 0.108982 0.988054 4 5 -2 
7686 6 0.683884 0.074267 0.990497 0 0 1 
7269 5 0.797866 0.104544 0.996451 -2 1 3 
7354 6 0.0533408 0.147185 0.00065887 1 5 -2 
7738 6 0.142585 0.114329 0.98774 1 2 0 
8889 6 0.555486 0.17613 0.0323098 3 0 -1 
8738 6 0.716616 0.121513 0.99169 1 1 4 
8405 6 0.605386 0.160753 0.0103711 -1 -4 -6 
7789 5 0.990695 0.141355 0.989963 0 2 -1 
5017 6 0.243899 0.206988 0.00362201 4 -2 -1 
8522 5 0.819117 0.214802 0.991599 -4 1 -5 
7085 5 0.929866 0.245688 0.986504 0 1 -4 
6433 6 0.366326 0.275944 0.965043 -1 4 -3 
8212 6 0.674441 0.30173 0.996515 0 -8 -3 
7977 5 0.682181 0.27874 0.992228 2 0 -4 
6321 6 0.891869 0.311366 0.00130423 -3 -2 1 
8943 5 0.199601 0.33185 0.0351229 -3 2 5 
5152 5 0.315811 0.323622 0.985601 5 -2 -1 
8974 5 0.632501 0.373962 0.0203284 -2 -1 5 
6063 5 0.583303 0.37079 0.000291921 -3 2 -4 
6310 6 0.736855 0.401607 0.0231501 0 -1 4 
5701 6 1.00015 0.419543 0.968843 -1 1 0 
5316 5 0.893784 0.436209 0.990198 -3 -1 3 
5402 6 0.405111 0.449636 0.983157 3 2 2 
5390 6 0.501017 0.45428 0.0217285 5 -2 4 
6354 6 0.890974 0.447996 0.993103 1 0 3 
5261 6 0.27738 0.514998 0.0072296 -2 6 2 
6798 6 0.48886 0.533533 0.0203331 0 1 -3 
6475 6 0.713438 0.52896 0.00540615 -1 0 -1 
6174 5 0.30301 0.527892 0.968536 -4 -1 5 
6783 6 0.892359 0.562915 0.994467 -3 1 3 
8152 6 0.937416 0.537382 0.0122732 0 -1 1 
8320 5 0.103886 0.571533 0.00509255 -7 3 -3 
5745 5 0.308537 0.576427 0.0262414 2 1 1 
7047 5 0.504747 0.589224 0.0164791 -1 1 1 
5977 6 0.257237 0.634426 0.00621899 1 3 6 
5047 6 0.659883 0.670204 0.0227268 1 2 0 
6185 6 0.0326343 0.685993 0.0190096 -1 -2 0 
5989 6 0.250543 0.666205 0.0259784 -3 -2 5 
7393 6 0.323953 0.672432 0.0274138 -7 -3 -3 
6370 6 0.80623 0.644485 0.999445 -3 -1 2 
5991 5 0.955299 0.73206 0.0125682 3 2 -2 
5690 6 0.128671 0.702586 0.975425 -4 0 -2 
6149 5 0.803233 0.755597 0.0165428 -3 -2 -1 
8165 6 0.904304 0.733562 0.0206328 -2 -1 2 
8111 6 0.160517 0.780283 0.983427 -1 0 -3 
5148 6 0.771177 0.816037 0.0263158 5 0 3 
7862 5 0.514847 0.829113 0.0309494 -2 -3 5 
6449 6 0.175063 0.893585 0.0329111 2 0 -3 
7826 6 0.137794 0.897788 0.0333337 0 -3 3 
7194 6 0.480621 0.885135 0.0183933 2 -4 1 
6160 5 0.200354 0.920523 0.0135963 4 0 -1 
6996 6 0.349648 0.942019 0.0340235 4 -3 1 
5757 6 0.467898 0.893323 0.00894835 2 1 -5 
5804 6 0.547105 0.939557 0.0354667 0 -1 -2 
5849 5 0.847594 0.943125 0.0424232 -3 4 4 
8886 5 0.704705 0.952561 0.0305497 4 -1 6 
8938 6 0.226449 0.990524 0.0022559 6 -1 3 
5095 6 0.930624 0.976876 -0.000286795 1 4 2 
6415 5 0.278993 0.960233 0.0198076 -2 -4 2 
5400 6 0.360687 0.996294 0.0280652 -1 -2 0 
5393 6 0.331621 0.968756 0.987029 -2 1 -2 
6103 5 0.586973 0.0169376 0.958114 -3 -1 2 
5810 5 0.619303 0.998869 0.0233447 -5 1 -2 
6080 6 0.401342 0.986846 0.0287952 -6 1 2 
8697 5 0.83982 0.00518859 0.0334472 7 1 -3 
7026 6 0.902544 0.0139479 0.0854801 -2 -6 4 
8647 6 0.63282 0.0396677 0.0241378 -1 -4 5 
6669 5 0.869207 0.0433883 0.999695 2 1 -1 
5188 5 0.455736 0.0817742 0.0504688 -2 -1 -2 
6357 6 0.759681 0.0750802 0.0553432 -1 -1 -5 
7604 6 0.181004 0.102349 0.00931175 1 3 -1 
7485 5 0.741365 0.0766646 0.0458087 -1 -2 0 
7094 6 0.119871 0.104458 0.0142309 4 1 2 
5895 5 0.141247 0.101658 0.0496798 1 2 3 
8290 5 0.706528 0.0828675 0.0703201 -2 -4 -1 
8510 6 0.433911 0.107422 0.0600665 4 0 4 
6095 5 0.814994 0.128912 0.000550454 -2 -3 1 
7107 5 0.131565 0.137821 0.00546913 -3 1 3 
8753 5 0.13685 0.159168 0.011679 0 3 -1 
8187 6 0.515057 0.124333 0.0203194 -1 1 1 
6210 6 0.883277 0.173767 0.0328712 2 -7 2 
8329 5 0.910702 0.112291 0.0235618 -3 4 4 
8775 5 0.714194 0.194856 0.0506553 -4 2 4 
5265 6 0.885678 0.226032 0.997355 1 2 -2 
5754 5 0.115864 0.191522 0.0336119 2 -2 2 
8363 6 0.723661 0.217278 0.0932703 3 -1 0 
6263 6 0.0553375 0.228016 0.0457528 -2 1 -2 
5798 6 0.771155 0.291929 0.0341779 0 2 3 
8576 5 0.126045 0.28449 0.00375169 -3 1 -4 
7790 6 0.148566 0.321969 0.0269126 1 -7 -1 
8257 6 0.635687 0.236879 0.031828 1 1 4 
8822 6 0.861966 0.306651 0.0230278 -1 0 1 
7959 6 0.407581 0.326182 0.00322358 7 2 -3 
6671 5 0.511872 0.312294 0.0329066 4 2 -2 
8376 6 0.68449 0.355528 0.0433923 0 -1 3 
7799 5 0.189891 0.338933 0.0791188 -1 1 1 
7835 6 0.236887 0.386691 0.0632384 -1 -4 -5 
5947 5 0.314026 0.336069 0.0350736 2 -9 4 
5699 6 0.900087 0.373082 0.0194722 -1 -3 5 
6833 5 0.706462 0.430068 0.991862 0 -1 -2 
5349 5 0.842996 0.371119 0.0309271 -2 -1 -1 
6176 6 0.105366 0.443331 0.0309158 0 1 0 
5960 5 0.728748 0.429257 0.010174 -2 -3 1 
7701 5 0.778328 0.441358 0.0828695 2 2 6 
7390 5 0.495194 0.474284 0.0392668 -1 -4 -3 
7045 5 0.31425 0.504978 0.011806 -4 -6 1 
5434 5 0.360612 0.457031 0.992019 0 3 1 
5596 6 0.528637 0.505279 0.0265254 -1 3 -3 
6175 5 0.944922 0.467524 0.0416794 0 -1 -3 
7854 5 0.992825 0.489968 0.0542227 0 1 2 
6861 5 0.251998 0.509574 0.030998 -2 -2 -4 
8874 5 0.0488359 0.528579 0.0321295 2 -3 4 
6141 6 0.141216 0.502633 0.0642417 1 8 -3 
7938 6 0.61034 0.543627 0.0584627 -4 -2 5 
6347 5 0.0155383 0.514813 0.0461512 0 1 0 
7986 5 0.225257 0.550077 0.0577349 -1 3 0 
8954 6 0.407694 0.561339 0.00935317 -3 6 0 
6803 6 0.814958 0.532963 0.0649925 1 -2 0 
8934 5 0.105004 0.560096 0.0230032 0 -4 0 
7332 5 0.450196 0.607616 0.985801 0 -1 2 
6950 5 0.976399 0.561858 0.996921 2 -1 -2 
5971 6 0.295192 0.595831 0.0350443 -4 -2 4 
7939 6 0.35916 0.627815 0.0471472 -1 -2 0 
8728 5 0.425677 0.555953 0.0155523 -1 -1 0 
5910 6 0.65588 0.615834 0.0360515 -2 -3 -5 
5818 6 0.987101 0.654526 0.0558217 -6 0 3 
8149 6 0.0521192 0.641232 0.0227609 1 1 0 
7451 5 0.364655 0.672518 0.98339 3 0 5 
5285 5 0.0694071 0.692784 0.0370827 -1 -4 0 
7283 5 0.00155127 0.6959 0.0344025 1 2 -2 
7395 5 0.56204 0.744117 0.0548534 1 4 0 
7676 6 0.249347 0.758635 0.0909086 -6 -2 -3 
7214 5 0.267447 0.775972 0.0210617 -3 3 -1 
7077 5 0.815858 0.765447 0.0259951 2 0 0 
7928 6 0.983201 0.743921 0.024316 8 -3 1 
6462 6 0.458726 0.780778 0.0100017 -3 1 -1 
8365 6 0.851986 0.785962 0.023305 -2 5 -4 
8016 6 0.046207 0.802543 0.0390077 2 -3 0 
6644 5 0.0261462 0.785478 0.0285523 4 -1 -3 
5411 5 0.110908 0.811735 0.0168119 1 3 -2 
5042 6 0.42166 0.82063 0.0225921 2 -2 3 
5578 5 0.479331 0.837735 0.0290613 3 3 -4 
8961 5 0.645817 0.873715 0.00517787 2 0 -1 
7981 6 0.0104961 0.894614 0.0517659 0 2 5 
7972 5 0.428508 0.885736 0.994511 0 4 -1 
7576 5 0.405796 0.892897 0.019543 5 -3 -4 
5478 5 0.589228 0.874944 0.0490683 -2 -1 0 
7985 6 0.418522 0.926288 0.0475171 3 6 2 
6195 5 0.658285 0.959691 0.113371 -2 -1 6 
7378 5 0.0189816 0.9951 0.0404994 -2 3 0 
5590 5 0.811502 0.964264 0.0424054 -4 0 0 
8366 5 0.256295 0.98985 0.0601257 2 0 -1 
5666 6 0.625168 0.0114955 0.11725 1 -1 -3 
7306 6 0.711313 0.0412397 0.0546371 -1 -1 -2 
8182 6 0.510059 0.0284611 0.0619714 -2 1 1 
7804 5 0.728294 0.0629432 0.0607427 0 -4 0 
5678 6 0.958075 0.0773891 0.0380517 -1 3 3 
6423 5 0.0768521 0.104071 0.0756511 0 3 -7 
5476 6 0.139804 0.115293 0.0562144 4 -1 -1 
5495 5 0.7208 0.128457 0.0669688 3 -3 -3 
6938 5 0.328443 0.144461 0.0436259 1 0 5 
8795 6 0.323359 0.179098 0.0840478 1 -1 0 
5068 6 0.411335 0.193326 0.0510779 0 -3 3 
5816 6 0.929736 0.150499 0.0596101 -4 -1 -2 
8764 5 0.985115 0.199612 0.0369872 -3 0 4 
5499 5 0.625443 0.215356 0.0534559 0 4 0 
7682 5 0.0518497 0.212721 0.028467 -1 2 -2 
7116 5 0.550345 0.196283 0.0177166 -2 2 -1 
8046 6 0.519982 0.231948 0.0434258 0 -2 0 
7250 6 0.610991 0.227742 0.060955 0 0 2 
8186 6 0.564468 0.233486 0.0456776 0 5 1 
5201 6 0.717235 0.216845 0.0172408 -2 -5 -2 
8543 5 0.838192 0.261179 0.0145774 -1 3 4 
5054 6 0.313798 0.322171 0.0652509 2 5 -3 
7999 5 0.98643 0.393369 0.0661374 -3 2 -4 
8038 6 0.0948325 0.408334 0.0399587 -5 -8 3 
7785 6 0.447181 0.423514 0.0291472 2 -6 -1 
8900 5 0.542864 0.393272 0.010014 -3 2 -3 
5090 5 0.942504 0.383855 0.0420547 -1 -1 0 
7315 5 0.106524 0.382241 0.0378312 4 -1 0 
8737 5 0.342063 0.385319 0.0570754 -2 0 -1 
6543 6 0.568847 0.399295 0.0558201 -3 -3 7 
8771 6 0.971108 0.403618 0.0713759 1 0 2 
6330 6 0.761632 0.431933 0.0366167 -3 2 -2 
5872 5 0.970665 0.447314 0.084753 -2 -2 0 
8227 6 0.64752 0.481871 0.0633648 -2 4 -3 
8700 6 0.544208 0.560795 0.0241529 -3 4 3 
6512 5 0.670199 0.562196 0.0689689 2 0 -1 
7935 5 0.698836 0.516417 0.0462442 -4 -1 -1 
8504 5 0.783239 0.571454 0.0383883 -2 6 -5 
5847 5 0.195378 0.539751 0.0155436 -1 2 0 
8783 6 0.939347 0.557186 0.04297 2 -1 4 
5087 6 0.438158 0.612325 0.0570068 4 4 1 
5483 6 0.656223 0.643641 0.0274912 -4 -5 -3 
6386 6 0.00822782 0.622792 0.0722829 0 2 -3 
6944 6 0.925711 0.663528 0.0383001 -2 2 2 
8564 5 0.590094 0.690441 0.0425321 -1 4 1 
8412 6 0.63807 0.623916 0.0697467 6 5 4 
7820 5 0.906891 0.671213 0.0170079 -1 5 4 
8609 5 0.989233 0.675202 0.0104958 -1 -1 2 
5952 5 0.515466 0.647268 0.0856762 -8 2 4 
8661 6 0.805356 0.714927 0.0450585 -1 -6 2 
5709 6 0.0973842 0.733573 0.0585907 0 6 2 
8392 6 0.112786 0.74129 0.0225435 1 -6 3 
7092 6 0.803539 0.796547 0.0363755 2 5 2 
7353 6 0.886327 0.784307 0.00928895 -1 -4 -1 
7991 6 0.364108 0.827457 0.0766798 4 7 4 
6198 6 0.550711 0.823866 0.0695275 -4 4 4 
7239 5 0.0947036 0.852037 0.0325404 3 2 -1 
7477 6 0.746667 0.829269 0.0456491 -2 -2 4 
7702 6 0.654105 0.872687 0.0305387 -1 -1 3 
6582 6 0.00082236 0.86193 0.0573333 -2 -2 0 
5196 5 0.634539 0.878105 0.0668224 0 -1 5 
7389 5 0.988068 0.876241 0.0205049 -5 -2 2 
5950 6 0.0568751 0.898502 0.0669697 1 -1 -2 
8808 6 0.0706516 0.902234 0.028666 -1 -6 0 
7216 6 0.225871 0.922214 0.0296616 4 0 -1 
6956 5 0.517829 0.927925 0.0653815 2 -3 3 
6116 6 0.830873 0.979768 0.0596738 1 0 -1 
5033 6 0.237372 0.889316 0.0352161 1 2 -4 
8213 6 0.38758 0.952804 0.0514347 -1 -5 -2 
8991 6 0.746299 0.948781 0.0458892 -2 3 -4 
6317 6 0.845307 0.970066 0.0825147 6 -5 1 
5448 6 0.947916 0.969701 0.0554282 -3 -6 5 
6843 5 0.456395 0.00808885 0.0807591 2 -5 4 
7585 5 0.564269 0.981721 0.0512956 -1 -3 1 
5441 6 0.161253 0.0315184 0.0748409 -1 3 -5 
7387 6 0.716846 0.0126119 0.0580443 5 2 -3 
8841 6 0.830098 0.0228501 0.0718575 1 1 -1 
6832 6 0.91381 0.0146742 0.0480351 -3 1 2 
5907 6 0.141909 0.0176874 0.110254 0 1 3 
5756 5 0.974028 0.0713844 0.0772994 6 -4 1 
5668 5 0.383886 0.0621613 0.0846244 4 -1 2 
7242 6 0.345428 0.0716557 0.108525 0 -3 -2 
5342 6 0.00764657 0.14692 0.0556753 -1 -1 3 
5891 5 0.61408 0.120128 0.0561666 1 2 2 
8233 5 0.427644 0.121338 0.0590845 -1 -4 -1 
7281 6 0.715654 0.142833 0.078069 -3 0 -1 
6958 6 0.784292 0.15523 0.098563 1 1 -2 
7617 6 0.1931 0.18867 0.0747831 3 0 2 
6722 6 0.228754 0.190546 0.0639417 0 1 0 
8308 5 0.644537 0.164763 0.0932968 1 0 2 
5577 5 0.944158 0.184488 0.0461473 1 -2 -3 
7858 6 0.121516 0.20133 0.0679268 2 4 -4 
7540 5 0.234767 0.219686 0.0667917 0 2 3 
5711 6 0.462082 0.183445 0.10477 2 -1 4 
7806 6 0.910869 0.223087 0.0580706 -3 2 0 
5355 6 0.523189 0.243138 0.0702571 4 1 1 
6848 6 0.0979732 0.30194 0.0281882 -2 -1 0 
8017 6 0.164929 0.301844 0.0801503 3 -3 -2 
5727 6 0.234352 0.304806 0.0360112 1 0 -2 
5928 6 0.584748 0.270829 0.103443 3 1 -3 
8898 6 0.702139 0.29484 0.0699898 -2 2 0 
8879 6 0.907151 0.304228 0.0580022 2 -1 3 
6969 6 0.920961 0.288194 0.091425 -3 0 4 
8696 5 0.0591288 0.304938 0.0936523 4 -4 -2 
8607 6 0.336919 0.31411 0.0563312 -6 -3 -1 
7663 6 0.102224 0.323355 0.075795 1 -8 1 
8104 6 0.461704 0.323823 0.0938654 -1 0 2 
8782 6 0.932157 0.354088 0.0909265 -1 -7 7 
6376 6 0.138839 0.333648 0.0877067 -1 -1 2 
7978 6 0.799634 0.347769 0.0916607 2 -2 1 
7910 5 0.296649 0.365648 0.0891951 1 3 -2 
7873 6 0.76165 0.33956 0.0626395 0 2 3 
8321 5 0.995681 0.395364 0.0649097 3 -1 0 
5076 6 0.13446 0.397725 0.069348 -1 4 -3 
8679 6 0.809896 0.414623 0.0705091 -1 -3 4 
8604 5 0.530596 0.407365 0.105 1 -3 1 
8890 6 0.385131 0.492895 0.082143 -4 0 8 
7415 6 0.555415 0.475303 0.0769967 2 8 -7 
5260 6 0.727198 0.50138 0.0739242 -7 4 6 
6036 6 0.965511 0.502927 0.0598637 -1 -3 3 
8885 6 0.347661 0.499923 0.0775971 -1 2 3 
6778 5 0.859535 0.531561 0.063861 2 -6 1 
8595 5 0.95088 0.531799 0.0787522 -2 -3 2 
5681 5 0.382729 0.545217 0.0524196 1 5 1 
8495 5 0.701955 0.53207 0.0642998 1 -2 1 
7478 6 0.975003 0.551262 0.103029 0 1 -1 
6121 5 0.179298 0.599955 0.0939597 -2 3 1 
5912 6 0.37589 0.560506 0.101092 -3 1 0 
6729 6 0.616049 0.590917 0.0540636 -1 0 4 
8060 5 0.415138 0.59623 0.0849443 -4 -5 -5 
8779 6 0.527008 0.564907 0.104421 6 -2 -4 
5240 6 0.890895 0.640064 0.0963062 -1 -1 -1 
8190 6 0.643817 0.574726 0.0618723 -3 3 -3 
6356 5 0.389935 0.662255 0.058345 -1 3 -3 
6949 6 0.862607 0.629149 0.072556 1 2 3 
6459 6 0.086417 0.677279 0.0793776 0 -2 3 
8436 6 0.430689 0.684107 0.105821 -2 1 -3 
5283 6 0.618711 0.649872 0.0655301 0 3 2 
7305 5 0.811537 0.65485 0.0928986 -6 -4 -3 
8939 6 0.940376 0.673719 0.0866955 -6 0 3 
6461 6 0.943301 0.671866 0.0791062 6 -5 -1 
8263 5 0.208437 0.67325 0.0780992 0 1 -1 
6402 6 0.649502 0.704386 0.10037 -1 1 0 
6571 6 0.249914 0.713936 0.048277 4 5 -2 
6754 5 0.593279 0.760637 0.0854379 -2 -4 0 
7285 5 0.807278 0.714147 0.0837598 4 -1 -3 
5466 6 0.0538231 0.733106 0.066802 -3 1 -1 
5986 5 0.365065 0.763428 0.0131788 -1 4 0 
5572 5 0.672159 0.733794 0.138641 2 1 1 
6548 6 0.296239 0.800899 0.0762314 0 0 6 
7339 5 0.671947 0.816408 0.0694543 -2 -4 3 
8130 6 0.710676 0.767254 0.0745034 0 -1 3 
6752 6 0.981905 0.852939 0.0734684 3 8 -2 
5410 5 0.443079 0.844736 0.0690553 0 -3 -3 
5337 6 0.495884 0.851777 0.0438812 0 -1 -1 
5206 5 0.199298 0.912614 0.0655955 -1 0 1 
7430 5 0.306881 0.921108 0.109483 4 2 1 
6885 6 0.831856 0.921601 0.0862011 1 -5 2 
7908 5 0.269891 0.989777 0.0287497 2 2 2 
8929 5 0.988116 0.95323 0.0831916 -8 -1 1 
6057 6 0.0434697 0.0326067 0.0973421 1 0 1 
8369 5 0.994775 0.976057 0.120487 -3 0 0 
6099 5 0.984522 0.988919 0.122206 -1 -4 5 
8694 5 0.120648 0.0205621 0.10608 -2 -1 1 
7678 6 0.121725 0.0328842 0.117771 4 2 -6 
8134 6 0.0701718 0.0876566 0.0809339 2 -3 0 
6941 6 0.143876 0.0522166 0.123285 -3 0 3 
7859 5 0.522393 0.0440658 0.133726 -3 0 0 
7234 5 0.936092 0.0797988 0.13035 2 -1 -2 
8156 6 0.0857777 0.0810332 0.0748705 4 -4 -1 
7059 6 0.22426 0.0836088 0.0492752 0 0 -2 
5050 6 0.612283 0.0948842 0.0848642 -2 -2 0 
6806 5 0.588374 0.101303 0.0826559 -1 1 8 
5094 5 0.923265 0.0392621 0.10753 0 2 -1 
7543 6 0.0307366 0.0805054 0.0858465 6 3 4 
8097 6 0.481565 0.0926357 0.0686222 5 -4 -2 
7117 6 0.745015 0.101585 0.095044 -2 -5 2 
5373 5 0.618533 0.127289 0.116339 -2 -3 -1 
5352 6 0.478775 0.154184 0.0699016 2 1 0 
8589 5 0.447171 0.182962 0.0604093 5 4 3 
6282 5 0.529401 0.209601 0.0366379 2 -1 -2 
7018 6 0.619194 0.179574 0.113556 6 -2 -4 
8994 6 0.676769 0.202496 0.115859 3 -8 6 
8335 6 0.463943 0.262998 0.0891255 0 2 0 
7402 5 0.841652 0.227283 0.0943049 3 3 2 
5980 6 0.198124 0.263652 0.102678 -3 1 3 
8372 5 0.488531 0.287146 0.0873722 3 2 3 
8674 5 0.583018 0.266306 0.0805297 -3 2 1 
5936 5 0.993559 0.285274 0.0760956 4 3 -2 
7980 5 0.994193 0.309609 0.118555 -3 1 4 
5866 6 0.794052 0.337572 0.0747197 3 2 1 
5186 6 0.221731 0.336422 0.13114 -3 0 -2 
7220 5 0.194461 0.320684 0.09356 1 -4 4 
5854 6 0.178637 0.378348 0.131424 2 5 3 
7707 5 0.360407 0.429176 0.125596 1 -2 -2 
6038 5 0.597936 0.435355 0.120437 2 1 0 
6381 6 0.754255 0.421285 0.122751 2 -3 -2 
8073 5 0.771754 0.448426 0.114116 -1 -1 2 
5416 6 0.11709 0.444657 0.14787 1 0 1 
6781 5 0.143095 0.479765 0.0833279 1 -2 -1 
6746 5 0.435399 0.459549 0.117526 2 2 3 
6114 5 0.590679 0.479015 0.0675091 4 8 0 
8628 6 0.818799 0.456094 0.0867634 -4 5 -5 
7805 5 0.203217 0.509857 0.113776 0 0 -2 
6997 6 0.790018 0.570714 0.0978686 -3 0 -3 
8018 6 0.687521 0.552959 0.100813 0 1 0 
6865 5 0.840392 0.585328 0.118611 7 0 -2 
8931 6 0.000774146 0.639813 0.0802298 0 0 3 
7169 5 0.878877 0.686278 0.103106 4 3 1 
6100 5 0.946255 0.635779 0.138306 -1 2 1 
8930 6 0.32347 0.634478 0.122952 -1 -1 3 
8685 6 0.46158 0.683892 0.0872221 0 0 -1 
5587 6 0.520916 0.718476 0.116902 -3 -1 -5 
5575 6 0.580361 0.714413 0.10222 2 1 2 
8747 6 0.774742 0.738058 0.120927 5 -6 -4 
8391 5 0.299402 0.767554 0.0869869 0 -4 2 
8173 6 0.381148 0.748443 0.0953126 5 -2 -1 
6304 6 0.0185522 0.777556 0.0854352 -3 -1 0 
5639 5 0.616173 0.755454 0.121772 -3 -1 0 
5181 6 0.67992 0.736324 0.102974 3 -2 -6 
7296 6 0.28601 0.786298 0.127233 5 0 4 
7949 5 0.352452 0.777022 0.0533915 -1 2 3 
6112 6 0.78465 0.760979 0.131571 4 -7 4 
6814 6 0.381538 0.813664 0.115998 -1 0 4 
6710 6 0.661143 0.828852 0.0712704 -1 0 4 
7015 6 0.9081 0.852177 0.116613 6 4 0 
5755 6 0.15555 0.827301 0.0889761 0 -5 -2 
6115 5 0.0410542 0.914245 0.079107 -1 -1 4 
7696 5 0.648623 0.843911 0.109802 -1 1 0 
6507 5 0.931433 0.852452 0.0970479 -2 0 -1 
7762 6 0.782933 0.912368 0.120921 2 0 9 
6813 5 0.359591 0.90156 0.098576 -2 0 -2 
5520 6 0.504255 0.931576 0.126487 7 -1 -5 
7670 5 0.650964 0.916914 0.15329 2 1 5 
8199 5 0.466094 0.961419 0.088506 -6 2 1 
8727 5 0.159607 0.91197 0.1539 -5 -3 0 
5560 6 0.379447 0.939619 0.117507 2 -6 3 
7502 6 0.452547 0.930826 0.117546 -2 0 1 
6777 5 0.6889 0.951723 0.0831993 -3 4 3 
6225 5 0.914424 0.00212417 0.112711 1 1 1 
5350 5 0.575034 0.998435 0.132688 -2 0 0 
5797 6 0.86573 0.982074 0.155816 4 0 -2 
5324 6 0.9523 0.992581 0.123567 -1 1 0 
7635 5 0.896444 0.0171723 0.0941049 -3 -2 -2 
5864 6 0.241685 0.0869747 0.139742 0 -3 5 
6690 6 0.242026 0.075703 0.161629 -1 2 2 
8477 5 0.605899 0.0184255 0.126178 7 -4 -2 
7503 5 0.904578 0.0556084 0.140774 0 3 4 
8034 6 0.963251 0.0466719 0.167298 3 3 -5 
7040 6 0.369588 0.0595493 0.133047 -3 4 3 
6744 6 0.402398 0.0731778 0.120651 0 -5 -2 
5286 6 0.348707 0.0833102 0.104798 -4 2 2 
8598 6 0.945176 0.0887572 0.118154 -1 -1 1 
8168 6 0.9956 0.0735929 0.13995 1 1 3 
5857 6 0.128257 0.117015 0.112264 0 -3 3 
7033 6 0.601579 0.106026 0.171504 0 -1 -6 
7824 6 0.34281 0.114383 0.0886687 1 -1 2 
5222 6 0.320705 0.0872397 0.170483 -2 2 -2 
5542 6 0.405295 0.0792257 0.142855 0 0 -4 
8313 5 0.0732422 0.142998 0.0968371 -7 -3 5 
8194 6 0.441626 0.155161 0.101366 -3 -1 6 
5612 6 0.471403 0.143473 0.113244 0 4 -2 
8085 6 0.668889 0.144263 0.113212 1 -1 4 
5704 5 0.000102134 0.189287 0.122798 0 -1 -4 
8710 5 0.973912 0.171699 0.143151 -2 3 -3 
7656 5 0.0074546 0.203363 0.120973 1 -1 -7 
7710 5 0.163574 0.243421 0.143044 0 7 0 
6640 6 0.412673 0.219853 0.113748 1 -3 2 
5904 5 0.401484 0.223494 0.142518 2 1 -2 
8198 5 0.918351 0.19389 0.132064 -4 -3 1 
8243 6 0.202956 0.213931 0.117524 3 0 2 
6281 6 0.552539 0.226259 0.0982937 0 5 -4 
5031 6 0.712545 0.264336 0.133195 -1 3 2 
5647 5 0.845224 0.2853 0.135488 -4 0 -5 
8201 6 0.938271 0.22384 0.110597 -4 2 -1 
6179 6 0.955918 0.23161 0.148767 -2 -2 -1 
5665 6 0.419461 0.281839 0.101729 0 2 1 
5066 6 0.880861 0.238524 0.148231 1 -3 5 
5634 6 0.244745 0.342262 0.121287 -4 2 -2 
6316 5 0.408504 0.335006 0.115713 1 2 1 
8997 5 0.588068 0.338261 0.116958 -3 2 -1 
5227 5 0.667379 0.366772 0.121721 1 1 3 
8686 6 0.79874 0.328241 0.0929129 1 1 1 
8437 5 0.849333 0.314759 0.124341 5 3 -6 
5480 5 0.927802 0.326095 0.138881 -1 0 0 
6831 6 0.111704 0.348581 0.0846241 -1 -5 2 
6218 5 0.995313 0.39803 0.0949487 -2 2 -2 
6901 6 0.395058 0.430192 0.11228 0 -1 3 
6838 5 0.586481 0.407242 0.134514 -1 6 0 
8114 6 0.0172898 0.44328 0.122385 1 0 0 
5405 5 0.88474 0.459552 0.126511 1 -3 0 
8849 6 0.588651 0.531293 0.114411 -1 -3 2 
7367 5 0.0353842 0.522616 0.148246 3 -4 -1 
6142 6 0.095542 0.55628 0.090859 3 0 2 
5242 6 0.893904 0.510276 0.111085 -3 -4 0 
8356 6 0.204207 0.54297 0.0987318 1 -6 3 
6683 5 0.774417 0.572803 0.095416 2 -5 4 
7755 5 0.304276 0.541674 0.124189 2 0 2 
9000 6 0.700665 0.581455 0.102966 0 6 2 
5940 5 0.761372 0.609664 0.106493 -4 0 3 
5180 6 0.603902 0.618529 0.12415 -5 -4 5 
6323 5 0.629763 0.589443 0.0939204 4 4 -5 
8537 6 0.834208 0.634745 0.141737 0 2 5 
7923 6 0.94032 0.60371 0.138852 -3 3 0 
8214 5 0.345558 0.653188 0.120818 4 1 2 
5515 6 0.727468 0.623981 0.12101 2 -2 4 
7942 5 0.248165 0.665865 0.12323 -2 -1 -3 
8546 6 0.318591 0.689497 0.113776 1 2 -5 
8191 5 0.308803 0.695089 0.0775215 -4 -1 -4 
6732 6 0.00987112 0.687654 0.110213 2 1 3 
6757 6 0.510858 0.733312 0.129869 5 -2 -4 
5723 5 0.297432 0.740511 0.131928 -2 1 -1 
5248 6 0.802304 0.712522 0.12044 1 0 3 
8833 5 0.721065 0.765857 0.0996498 0 2 -4 
6551 5 0.908716 0.732727 0.12109 -2 -3 -1 
6451 5 0.0188105 0.773016 0.159334 1 3 0 
7432 5 0.218282 0.770009 0.097116 3 0 -4 
7822 5 0.417245 0.812009 0.146291 1 -5 0 
6421 5 0.432966 0.765479 0.13138 4 3 -4 
5432 6 0.702884 0.793156 0.0868515 -2 -2 -3 
7563 5 0.163917 0.826 0.0905248 -1 -2 -1 
7479 5 0.329872 0.818595 0.144324 -1 -1 0 
6717 6 0.592254 0.828978 0.147716 1 -4 -3 
7261 5 0.0678437 0.785231 0.116943 -2 2 4 
6859 6 0.293888 0.771718 0.0916956 -1 4 1 
7309 6 0.393603 0.839931 0.124921 -3 2 2 
5037 5 0.66402 0.852789 0.0949142 4 0 0 
7336 6 0.64898 0.843018 0.0869191 0 -3 -2 
6056 6 0.975474 0.824044 0.143897 3 1 -1 
6963 6 0.018146 0.869023 0.143677 2 -2 -3 
5899 5 0.794898 0.86491 0.129323 -4 -6 0 
7344 6 0.238413 0.884664 0.113352 3 0 7 
5793 6 0.418916 0.941815 0.141161 -1 2 -1 
7244 6 0.827006 0.919641 0.118004 -4 -2 0 
5266 5 0.35971 0.967415 0.131705 1 1 -1 
7990 6 0.980241 0.929294 0.110398 -1 -2 -2 
8116 5 0.992859 0.937102 0.0984633 -3 -1 3 
6410 5 0.693669 0.936108 0.131908 -2 -6 3 
7545 6 0.924055 0.943163 0.109928 0 -2 -3 
6771 5 0.265656 0.995179 0.102535 0 6 5 
8672 6 0.66179 0.988611 0.140955 -6 0 2 
5807 5 0.27543 -0.00286718 0.152187 -6 -1 -2 
8169 6 0.274319 0.0108254 0.134601 0 -6 3 
5284 5 0.428554 0.991564 0.164587 2 0 3 
5019 5 0.810044 0.0132924 0.165361 2 4 -1 
6910 5 0.909522 0.988181 0.137014 2 0 0 
7327 5 0.206827 0.0344716 0.176703 7 -3 -4 
6721 6 0.356423 0.0670493 0.118478 -1 0 3 
8007 6 0.0346104 0.0279221 0.170402 3 -3 -5 
8668 6 0.48769 0.0618468 0.139902 4 -3 -4 
8920 5 0.391934 0.080954 0.143081 1 4 -1 
7438 6 0.077119 0.0966999 0.148338 0 -3 2 
8421 6 0.478371 0.0885291 0.146751 -6 1 -3 
8776 6 0.263125 0.174911 0.152449 -2 1 4 
8907 6 0.618551 0.195325 0.139183 -3 3 1 
5143 6 0.583743 0.181585 0.13833 0 5 -2 
8655 6 0.576913 0.183772 0.120154 -4 -3 3 
7420 5 0.613322 0.235135 0.142875 3 3 -4 
8128 6 0.777208 0.302767 0.128161 -3 -2 7 
6364 6 0.325362 0.291447 0.153172 -2 4 -3 
5551 5 0.0163982 0.340266 0.197028 -6 0 1 
7138 6 0.384289 0.342374 0.147931 2 0 -1 
5731 6 0.547609 0.353691 0.130402 4 2 4 
6928 5 0.734815 0.347953 0.106986 0 -3 -1 
6014 6 0.387132 0.388041 0.149461 -3 0 0 
6822 6 0.413769 0.372359 0.147636 6 1 -2 
5061 5 0.923884 0.383915 0.167767 6 -1 0 
7004 6 0.987148 0.344716 0.159617 -1 2 1 
8502 6 0.606601 0.36168 0.135216 0 0 4 
5669 5 0.0384479 0.418247 0.19004 2 -2 -1 
7086 6 0.411803 0.409001 0.130706 -1 2 1 
5976 6 0.115538 0.425865 0.132355 0 3 1 
6488 6 0.26621 0.417012 0.18516 -2 0 -4 
7483 6 0.943309 0.465686 0.145951 2 -2 6 
8951 6 0.0426345 0.474526 0.130507 3 -1 7 
7581 5 0.302391 0.512693 0.189374 4 0 2 
7007 6 0.365381 0.567987 0.121606 0 -2 -3 
7448 5 0.483421 0.529811 0.145703 -6 0 2 
7154 5 0.919181 0.552832 0.152206 -2 2 3 
6698 5 0.456043 0.593008 0.166583 2 -4 -1 
8042 5 0.905652 0.552511 0.140204 -3 6 0 
7520 5 0.07788 0.603031 0.0986946 0 0 -4 
8627 6 0.558695 0.611353 0.146959 -1 0 -5 
5777 5 0.691415 0.579626 0.145671 1 -1 3 
7833 5 0.925933 0.577921 0.153095 -2 4 -2 
5401 5 0.938681 0.585331 0.183449 -3 4 5 
6299 5 0.34306 0.617004 0.152599 3 3 4 
8621 6 0.252499 0.637569 0.144817 4 -2 -1 
5530 5 0.505755 0.635333 0.152565 1 -7 2 
8020 6 0.951077 0.654209 0.181174 0 1 -5 
5586 6 0.00238791 0.66433 0.13634 0 -1 4 
5544 6 0.251733 0.680237 0.155035 2 -3 -1 
7614 6 0.306354 0.693332 0.182403 3 -1 4 
5348 6 0.945879 0.700304 0.129213 2 -3 -2 
5955 6 0.0243192 0.645735 0.149879 -2 0 2 
7553 6 0.124699 0.663366 0.183198 -1 -6 3 
5162 5 0.773105 0.666739 0.1526 -8 4 -4 
5091 6 0.0939844 0.694392 0.126772 -3 3 5 
6147 6 0.57714 0.7193 0.15153 0 0 3 
5473 5 0.781393 0.738616 0.178614 -1 -3 -1 
7556 5 0.05908 0.739423 0.131893 4 -2 1 
6894 5 0.133265 0.797336 0.136599 4 -1 -3 
8859 5 0.677405 0.806154 0.160503 -1 -5 4 
7084 6 0.72885 0.750302 0.149327 -5 -1 -1 
6898 5 0.293223 0.776287 0.188292 2 2 -2 
8014 5 0.665064 0.785085 0.200249 1 -5 -1 
5287 5 0.851553 0.80741 0.159723 -1 -3 4 
5881 5 0.973183 0.777663 0.12865 -7 -4 3 
8287 5 0.464564 0.804667 0.151875 2 1 5 
7078 5 0.864698 0.780928 0.149691 2 -3 1 
8349 5 0.187123 0.848367 0.190532 0 0 -2 
8664 6 0.490745 0.837905 0.132134 -3 -1 0 
5370 6 0.350329 0.907804 0.113821 -6 1 2 
8486 5 0.122929 0.916528 0.190868 -1 -1 2 
6426 5 0.66004 0.92541 0.135836 2 -3 1 
8923 6 0.257947 0.905573 0.182111 -1 -3 2 
6177 5 0.750954 0.930374 0.153866 2 -1 0 
8455 6 0.710754 0.899828 0.173508 4 -1 -1 
7300 6 0.946171 0.943654 0.18212 1 -5 1 
8594 5 0.233954 0.988101 0.131804 3 1 3 
6283 5 0.342886 0.97758 0.162792 0 -3 -2 
7769 6 0.918533 0.998831 0.140301 1 -5 3 
7709 5 0.247313 0.953747 0.103786 -3 1 5 
5269 6 0.482598 0.993851 0.128788 -2 1 0 
5072 6 0.10219 0.0181294 0.194689 3 -2 0 
5032 6 0.574251 0.0284062 0.170507 -1 3 2 
7314 5 0.585959 0.031784 0.175875 4 1 4 
6524 6 0.59849 0.0113978 0.130024 3 1 1 
5946 6 0.660775 0.0285746 0.161834 -5 1 -2 
6952 5 0.799049 0.0414708 0.162759 -5 2 3 
8275 5 0.63598 0.0634291 0.193518 2 1 -1 
7962 6 0.330064 0.0831103 0.218241 1 -1 1 
7531 5 0.107731 0.0630483 0.173102 3 0 1 
7756 5 0.384325 0.0642516 0.193576 -5 -5 1 
8074 5 0.860706 0.0801997 0.145599 -3 -2 1 
6222 5 0.0842658 0.109119 0.193592 -2 -2 0 
7513 6 0.788909 0.110375 0.163892 -1 -1 -1 
8428 6 0.884364 0.126961 0.152243 -3 4 -1 
6633 6 0.276027 0.185033 0.174472 0 -1 -1 
6072 5 0.35765 0.177629 0.169246 4 -1 1 
6542 5 0.651965 0.129687 0.185735 -5 -2 1 
5951 5 0.747578 0.152608 0.216605 -6 1 -2 
5487 6 0.776708 0.181978 0.189662 0 -3 3 
5794 6 0.864717 0.136822 0.183138 5 3 2 
6105 5 0.510433 0.164818 0.133316 0 0 -1 
5477 6 0.484337 0.183074 0.193583 1 1 -2 
8422 6 0.562212 0.209674 0.202127 1 -1 5 
8215 5 0.853405 0.222593 0.150728 -4 2 2 
8901 6 0.0490693 0.249193 0.145681 3 3 4 
6290 6 0.46483 0.23653 0.190997 3 -2 -6 
7905 6 0.789392 0.212558 0.167319 0 2 -1 
5808 6 0.787878 0.215318 0.184569 0 -3 1 
6915 5 0.39625 0.247963 0.184536 -3 3 -1 
5998 6 0.00345598 0.323181 0.163501 3 2 1 
8635 5 0.293962 0.256121 0.160571 6 1 3 
6556 5 0.727671 0.2826 0.198245 -2 -1 0 
7628 5 0.737099 0.282286 0.170198 -1 1 -2 
8205 5 0.459814 0.274781 0.143243 -2 0 1 
7271 5 0.477865 0.300735 0.17096 3 -1 0 
7073 5 0.739346 0.317639 0.181675 -1 3 2 
8219 6 0.310523 0.349077 0.157259 1 -2 1 
6549 6 0.227839 0.348427 0.162752 5 -2 3 
8485 5 0.362487 0.352108 0.173779 3 2 -2 
7255 6 0.218169 0.414409 0.154062 4 0 4 
5653 6 0.230904 0.373725 0.177112 2 0 -1 
5834 6 0.589883 0.414434 0.163784 -3 -4 1 
6471 6 0.573031 0.41347 0.154711 1 -4 -2 
6975 6 0.757902 0.402528 0.184923 -2 0 4 
7934 6 0.622909 0.398507 0.172257 -1 3 0 
5246 5 0.63381 0.399494 0.162391 -6 -1 -5 
8045 5 0.516388 0.420321 0.173887 2 5 4 
8949 6 0.155356 0.440112 0.148946 -2 0 -5 
6890 6 0.584838 0.450316 0.163994 5 4 -1 
7732 6 0.640532 0.474116 0.188864 0 -2 0 
7164 5 0.772024 0.415405 0.170578 0 2 6 
6595 6 0.916538 0.422476 0.119388 2 1 -1 
6308 6 0.231235 0.50439 0.169777 -2 -5 0 
6809 5 0.973365 0.487463 0.164019 -3 3 1 
7937 5 0.280266 0.516357 0.156973 0 7 4 
5564 5 0.480026 0.50465 0.160241 0 4 3 
6926 5 0.365577 0.579578 0.198437 4 -1 2 
8110 5 0.472316 0.538651 0.183156 -1 3 -1 
8332 5 0.812423 0.591281 0.179915 -3 1 -2 
5880 6 0.988514 0.554876 0.186404 0 -6 -1 
6930 6 0.388841 0.638323 0.209959 2 -4 4 
6700 6 0.235877 0.706169 0.151558 -5 2 2 
8980 5 0.247172 0.735439 0.165083 0 -1 -7 
8623 5 0.395313 0.723349 0.177482 -2 6 0 
6691 6 0.199888 0.791196 0.148168 -1 8 1 
7248 6 0.342128 0.776128 0.175526 5 0 -1 
7955 6 0.918106 0.771755 0.139463 -5 -3 0 
5517 5 0.037857 0.79633 0.142713 -1 1 -2 
8864 5 0.717539 0.839105 0.13744 2 1 3 
8468 5 0.103426 0.811492 0.175632 3 6 1 
8086 5 0.74392 0.855296 0.156715 -3 -2 -1 
5537 6 0.0834195 0.858575 0.198295 -4 -2 -2 
5694 5 0.282272 0.869026 0.162042 3 -5 3 
8200 6 0.895059 0.832657 0.17365 1 -1 -3 
7237 6 0.253502 0.862737 0.162078 -2 5 3 
8667 5 0.0963556 0.890534 0.141545 -1 4 3 
6342 6 0.453023 0.889863 0.161744 1 0 5 
8216 6 0.477191 0.959288 0.176418 0 -3 -4 
7864 6 0.585983 0.870816 0.202116 -1 -1 -1 
6685 5 0.180398 0.96603 0.166847 3 -6 -2 
6911 5 0.207106 0.967157 0.17466 6 -5 -5 
7904 5 0.840702 0.940776 0.169984 -4 4 0 
8735 5 0.112925 0.983452 0.213275 -2 2 -1 
5130 5 0.898157 0.983812 0.142618 2 -1 5 
5108 6 0.991145 0.0148237 0.158015 -1 5 3 
5869 6 0.075438 0.987533 0.187111 -4 -1 1 
6224 6 0.116568 0.012728 0.134339 0 -1 -1 
7472 6 0.600074 0.971118 0.152503 -1 -3 -3 
7631 5 0.887112 0.948235 0.125538 -1 -1 0 
8868 5 0.301931 0.0175395 0.216881 -5 -2 2 
6614 6 0.630227 0.0341296 0.168351 -1 -4 0 
5879 5 0.950424 0.0185679 0.164157 3 -3 -2 
7267 6 0.940327 0.11351 0.171539 -2 2 -2 
6081 6 0.239648 0.128026 0.195875 -2 0 3 
3181 1 0.293508 0.159448 0.213478 0 0 0 
3183 1 0.290079 0.159368 0.20754 0 0 0 
3186 1 0.284252 0.163359 0.211841 0 0 0 
3185 1 0.283725 0.163614 0.205589 0 0 0 
8400 6 0.366035 0.159108 0.174994 0 4 -2 
7595 5 0.916306 0.217986 0.146679 0 1 -3 
5692 5 0.884123 0.17184 0.224306 0 3 2 
7023 5 0.740486 0.224605 0.196525 0 -2 -3 
5927 6 0.181068 0.24229 0.185962 -3 -2 1 
7893 6 0.90544 0.280335 0.209204 1 0 0 
6254 5 0.796856 0.273027 0.186234 2 2 -2 
5109 6 0.00855157 0.286253 0.207625 1 3 1 
7292 5 0.305926 0.292445 0.151533 -4 3 3 
5166 6 0.342535 0.335479 0.220667 -3 -1 2 
5930 5 0.51117 0.266997 0.230434 7 1 1 
6919 6 0.365424 0.338474 0.18914 1 4 -1 
6250 6 0.565207 0.290501 0.180956 -5 -1 2 
8652 5 0.19713 0.355137 0.17963 4 -2 1 
8234 6 0.890029 0.315783 0.155028 -5 -1 -1 
8883 6 0.315732 0.355547 0.173898 -3 1 1 