ITEM: TIMESTEP
20000000
ITEM: NUMBER OF ATOMS
9000
ITEM: BOX BOUNDS pp pp pp
-75 75
-75 75
-75 75
ITEM: ATOMS id type xs ys zs ix iy iz 
6817 6 0.0925003 0.992767 0.991927 -2 -2 4 
7316 5 0.705973 0.993561 0.0403435 2 -5 2 
6069 6 0.813728 0.0159767 0.985545 2 3 5 
5188 5 0.0661783 0.0294847 0.0219924 -2 3 1 
8950 5 0.30896 0.0217936 0.0365446 -4 0 -3 
7661 5 0.466314 0.0254728 0.976405 0 1 4 
5311 5 0.782838 0.0426688 0.0465865 -2 -1 5 
7392 6 0.607222 0.109724 0.00254396 -3 -1 2 
8928 5 0.870413 0.0702675 0.992552 -1 -4 3 
7808 6 0.217746 0.105088 0.019838 2 6 -1 
8737 6 0.339982 0.0658667 0.0116606 -1 -3 5 
7852 6 0.432148 0.100659 0.0167711 1 0 0 
8475 6 0.720876 0.125614 0.993639 1 -1 3 
8186 6 0.363433 0.165102 0.00977851 4 1 -1 
7507 6 0.54737 0.130724 0.977174 1 1 0 
6742 5 0.0150153 0.185922 0.0144711 5 4 3 
7702 5 0.192843 0.274018 0.0131855 2 1 1 
7790 5 0.731113 0.24626 0.0455158 -4 -2 4 
5485 5 0.742415 0.261232 0.987752 1 1 -2 
6871 6 0.84024 0.240981 0.0208877 0 5 2 
7105 6 0.0355437 0.266845 0.0247801 3 1 2 
5385 6 0.961193 0.298679 0.985328 -1 0 -1 
8763 5 0.0301721 0.274521 0.012633 3 -1 -1 
7617 6 0.0746077 0.286119 0.985198 -4 1 0 
5503 6 0.059143 0.303007 0.994337 -3 5 -1 
8308 5 0.211629 0.305724 0.0219512 7 2 0 
6826 6 0.705889 0.264798 0.0140903 2 -5 2 
6311 6 0.873089 0.313637 0.0201589 -3 3 2 
8314 5 0.925662 0.337828 0.97386 -1 2 3 
8178 6 0.965002 0.298126 0.998452 -4 -2 -1 
5128 6 0.586269 0.342578 0.0328427 5 -2 -2 
8514 5 0.545437 0.348485 0.992963 0 0 -3 
7526 6 0.735767 0.414852 0.984688 0 6 3 
7866 5 0.942669 0.387684 0.0167407 -1 4 4 
7762 5 0.265419 0.389195 0.036918 3 1 -3 
7202 6 0.682744 0.414909 0.990545 -3 0 -2 
8922 6 0.99089 0.419874 0.0313501 -2 3 5 
5150 6 0.417975 0.468448 0.0422354 1 -1 3 
7565 6 0.357756 0.442243 0.0444365 -5 -3 -1 
8261 6 0.683332 0.443591 0.0126146 -3 2 2 
7778 5 0.808579 0.458165 0.0182184 1 3 -2 
7504 6 0.938077 0.516129 0.0444571 -2 -4 0 
6191 6 0.200391 0.53245 0.985986 -1 -5 0 
8693 6 0.823914 0.489689 0.00678912 4 -5 2 
7434 6 0.597465 0.502512 1.00163 3 -3 1 
8651 6 0.970057 0.503577 0.00417114 -2 0 -5 
7994 5 0.553654 0.556808 0.0188314 2 6 1 
7355 6 0.962109 0.551065 0.0335908 -2 1 3 
8936 6 0.950578 0.59051 0.0282952 1 6 4 
8402 6 0.0659553 0.617654 0.0184467 2 -2 -2 
7368 6 0.928898 0.659978 0.965855 0 -2 -3 
8519 5 0.23658 0.683453 0.982316 6 5 2 
8403 6 0.337904 0.707647 0.994624 -3 -1 -2 
6862 6 0.41612 0.707835 0.975512 -5 0 -1 
7412 5 0.426381 0.71712 0.00665443 2 4 0 
8808 5 0.669198 0.690023 0.0266182 -2 2 2 
5170 6 0.405338 0.721228 0.0244976 1 -2 1 
8773 5 0.582112 0.731385 0.989575 -2 -2 -2 
5560 5 0.384834 0.765085 0.0214619 3 -2 1 
6743 5 0.617933 0.786667 0.985563 -1 -6 -1 
7485 5 0.744813 0.805705 0.0170969 -4 0 -2 
8221 5 0.014326 0.818486 0.00751353 -1 -2 3 
7320 5 0.283393 0.788626 0.0516718 7 5 2 
6971 6 0.895279 0.83444 0.0179697 -4 0 -1 
5878 6 0.179104 0.836363 0.0318207 3 -3 -1 
5901 5 0.489796 0.835645 0.0283793 -4 -4 -2 
8225 5 0.019863 0.886377 0.996357 -1 0 -2 
8464 6 0.161787 0.906685 0.961151 1 9 -6 
7028 5 0.532034 0.884097 0.000718319 4 0 1 
7897 6 0.859871 0.89037 0.0561831 3 1 -7 
6645 5 0.0635835 0.885638 0.968776 -1 1 -1 
8071 5 0.743251 0.880111 0.00685177 0 3 4 
5288 6 0.984637 0.896344 0.00562249 -2 4 2 
6667 6 0.489509 0.922898 0.0275102 -5 -3 2 
6583 5 0.0722847 0.948718 0.98942 -2 -3 -4 
5251 5 0.204883 0.933986 0.024759 -3 5 1 
8551 6 0.0588295 0.964049 0.0136177 -4 2 0 
7347 6 0.0792211 0.0294825 0.99652 4 -2 -3 
7288 6 0.992712 0.0537206 0.0292837 1 0 1 
8923 6 0.41667 0.0599605 0.0638289 2 -2 1 
7802 6 0.604585 0.0274986 0.0586229 -2 -2 2 
5603 5 0.122344 0.0671528 0.0214057 -3 2 -1 
7012 6 0.157107 0.0776561 0.077616 3 -4 3 
7299 6 0.161016 0.16325 0.0233796 -2 2 4 
8029 5 0.763693 0.137445 0.0492053 -2 2 0 
8050 6 0.0800436 0.183863 0.983582 0 -4 -4 
8630 6 0.539136 0.213461 0.0259689 1 -4 -3 
5507 5 0.705199 0.218389 0.0350753 0 -1 3 
8189 6 0.0443017 0.246412 0.00309586 -5 -2 -1 
6002 6 0.225972 0.210874 0.0109356 3 -2 -7 
6074 5 0.426038 0.253951 0.0557833 -4 -3 0 
6523 6 0.421826 0.248605 0.0474371 5 -1 4 
6316 6 0.571718 0.23784 0.0472548 1 2 -2 
8430 5 0.704577 0.235923 0.0378101 -1 -6 -3 
8027 6 0.972615 0.243832 0.0502438 -5 0 -1 
6399 6 0.386366 0.287095 0.0283844 -1 -1 -2 
7459 6 0.719221 0.309193 0.0253119 -2 0 2 
8671 6 0.691 0.292785 0.0466854 1 1 5 
8918 6 0.788861 0.273126 0.071297 3 -1 0 
6727 6 0.810206 0.316176 0.0456494 0 -3 -3 
8060 5 0.147332 0.367502 0.0105457 5 -3 -3 
8886 6 0.664028 0.304168 0.0490038 -2 3 -1 
8157 5 0.77712 0.332077 0.0047763 -2 -1 4 
5723 5 0.853501 0.316396 0.0611469 3 1 8 
7449 6 0.325849 0.339995 0.0647479 1 -5 5 
5966 5 0.522059 0.385505 0.0328359 -1 -3 4 
7020 6 0.550195 0.362248 0.055396 -3 -1 2 
5961 5 0.863824 0.3907 0.0636549 4 -5 2 
5187 5 0.578031 0.38605 0.0372353 2 -3 1 
7188 6 0.639073 0.39934 0.0289321 3 6 -3 
7642 6 0.259597 0.350673 0.0153967 -3 5 3 
5116 6 0.783807 0.414187 0.0693983 4 3 0 
5353 5 0.0160468 0.386942 0.0351854 -2 -2 -1 
8561 6 0.0468833 0.42201 0.0062354 1 0 3 
7797 6 0.512486 0.411381 0.0335562 -1 0 -3 
6642 5 0.41238 0.478513 0.0600718 1 2 2 
8826 5 0.609801 0.455667 0.0185915 3 -1 4 
5532 5 0.941081 0.447897 0.0749687 0 -1 3 
7371 5 0.389638 0.459692 0.0587708 3 -1 3 
6203 6 0.39334 0.472917 0.989898 -4 -1 -2 
5556 6 0.552302 0.446803 0.053697 -2 3 0 
7276 5 0.938481 0.456571 0.0338439 -2 -2 -1 
5624 6 0.221493 0.52161 0.0561983 1 1 -1 
5004 5 0.731759 0.473655 0.0367569 0 0 5 
7179 6 0.113308 0.490897 0.00685316 1 -2 1 
6263 5 0.0405077 0.532806 0.0259651 5 5 4 
6835 5 0.182307 0.560377 0.0296349 -5 4 5 
5576 6 0.250216 0.54186 0.99336 -1 -1 -3 
8817 5 0.873882 0.524579 0.0227988 -1 1 6 
6489 5 0.998407 0.55702 0.0322796 -1 -2 7 
5627 5 0.461254 0.56779 0.057462 1 -1 -1 
7432 5 0.796222 0.575748 0.993451 1 2 -3 
7248 5 0.22728 0.60061 0.0305303 6 -3 4 
5129 5 0.203381 0.56545 0.0395492 0 1 -4 
8389 6 0.463355 0.583683 0.0318885 -1 -2 0 
7890 5 0.189593 0.637223 0.0291148 -4 -1 -1 
8894 6 0.714986 0.651035 0.0110873 -2 -3 2 
5390 6 0.644348 0.660798 0.0464956 6 1 0 
5744 6 0.748518 0.69015 0.00224057 -4 -5 5 
6031 5 0.924334 0.645431 0.0395435 -3 5 2 
5799 6 0.100821 0.705276 0.0465078 -4 3 3 
8786 6 0.734046 0.691996 0.0396732 -5 -5 -4 
7794 5 0.339441 0.701301 0.0861913 -2 1 0 
8118 5 0.725183 0.682632 0.0785218 3 4 0 
8967 6 0.0499771 0.768807 0.051344 0 4 2 
7208 5 0.347271 0.760136 0.0339841 2 -6 1 
5114 6 0.101186 0.743943 0.0346025 0 4 1 
7014 6 0.301241 0.747398 0.00112085 3 -2 1 
8342 6 0.839883 0.784051 0.0672411 -1 -5 4 
7190 6 0.297642 0.813961 0.0638181 1 0 -1 
7780 6 0.489618 0.816704 0.995161 3 5 -1 
7772 5 0.01148 0.831828 0.0237423 2 0 2 
7010 5 0.513377 0.798405 0.0679168 2 0 2 
7065 5 0.716726 0.863058 0.0482977 -8 1 -2 
5790 5 0.621859 0.863589 0.0552821 7 4 6 
5830 6 0.74732 0.862373 0.0528852 0 -2 -1 
6787 6 0.277437 0.850308 0.0187587 2 -2 -1 
8247 6 0.449992 0.851235 0.0318345 -2 -3 1 
7457 5 0.934405 0.914569 0.0472573 3 5 -1 
8978 5 0.125379 0.92208 0.0384313 1 -4 6 
8242 5 0.667038 0.918133 0.0567146 1 -3 1 
5233 6 0.711309 0.905357 0.0501208 1 -4 -1 
6760 5 0.833072 0.882383 0.0640468 3 -1 -2 
6527 6 0.560165 0.988424 0.0359833 2 3 -2 
6923 6 0.759627 0.00414917 0.0604494 1 -5 0 
8726 5 0.930365 0.0294715 0.0469128 -2 3 2 
6312 6 0.37846 0.0462331 0.00757415 0 -1 0 
5892 6 0.361626 0.0683499 0.0410688 2 4 -2 
8787 5 0.376388 0.0710119 0.0664592 3 0 4 
6820 5 0.869021 0.0899643 0.0715841 -7 5 0 
6800 5 0.397567 0.0687697 0.0822076 3 -2 3 
5470 5 0.85366 0.0968737 0.073215 -6 0 2 
7977 5 0.0669279 0.147126 0.0250291 1 3 1 
5012 6 0.373232 0.148281 0.0762958 2 2 -4 
8885 5 0.953311 0.129681 0.0496413 -2 -5 5 
7452 5 0.439249 0.18289 0.0184411 -1 -1 3 
6708 6 0.581182 0.238248 0.0215102 -10 -1 7 
7374 5 0.690494 0.233233 0.0395282 -1 6 -3 
5328 6 0.500366 0.289812 0.0412667 -2 4 -4 
7373 5 0.911917 0.243872 0.042144 0 8 7 
8853 5 0.243771 0.272576 0.0293441 6 2 -1 
8479 5 0.393466 0.312061 0.0617887 3 5 3 
5066 5 0.548975 0.322404 0.0528144 4 -2 1 
5950 5 0.957705 0.275106 0.0650928 1 -1 1 
6904 6 0.997136 0.308274 0.073853 -3 -1 -2 
8088 5 0.646188 0.309378 0.0390977 1 0 2 
7281 6 0.829733 0.260663 0.0740462 -1 -1 -3 
8450 5 0.821845 0.342388 0.0881251 -4 4 4 
8858 6 0.484502 0.343363 0.00792633 1 -2 -2 
7181 6 0.598232 0.293767 0.0407675 1 2 1 
5397 6 0.739531 0.325499 0.0785605 -1 3 1 
5310 6 0.293715 0.346441 0.0645787 1 0 3 
5875 6 0.961743 0.351269 0.0764505 -1 3 4 
7585 6 0.497845 0.359483 0.0496106 3 -2 0 
5760 5 0.774624 0.358636 0.0323133 2 2 -5 
8504 6 0.0465199 0.393763 0.0819795 3 -2 3 
8333 5 0.238356 0.410345 0.0749811 -5 -1 2 
5314 6 0.399983 0.396251 0.0718375 -5 -1 8 
8877 5 0.828243 0.455223 0.050544 1 4 3 
8930 5 0.868332 0.41574 0.049233 1 -2 0 
6064 5 0.529201 0.472117 0.0738886 2 -9 6 
7346 5 0.840536 0.456851 0.0736861 0 -2 6 
8636 5 0.883724 0.47041 0.0636082 5 -1 0 
8228 5 0.326432 0.492943 0.0319114 3 5 -1 
6432 6 0.440433 0.476535 0.0620244 0 3 5 
8262 5 0.650517 0.478819 0.117474 -3 -3 0 
6251 5 0.280306 0.557174 0.0216262 -2 4 1 
7191 5 0.832772 0.498175 0.0612466 4 0 1 
5300 5 0.048222 0.551414 0.0609724 4 1 -5 
6485 5 0.576287 0.540327 0.0427089 1 4 0 
6368 5 0.794168 0.497495 0.0283069 7 2 -4 
5039 6 0.299619 0.539544 0.0337111 0 5 -3 
6089 6 0.289981 0.541743 0.0396703 -1 -2 2 
8489 5 0.135092 0.581985 0.0413145 1 2 0 
8843 6 0.284277 0.601687 0.0756116 3 -1 -6 
5706 6 0.994184 0.63109 0.0682118 4 -3 -3 
5119 6 0.0131043 0.640325 0.0427944 4 -3 -2 
7942 6 0.376738 0.595304 0.016763 4 -3 3 
6394 5 0.912254 0.687596 0.0719719 -4 2 2 
6755 6 0.0700001 0.687699 0.0344114 -2 0 3 
7162 6 0.42521 0.681323 0.0345932 2 0 3 
6216 5 0.652795 0.675893 0.0338471 -2 -1 -3 
7728 5 0.620233 0.705846 0.0540026 -5 -3 5 
5972 5 0.152034 0.707092 0.0679787 -4 2 4 
7872 6 0.752892 0.706262 0.0772989 -1 -3 -3 
7103 6 0.0965271 0.705574 0.0838991 3 -2 -1 
8376 6 0.29787 0.714306 0.027586 0 0 3 
7453 5 0.888224 0.776783 0.050296 2 3 -4 
5847 6 0.0538818 0.754577 0.0856186 0 1 -4 
7319 5 0.332885 0.73529 0.0598858 5 1 3 
6412 6 0.362083 0.82565 0.083619 -2 -1 1 
6224 6 0.606916 0.816887 0.0805519 1 1 -2 
6597 5 0.799291 0.772982 4.93148e-05 2 2 0 
5743 6 0.0374172 0.795815 0.0588395 -2 -1 1 
7841 6 0.591837 0.798258 0.0428303 -1 0 -3 
5780 5 0.768111 0.8405 0.0444063 -3 -6 -2 
6023 5 0.24211 0.79681 0.0901587 6 5 1 
6690 5 0.308704 0.868317 0.0760055 0 -5 1 
6278 5 0.800878 0.857588 0.0660791 -1 -4 -3 
5085 5 0.23059 0.881829 0.0686781 2 4 1 
6032 5 0.41474 0.849692 0.0582773 -3 -1 2 
5954 5 0.988835 0.853827 0.0643626 0 -3 3 
7795 6 0.114226 0.907969 0.0456874 2 -5 -7 
5297 5 0.723059 0.846574 0.0546782 0 -2 6 
8320 6 0.20607 0.935928 0.0383138 4 1 3 
7747 5 0.889512 0.953471 0.0401089 2 -4 1 
6752 5 0.344859 0.94664 0.0463648 3 -2 0 
7098 6 0.493127 0.944733 0.0671307 -3 -2 1 
6827 6 0.980973 0.954686 0.0528061 -1 1 5 
8707 6 0.159785 0.99876 0.0206375 -3 3 -5 
6373 6 0.657678 0.997107 0.0560497 -4 -7 1 
5694 6 0.727653 0.986439 0.0620488 3 -7 2 
6536 6 0.853864 0.974216 0.0550094 1 4 -1 
7152 6 0.166486 0.0140148 0.0783604 1 -1 4 
8553 6 0.30756 0.0104122 0.107404 4 4 -6 
7743 6 0.927322 0.974748 0.0952375 -2 -2 2 
6247 5 0.405762 0.0615411 0.108832 0 -2 3 
5350 6 0.694487 0.0332213 0.0635654 4 -7 1 
8944 5 0.922563 0.00225336 0.0695686 1 -3 -2 
6413 5 0.15342 0.0671346 0.0671959 2 -4 -1 
6574 5 0.411295 0.0827832 0.0846179 -1 -1 2 
8816 6 0.908081 0.0543594 0.11081 -3 5 2 
7979 6 0.278398 0.0747383 0.0764573 4 0 0 
7997 5 0.29233 0.120444 0.0579813 -8 -1 1 
6081 5 0.0826368 0.0940862 0.0713048 2 5 -4 
6005 6 0.221716 0.0958751 0.0705542 0 -1 2 
6054 5 0.666771 0.080369 0.0658167 3 0 -4 
7455 6 0.948468 0.111332 0.0922873 -4 2 -1 
5514 5 0.382799 0.0701006 0.0881279 1 0 0 
8338 6 0.604309 0.130787 0.0920848 -3 -1 -1 
5630 5 0.585058 0.102206 0.0964475 1 4 0 
7572 6 0.777492 0.160536 0.0500674 -6 6 0 
7365 5 0.0247053 0.153303 0.127755 4 -2 6 
8810 5 0.496195 0.188748 0.108999 -3 -1 2 
8181 6 0.974031 0.172093 0.0733481 -2 -1 2 
5163 6 0.295355 0.238536 0.0674041 0 1 2 
5419 5 0.173186 0.283518 0.0651951 3 3 -3 
7523 6 0.278394 0.264767 0.108204 3 0 0 
8912 5 0.468794 0.272394 0.112142 -1 3 -1 
7036 6 0.90564 0.302817 0.114693 -2 -4 -1 
5024 6 0.493479 0.291023 0.126633 3 0 -1 
6860 5 0.808576 0.269743 0.0966016 3 3 1 
7383 5 0.915017 0.334761 0.0738102 2 1 1 
7426 6 0.305721 0.343425 0.0870764 -2 6 -1 
6833 5 0.477466 0.35512 0.0723634 -1 -2 2 
5736 6 0.379432 0.389821 0.116331 -5 -1 -3 
8506 6 0.0636185 0.418028 0.0894642 4 -3 -1 
8507 5 0.136901 0.424195 0.0581634 -3 0 3 
7889 6 0.236735 0.425909 0.08711 1 -4 -6 
6629 6 0.480249 0.439352 0.0858577 4 3 2 
7827 6 0.0908245 0.445682 0.0913024 0 3 4 
5986 6 0.304306 0.452575 0.0885853 3 0 5 
5309 5 0.79183 0.432269 0.0990778 2 -4 1 
8992 6 0.345531 0.442633 0.0873405 3 -2 0 
5254 6 0.986963 0.502176 0.126894 -1 -6 -2 
7064 5 0.450095 0.51951 0.0889797 2 -1 -3 
7693 5 0.730479 0.468765 0.0726246 3 0 7 
7341 6 0.412388 0.518531 0.0806028 -1 5 -2 
7906 6 0.647515 0.522221 0.0413715 0 -3 -1 
7352 5 0.195913 0.54443 0.116216 -1 -2 2 
6231 6 0.0494192 0.594044 0.0835776 -2 -4 -2 
8764 6 0.186391 0.560133 0.0994377 -3 0 3 
7493 6 0.312594 0.575406 0.0992175 2 -1 1 
5273 5 0.345705 0.610178 0.0829023 -2 -2 3 
8577 5 0.0467969 0.600207 0.0835326 2 3 1 
8090 6 0.416378 0.70058 0.0737939 -3 -3 0 
5588 5 0.879509 0.683759 0.0664923 4 4 2 
5745 6 0.120485 0.708965 0.102023 -1 -7 -1 
6353 5 0.482824 0.69804 0.0871775 -3 2 2 
6477 6 0.756808 0.704407 0.101585 -4 -1 -1 
7442 6 0.993205 0.697243 0.138877 -7 3 0 
7566 6 0.25663 0.738238 0.070795 0 2 -4 
5582 6 0.368837 0.720057 0.0688002 1 -2 3 
8528 6 0.719561 0.730048 0.0704293 -3 3 3 
5367 6 0.527699 0.746611 0.0711352 -1 2 3 
7811 5 0.0931214 0.796577 0.096051 0 -4 4 
5885 6 0.127463 0.808754 0.0751514 -3 -5 0 
7219 6 0.72381 0.80426 0.0512884 1 4 -4 
7046 5 0.726387 0.803955 0.0961955 2 -1 -1 
5550 5 0.826857 0.783475 0.098183 6 -1 -1 
8009 6 0.51581 0.799197 0.087051 -1 3 1 
6889 6 0.120306 0.827201 0.0728989 2 4 -2 
6964 5 0.157022 0.845206 0.091711 1 0 2 
8151 5 0.205138 0.85788 0.0644411 -1 -2 1 
7088 6 0.553697 0.875434 0.0482534 -3 -2 0 
8036 6 0.307929 0.876199 0.0722021 4 0 3 
6566 5 0.0808792 0.902985 0.0590506 -3 1 -5 
6546 6 0.0187918 0.924998 0.0555831 2 1 0 
5258 5 0.565035 0.927351 0.0611451 1 1 -5 
8267 5 0.125049 0.94618 0.062724 -1 -3 0 
5484 6 0.864919 0.953472 0.103411 1 0 -2 
5777 6 0.0607808 0.989452 0.053386 2 1 1 
7662 6 0.383322 0.984686 0.0784635 -1 -3 -1 
8797 6 0.766288 0.979463 0.112647 3 -1 0 
8120 6 0.314414 0.00308553 0.104588 1 2 -1 
8470 6 0.666288 0.014376 0.111177 4 -4 -8 
5102 6 0.697814 0.0191844 0.104977 -4 -2 3 
8870 6 0.915015 0.0251175 0.0900602 0 -1 5 
8882 6 0.287172 0.0973731 0.092168 -3 -3 -2 
8152 6 0.276944 0.0838566 0.082565 -2 1 -3 
6738 6 0.424845 0.0877906 0.121957 0 0 2 
6165 5 0.521432 0.120264 0.117383 -1 -6 -1 
5286 5 0.815393 0.0987945 0.11373 3 -2 5 
7686 6 0.0214211 0.142132 0.117148 0 -2 0 
7759 5 0.211018 0.116155 0.150272 -5 1 0 
7503 5 0.288494 0.148604 0.0958182 0 6 0 
6233 5 0.445542 0.184828 0.0955078 3 -1 1 
7305 6 0.785499 0.134245 0.107444 -6 -3 -3 
8113 5 0.946152 0.128609 0.146914 -1 -3 0 
5609 6 0.148333 0.196325 0.13441 2 4 4 
7637 6 0.376768 0.219977 0.10468 -1 0 5 
6711 6 0.0505142 0.18842 0.100384 6 0 1 
7611 5 0.0293734 0.199319 0.123729 -2 0 -4 
5337 6 0.318938 0.237976 0.0868203 0 2 7 
6766 6 0.25995 0.225254 0.139876 2 1 -5 
8035 6 0.440172 0.211393 0.0921588 2 0 0 
5359 5 0.793966 0.279056 0.0738104 -6 -1 -5 
6266 6 0.0749948 0.292529 0.0945914 -3 1 0 
5791 6 0.760739 0.270911 0.131002 -1 0 1 
6151 6 0.0797053 0.317486 0.0921283 -3 -4 4 
8842 6 0.567082 0.293089 0.0589675 -1 -1 0 
5149 5 0.557132 0.332617 0.119986 -3 4 -3 
7358 6 0.334985 0.379297 0.154844 -1 -1 -5 
6422 6 0.6453 0.373939 0.0593315 -6 -3 5 
5662 6 0.380204 0.403627 0.0989978 1 -4 -1 
7481 5 0.908712 0.365817 0.0776844 -2 -5 -1 
5166 5 0.00988998 0.437497 0.105603 0 -1 -1 
6314 6 0.121029 0.436075 0.106654 0 -5 -2 
5154 5 0.25574 0.532921 0.0792332 -2 0 1 
7445 6 0.221049 0.517024 0.0819502 0 2 0 
8301 6 0.824556 0.495441 0.107866 -6 -2 1 
8165 5 0.829 0.513865 0.103448 3 0 1 
8054 6 0.616004 0.565683 0.0998252 -3 -2 -3 
5531 5 0.0671306 0.558421 0.0753802 4 -7 -2 
8538 6 0.177679 0.572665 0.112606 -5 0 3 
8632 6 0.278371 0.544121 0.0763 0 -2 -1 
6025 5 0.304185 0.550193 0.0672645 -4 1 -1 
5523 5 0.360923 0.56848 0.124895 5 1 -1 
6260 6 0.442799 0.52433 0.0882808 3 -2 -3 
6011 6 0.851554 0.543997 0.093588 2 1 2 
5562 6 0.94616 0.576842 0.0697035 4 2 6 
5434 6 0.368315 0.691165 0.108531 -1 -1 -2 
5752 6 0.438644 0.670678 0.0860154 -3 1 1 
6326 5 0.106475 0.690412 0.125529 -1 1 3 
6684 5 0.372839 0.700586 0.0681781 -1 1 4 
7867 6 0.922484 0.699622 0.0947534 -3 -2 2 
6503 6 0.318364 0.729607 0.0727426 7 4 -2 
5919 5 0.747951 0.762526 0.0981155 -4 2 0 
8015 6 0.0106964 0.776075 0.102346 3 -2 -7 
8198 6 0.162762 0.839668 0.0771201 0 -1 0 
7380 6 0.243508 0.779441 0.106975 1 4 5 
6772 6 0.253873 0.794144 0.14545 -2 -2 -1 
7166 5 0.792245 0.810409 0.0903919 0 -5 4 
6929 5 0.212694 0.790258 0.0759707 3 2 0 
8370 6 0.273951 0.772938 0.0954581 2 -2 2 
8224 6 0.386969 0.799295 0.0971756 0 3 -3 
7404 6 0.894626 0.781574 0.0911058 2 -2 3 
6933 6 0.439836 0.892817 0.0968779 -4 5 0 
7416 6 0.68331 0.870028 0.119751 -3 -1 0 
7192 5 0.712011 0.861803 0.0769421 -3 2 -3 
6158 6 0.844451 0.901407 0.108669 0 0 -4 
7210 6 0.640798 0.907112 0.0751379 2 -1 1 
6047 5 0.0298675 0.910581 0.0962352 -2 -4 1 
5758 6 0.51613 0.908641 0.0775921 1 -5 0 
7501 5 0.122852 0.94516 0.0999825 -1 -9 -1 
7435 5 0.38623 0.961437 0.113011 -3 -5 1 
6245 6 0.445901 0.0025117 0.0950688 2 -2 2 
6564 5 0.651636 0.978822 0.104297 5 -3 1 
8107 5 0.708217 0.973017 0.107339 2 -2 1 
8779 5 0.806612 0.990537 0.115094 1 2 -2 
8093 5 0.101458 0.013735 0.119206 3 -1 7 
8533 6 0.339746 0.996588 0.165336 -2 0 -1 
6119 5 0.657174 0.00903122 0.133268 3 0 0 
7282 6 0.206275 0.0201021 0.0846923 4 2 2 
5871 5 0.0818648 0.0298548 0.125727 2 -2 4 
8831 5 0.44761 0.0499709 0.146717 -2 -1 -1 
8739 6 0.865129 0.0998785 0.12697 -4 0 -3 
5833 6 0.238308 0.0662628 0.0952402 1 2 2 
6342 5 0.263311 0.101459 0.127428 -2 1 3 
6990 5 0.83247 0.10346 0.104307 -2 -4 1 
7360 5 0.536905 0.139366 0.150882 4 2 3 
8669 6 0.083521 0.177611 0.0970572 0 -1 1 
5794 6 0.150321 0.184058 0.110563 0 -1 -2 
7153 5 0.424986 0.141478 0.115767 -2 6 1 
8158 6 0.852566 0.140714 0.126961 -4 -6 -3 
6469 6 0.155894 0.205383 0.133377 0 -2 -4 
6559 5 0.290685 0.198192 0.139388 -3 3 2 
6716 6 0.745434 0.142156 0.11497 1 -1 0 
5480 5 0.0462398 0.169206 0.144465 -2 3 -4 
5642 5 0.211058 0.221154 0.131165 1 0 0 
7462 5 0.529827 0.178593 0.112877 -1 -2 -3 
7883 5 0.833134 0.194754 0.103884 -3 -4 -2 
7238 6 0.862365 0.205459 0.155516 -5 3 5 
7231 6 0.885245 0.285653 0.153051 1 5 1 
8989 5 0.456565 0.241891 0.137223 3 3 0 
7201 6 0.167826 0.296684 0.0827525 -1 2 -2 
6902 5 0.389235 0.264957 0.135294 3 0 2 
5600 6 0.504108 0.23935 0.135005 3 -2 1 
8752 5 0.989528 0.291666 0.156041 -8 0 1 
8939 5 0.547509 0.298888 0.113419 6 -4 1 
7096 6 0.90961 0.300114 0.0962434 -1 1 1 
5991 6 0.258409 0.303495 0.145689 2 -3 2 
6610 5 0.417939 0.355742 0.137135 -3 -1 -4 
8951 5 0.910396 0.33589 0.120265 0 -3 3 
8983 5 0.177053 0.34541 0.145812 3 3 3 
5750 6 0.0189383 0.341253 0.112473 -4 -2 -4 
7815 6 0.669189 0.404243 0.0756828 -4 3 -1 
5932 6 0.877914 0.401335 0.151573 3 0 -1 
8520 5 0.184169 0.458567 0.13326 0 -3 7 
5113 6 0.241195 0.434671 0.13537 -2 0 0 
5891 5 0.711695 0.401866 0.121941 -1 1 0 
7058 5 0.136393 0.446637 0.146823 1 3 -1 
7460 6 0.342641 0.419375 0.145796 8 -1 0 
7735 6 0.565848 0.42779 0.104717 3 -4 0 
6455 5 0.551556 0.503036 0.12992 1 3 -5 
5731 6 0.181079 0.533529 0.155626 -1 -7 -1 
5080 6 0.195665 0.508075 0.088745 2 -3 0 
7286 6 0.783958 0.531449 0.131472 -1 -2 -1 
5316 5 0.902617 0.511698 0.124817 4 0 -1 
8884 6 0.0733137 0.555122 0.0916527 0 3 1 
8274 5 0.315239 0.540622 0.140887 1 5 4 
5156 5 0.306404 0.602485 0.141754 0 1 5 
6652 5 0.909393 0.590939 0.14947 0 -1 3 
8244 5 0.602397 0.626424 0.161982 2 -3 6 
6481 5 0.840714 0.624111 0.159024 1 6 7 
8863 6 0.125155 0.618443 0.0980988 3 -1 -3 
5649 5 0.233263 0.657406 0.0985192 -2 0 -1 
6845 5 0.496499 0.648153 0.1137 -1 -3 -2 
6972 5 0.453695 0.694482 0.105995 0 0 -3 
8021 6 0.0570722 0.715019 0.139206 0 1 -5 
6453 6 0.070806 0.732074 0.110012 4 3 0 
7011 6 0.412734 0.723116 0.135181 -3 0 -4 
7450 5 0.868892 0.707016 0.125683 4 5 1 
7480 5 0.961843 0.703154 0.164705 -2 -1 3 
8092 6 0.10478 0.713476 0.101714 1 4 -2 
7622 5 0.183172 0.709839 0.0865528 3 -5 1 
6771 6 0.884614 0.73031 0.125167 -5 5 -1 
5167 5 0.932978 0.760393 0.151276 2 2 6 
7076 6 0.955566 0.735435 0.158573 4 -3 1 
6830 5 0.128299 0.760741 0.132016 -3 5 1 
5612 5 0.233189 0.70361 0.128254 0 -3 3 
7121 6 0.989723 0.725417 0.104243 2 -2 0 
8349 5 0.0618311 0.75346 0.117227 -3 2 2 
5094 5 0.761699 0.768226 0.132679 -1 -1 1 
7362 6 0.810508 0.82052 0.128459 -2 -1 7 
7051 6 0.252862 0.823382 0.0956366 -2 0 3 
5908 6 0.74205 0.792069 0.134437 -2 4 -1 
7091 5 0.954896 0.800732 0.102304 0 0 3 
8276 5 0.989684 0.839344 0.110473 -3 3 -6 
7039 6 0.319064 0.863332 0.1134 0 3 -1 
6409 6 0.352503 0.839472 0.149078 6 -1 6 
5674 6 0.745143 0.79902 0.166138 2 0 3 
6028 6 0.76538 0.831089 0.117076 -1 0 1 
5395 6 0.360443 0.887764 0.105058 -4 1 0 
8741 5 0.690262 0.886058 0.154978 -5 -1 4 
5535 6 0.790325 0.900803 0.133359 -2 2 -2 
8730 6 0.956802 0.897669 0.151168 0 -2 -4 
6624 6 0.197681 0.934073 0.121259 3 -3 1 
8558 5 0.721662 0.90404 0.126236 1 2 -1 
7805 5 0.417791 0.901165 0.112356 -2 -4 2 
8571 5 0.616527 0.947554 0.119999 0 -4 1 
5828 6 0.847796 0.9623 0.0977112 2 0 4 
5797 6 0.32015 0.0159252 0.150231 -1 -4 -2 
6925 6 0.811888 0.988897 0.150083 2 2 -2 
8497 6 0.943702 0.0199645 0.118066 -3 5 -3 
8606 5 0.350799 0.10381 0.180901 0 3 -5 
8802 5 0.711352 0.0614358 0.131193 -5 1 2 
8917 5 0.785914 0.135296 0.145839 4 -2 -2 
8110 6 0.252155 0.158081 0.117744 -5 0 3 
8188 6 0.59467 0.174989 0.0840378 1 0 -2 
5247 6 0.137713 0.210982 0.139686 0 0 0 
5001 6 0.594908 0.205177 0.161461 4 -3 0 
6942 5 0.264499 0.244824 0.097593 2 5 1 
7914 6 0.352786 0.208358 0.139811 0 5 -3 
7863 5 0.682222 0.243887 0.15211 -2 3 -5 
7056 6 0.0863293 0.26996 0.164708 3 -2 5 
8423 6 0.184157 0.276908 0.0904367 2 0 9 
7415 5 0.745119 0.274439 0.148045 0 2 0 
8051 6 0.311104 0.294997 0.136807 0 4 3 
6569 6 0.887268 0.318189 0.115377 -2 2 2 
7767 6 0.282307 0.294032 0.150634 0 0 -3 
6239 6 0.355857 0.295404 0.184175 3 1 -6 
5250 6 0.143975 0.35607 0.160115 -4 -3 -3 
8946 5 0.459354 0.314244 0.125894 -6 0 3 
8203 6 0.522143 0.3635 0.161321 -3 -3 0 
7027 6 0.19739 0.379724 0.155809 3 0 -1 
6898 6 0.869817 0.399103 0.140978 -1 -3 -1 
5132 6 0.15176 0.362899 0.155017 -1 4 -1 
5478 6 0.919275 0.373972 0.185938 3 -1 3 
6545 5 0.276078 0.40951 0.127305 0 -1 -1 
7725 5 0.859743 0.422127 0.149337 -1 3 1 
6757 6 0.164566 0.431552 0.116416 2 1 1 
5133 6 0.611512 0.483395 0.137282 0 3 4 
8087 6 0.222523 0.506306 0.167611 2 0 2 
5348 5 0.598162 0.437541 0.168554 0 -5 1 
6887 5 0.937391 0.458499 0.125743 2 -2 1 
5120 5 0.503305 0.483951 0.192302 2 -1 5 
8182 5 0.548964 0.515877 0.147722 0 2 -1 
6586 6 0.787315 0.48447 0.130902 0 4 1 
5168 6 0.891349 0.46984 0.185972 1 -2 -1 
7847 6 0.189637 0.480852 0.113984 5 -2 5 
6423 6 0.270469 0.527144 0.139603 5 3 0 
8144 5 0.531501 0.582859 0.122461 -1 -6 0 
6664 6 0.606957 0.534222 0.15195 -2 2 -1 
8155 6 0.9079 0.544021 0.106996 -2 1 -1 
8177 6 0.0886169 0.542015 0.147419 -4 1 -2 
8981 5 0.175075 0.57214 0.182141 6 -9 1 
5380 5 0.421387 0.572405 0.155827 2 -2 4 
8788 6 0.415799 0.535542 0.15833 4 -4 -1 
8377 6 0.566774 0.588123 0.180085 -1 1 3 
7911 6 0.0758772 0.612966 0.180542 0 -4 -3 
6435 6 0.284403 0.629941 0.142208 2 3 2 
6974 6 0.631473 0.58144 0.192904 -2 -4 7 
7837 6 0.0592262 0.636475 0.167289 -2 0 3 
8697 6 0.642064 0.637946 0.123372 -5 2 -1 
7823 6 0.959548 0.649561 0.162452 -3 -1 -1 
6777 6 0.524105 0.671839 0.176253 -3 2 -1 
8733 6 0.715413 0.70514 0.1461 -2 0 1 
8691 6 0.765036 0.734801 0.134735 1 -1 1 
8595 5 0.597497 0.796953 0.148217 -5 7 0 
5253 5 0.582813 0.812507 0.194398 -1 -3 1 
8233 6 0.993175 0.760621 0.123607 1 -3 3 
5047 6 0.198224 0.841638 0.166063 1 -3 2 
7993 6 0.669127 0.808079 0.116448 4 6 1 
7297 6 0.688364 0.792859 0.118985 3 -3 3 
8486 6 0.43788 0.858838 0.13547 -1 -1 -2 
6535 6 0.927588 0.841127 0.142952 -4 -1 -1 
5737 6 0.185194 0.871027 0.165368 -3 0 -6 
6358 6 0.46229 0.820933 0.124466 -2 -5 -1 
5727 6 0.930453 0.883682 0.102941 -1 -2 -1 
6476 5 0.439408 0.919135 0.150034 -6 -4 -5 
5820 6 0.751924 0.924353 0.157468 -1 -6 -1 
7667 6 0.771258 0.983389 0.133704 -2 3 0 
5055 6 0.345789 0.00519398 0.164064 -1 6 -2 
5336 6 0.692949 0.00448953 0.168819 2 -3 2 
7149 6 0.16236 0.0248331 0.176566 -2 1 1 
6608 5 0.739168 0.0186347 0.160562 1 -2 -1 
6932 6 0.430668 0.0431008 0.163569 -5 1 4 
5409 5 0.748875 0.0420469 0.174036 0 -1 -5 
8622 5 0.353914 0.109015 0.155076 -1 -1 -1 
6467 6 0.456685 0.0847243 0.166379 -1 -2 -2 
7726 5 0.934249 0.0676798 0.187316 1 -4 -1 
8332 5 0.770997 0.0949977 0.183116 1 -4 4 
5711 6 0.934347 0.056736 0.164061 0 5 0 
5643 6 0.152642 0.111948 0.162302 -1 2 2 
5366 6 0.486435 0.111187 0.145632 0 -1 0 
7385 6 0.671687 0.14004 0.143026 5 -4 2 
8331 5 0.24212 0.154163 0.178103 3 -2 3 
7763 6 0.305862 0.166622 0.192703 3 1 3 
7443 5 0.816708 0.168144 0.180179 -3 -1 7 
7542 6 0.91318 0.202624 0.169975 -3 1 7 
6969 5 0.743292 0.202075 0.157198 -2 5 4 
5683 5 0.529157 0.246212 0.146473 -5 -2 5 
8822 5 0.0120852 0.180327 0.157313 2 2 -5 
6131 5 0.0191233 0.220091 0.207732 4 3 5 
7410 5 0.277248 0.233834 0.19529 -2 3 -1 
5435 6 0.422921 0.252257 0.172531 -3 -6 -1 
8709 6 0.580711 0.21415 0.152617 -2 0 1 
8821 6 0.212788 0.286803 0.164076 2 -7 -1 
8285 6 0.498038 0.286219 0.136801 0 -1 3 
5164 5 0.511841 0.276577 0.156956 0 -4 -3 
7664 5 0.13507 0.334099 0.161847 0 0 1 
8765 5 0.359784 0.348201 0.181229 -4 2 0 
6857 6 0.946349 0.330396 0.200147 1 -2 1 
7447 5 0.317074 0.367233 0.151964 0 4 0 
8122 6 0.6736 0.349332 0.18007 -4 5 6 
7078 5 0.647753 0.373603 0.191688 -6 -5 0 
7924 6 0.884647 0.368608 0.149667 -2 -2 0 
5442 6 0.0824908 0.382377 0.196765 -2 -3 1 
8980 5 0.109616 0.376631 0.158406 -2 -4 -4 
5021 6 0.33952 0.358201 0.179847 -1 2 2 
7793 5 0.371037 0.387129 0.187357 -2 0 3 
7939 6 0.520731 0.385227 0.129419 -2 -3 1 
8256 5 0.282181 0.426912 0.162619 -3 3 -2 
6514 5 0.91926 0.413718 0.174726 0 -2 5 
7107 6 0.98924 0.424779 0.126696 -2 2 -1 
5635 6 0.00301676 0.448846 0.214096 2 5 1 
6426 6 0.561179 0.49863 0.183146 4 -2 2 
6816 6 0.733684 0.453548 0.15842 -4 -2 5 
5513 5 0.135847 0.490005 0.175844 0 -5 2 
6558 6 0.227689 0.487907 0.148381 5 3 2 
7030 6 0.726677 0.470905 0.156488 3 2 0 
7519 6 0.916132 0.605667 0.164487 -2 3 0 
5275 5 0.976502 0.483108 0.156165 4 1 1 
5798 5 0.0103082 0.569968 0.165557 3 5 1 
6242 5 0.757094 0.553774 0.155318 4 -5 -3 
7395 6 0.252961 0.60115 0.171952 2 -3 -1 
5248 6 0.335503 0.625931 0.205318 5 -1 -1 
8236 5 0.352857 0.574277 0.178096 -6 -1 1 
7193 6 0.471814 0.596749 0.140708 -8 5 4 
5822 5 0.785801 0.608133 0.186346 0 2 -4 
8672 5 0.36442 0.619777 0.160435 2 -1 2 
5870 6 0.468663 0.639721 0.16317 -4 -2 5 
8866 6 0.490826 0.617208 0.167768 2 2 1 
8476 5 0.564324 0.624255 0.150947 -1 -2 1 
7269 5 0.719749 0.603271 0.185077 5 6 -1 
7110 5 0.12774 0.650284 0.206576 -3 -3 -2 
5384 5 0.158809 0.71084 0.201687 -5 2 3 
8662 6 0.460338 0.745174 0.185046 2 2 -8 
7428 6 0.580799 0.696359 0.186348 -3 2 -3 
5206 6 0.868507 0.69084 0.137448 -1 0 2 
8459 6 0.886854 0.761852 0.185894 0 -4 4 
8508 6 0.37775 0.784368 0.160613 0 1 -3 
7095 6 0.622181 0.821949 0.134286 -1 0 0 
8202 6 0.172554 0.806883 0.188371 -2 -3 11 
7786 5 0.605258 0.842612 0.187315 -2 -3 2 
6723 6 0.728507 0.845381 0.159903 -3 -3 -1 
5165 5 0.784996 0.842177 0.135476 -4 -1 2 
5819 6 0.428434 0.884194 0.201952 2 4 -3 
7967 6 0.00519801 0.881515 0.160673 2 0 0 
6554 6 0.926021 0.892033 0.22045 -1 0 7 
6308 6 0.0450391 0.903611 0.174857 0 4 1 
5580 6 0.990159 0.964163 0.148046 2 2 3 
7315 5 0.25337 0.935383 0.193059 3 0 3 
6782 6 0.242205 0.000274411 0.19909 -1 -3 2 
6785 5 0.385017 0.99871 0.200416 0 1 1 
7645 5 0.00488499 0.0155767 0.164861 0 0 3 
8432 5 0.202184 0.0261716 0.188757 -1 1 -8 
8655 5 0.256556 0.979136 0.164752 -3 5 1 
8706 5 0.460484 0.0032867 0.20126 -4 -3 1 
5411 5 0.133776 0.0326753 0.20276 1 -2 4 
6775 6 0.97382 0.0383566 0.221603 -1 1 0 
5672 6 0.439939 0.0796024 0.221144 -2 0 3 
8608 6 0.556098 0.0412458 0.221791 1 0 1 
8532 6 0.583906 0.0618151 0.187192 -2 3 -3 
7620 6 0.624584 0.0834376 0.191407 -1 2 4 
5740 5 0.240521 0.108791 0.177279 -3 0 2 
7473 6 0.593929 0.0925784 0.207355 0 1 -1 
5493 5 0.815089 0.109852 0.20031 1 0 -1 
5985 6 0.0041867 0.128535 0.199119 -5 -5 3 
6588 6 0.0369468 0.108027 0.203888 1 -2 6 
7774 5 0.224167 0.160797 0.205025 -3 -1 -3 
7921 5 0.142848 0.283444 0.173436 -1 2 -2 
5013 5 0.170527 0.161108 0.198333 1 3 -1 
6748 6 0.530053 0.18255 0.183564 2 3 1 
5995 6 0.621577 0.210085 0.185707 0 3 2 
8712 5 0.727495 0.204751 0.217369 5 -6 5 
5204 5 0.797472 0.201284 0.178711 -4 -2 5 
8746 6 0.0656043 0.256622 0.146394 4 0 3 
7672 5 0.104984 0.280234 0.192196 -1 1 5 
7158 5 0.332501 0.255194 0.182582 1 2 2 
7876 5 0.522608 0.2658 0.223823 0 0 -4 
5037 6 0.64426 0.269306 0.237791 0 -1 -5 
5228 5 0.709959 0.244058 0.173007 3 1 5 
7896 5 0.702062 0.293036 0.205621 -4 -3 8 
7492 5 0.776464 0.343611 0.186234 -2 3 4 
8296 5 0.4808 0.360182 0.232777 3 1 2 
5205 6 0.421943 0.372647 0.23925 2 -1 -5 
6431 6 0.639238 0.423798 0.195459 -3 3 4 
8460 5 0.144519 0.441965 0.216437 4 7 -5 
7787 5 0.953307 0.364985 0.211416 3 -1 -2 
8124 6 0.0467219 0.439521 0.191906 1 -1 3 
6980 6 0.237135 0.460696 0.153432 2 2 6 
7015 5 0.3138 0.475845 0.187707 -1 1 4 
5779 6 0.917727 0.4384 0.195281 -4 0 -1 
8597 5 0.467402 0.470971 0.176186 2 -5 1 
5090 5 0.378932 0.502224 0.20829 -4 0 7 
8543 5 0.854917 0.564866 0.209261 -3 1 -2 
5169 5 0.919894 0.525253 0.205217 -1 3 1 