ITEM: TIMESTEP
20000000
ITEM: NUMBER OF ATOMS
9000
ITEM: BOX BOUNDS pp pp pp
-75 75
-75 75
-75 75
ITEM: ATOMS id type xs ys zs ix iy iz 
6618 5 0.729978 0.0318929 0.989281 -2 1 -3 
5541 6 0.627463 0.0728906 0.98178 3 1 1 
5921 5 0.621672 0.0457879 0.0137777 -2 -1 4 
5433 6 0.716418 0.0247583 0.0375375 -3 0 -2 
8448 5 0.322457 0.0917443 0.0179354 3 2 2 
7030 6 0.502083 0.0748748 0.981167 -2 6 0 
5998 6 0.319002 0.0968153 0.983603 1 4 1 
8284 6 0.581305 0.0758013 0.0359728 -1 5 3 
8010 6 0.73435 0.0830879 0.997066 -6 3 -2 
6185 6 0.94169 0.103826 0.999542 3 -1 2 
8984 5 0.354049 0.142808 0.981178 0 4 1 
8725 6 0.432092 0.136071 0.0165834 -1 1 -2 
7191 5 0.677921 0.124552 0.957491 1 0 0 
7787 5 0.786427 0.14621 0.975256 -2 -1 1 
6420 6 0.244959 0.188871 0.0327259 2 0 2 
8012 6 0.729067 0.208354 0.979213 -6 -2 -1 
8645 5 0.831129 0.178287 0.0463876 0 -4 -2 
8471 6 0.0768686 0.188992 0.0593513 3 4 3 
6017 5 0.446185 0.18875 0.999803 3 -4 0 
5006 6 0.231644 0.266224 0.0245847 1 0 -1 
7707 6 0.0874818 0.283873 0.0327225 -3 2 -2 
6767 5 0.556085 0.259082 0.0227413 5 0 0 
5182 6 0.710214 0.255745 0.0261275 -1 4 1 
5053 6 0.87335 0.280342 0.979039 -1 -3 0 
7085 6 0.953515 0.296731 0.980805 1 2 -1 
7929 5 0.16962 0.337564 0.004952 -3 5 -5 
8712 6 0.963269 0.304062 0.0101579 -3 3 3 
6771 5 0.746391 0.321789 0.0233969 -3 0 1 
7418 6 0.755695 0.305689 0.0208108 -2 -4 -2 
5371 6 0.179674 0.344274 0.0157414 -1 1 3 
5366 6 0.236564 0.322606 0.0487274 -2 6 0 
7086 5 0.495345 0.338169 0.996739 0 -4 -1 
5124 6 0.023201 0.346835 0.0248772 0 1 4 
8988 6 0.0771239 0.394312 0.0515316 -3 -3 1 
6625 5 0.410338 0.40047 0.98586 2 5 2 
6493 6 0.0655275 0.355482 0.0373962 -5 0 3 
6879 5 0.8148 0.418456 0.0214134 0 -3 7 
6278 5 0.95849 0.386679 0.0156574 -3 -3 1 
7065 6 0.305133 0.436059 0.0295624 3 -8 -4 
7056 5 0.373347 0.398697 0.0272432 4 -6 3 
6008 6 0.00788255 0.455239 0.966477 4 -1 1 
6385 5 0.620176 0.460449 0.00439599 0 -1 2 
7592 6 0.136129 0.482433 0.0227187 0 3 -1 
7256 6 0.270844 0.438908 0.0449635 1 -1 8 
8901 5 0.540005 0.484542 0.00658351 0 -2 0 
5186 5 0.59568 0.486929 0.0247936 1 -1 2 
7798 6 0.816755 0.460554 0.0236717 1 -1 -4 
5613 5 0.895337 0.44331 0.0485619 -4 2 -1 
5238 6 0.369431 0.521975 0.0033923 -1 -1 6 
5114 6 0.91722 0.481379 0.0531971 -6 0 1 
7010 6 0.163984 0.503426 0.0304688 0 -2 -3 
6578 6 0.503751 0.525346 0.973267 -2 0 -1 
7088 6 0.878294 0.575435 0.0101825 2 -2 2 
6307 5 0.911211 0.580237 0.980358 4 0 0 
7139 5 0.988395 0.580965 0.0079618 1 -3 -1 
7770 6 0.0533084 0.622026 0.00112968 2 2 -2 
6167 5 0.14137 0.609363 0.00824158 5 1 -4 
7471 6 0.327212 0.641445 0.986674 0 2 1 
7550 5 0.892848 0.61122 0.0226718 -4 0 -6 
5559 6 0.0950029 0.67577 0.0121305 2 3 3 
5592 6 0.69708 0.659763 0.0337171 -1 -2 0 
8543 5 0.114424 0.697092 0.0186921 1 -1 2 
7960 5 0.181719 0.720923 0.00334395 1 4 0 
5092 6 0.586769 0.722407 0.0380787 -2 -1 2 
6072 6 0.715479 0.717995 0.0132076 -1 3 0 
8344 6 0.875317 0.745275 0.0225822 -4 4 3 
8230 6 0.52127 0.764447 0.998361 1 -1 -1 
5548 6 0.115571 0.764129 0.982544 -2 -3 1 
6926 6 0.642405 0.810034 0.00150572 7 0 5 
5060 6 0.753418 0.802323 0.0113237 2 -1 0 
5009 6 0.0511991 0.819813 0.0275068 -5 4 0 
6776 5 0.510108 0.805492 0.00343845 -4 -3 1 
6290 6 0.774736 0.858489 0.0291647 -3 -2 0 
6547 5 0.986973 0.840602 0.00248599 -1 -5 3 
5584 5 0.566531 0.927736 0.990307 -2 2 0 
5920 6 0.428449 0.91278 0.973786 1 2 -1 
8361 6 0.694833 0.935471 0.985923 0 0 1 
8654 5 0.6088 0.942145 0.0233781 -1 2 3 
8542 5 0.482739 0.971989 0.0213953 0 3 0 
6537 5 0.941205 0.972757 0.0087176 -6 1 1 
7925 5 0.885926 0.0298417 0.012202 -2 2 4 
8036 5 0.227971 0.0564198 0.028789 -2 -1 -1 
8300 5 0.779244 0.0696316 0.000568103 0 7 1 
7565 5 0.973992 0.0640024 0.992732 0 1 -5 
5253 6 0.947448 0.0569206 0.0491088 0 4 4 
8573 6 0.0704769 0.112214 0.0502053 0 0 -1 
6033 6 0.221691 0.125613 0.00754939 2 1 6 
6789 5 0.206325 0.0793392 0.0496384 2 -2 1 
8133 5 0.975239 0.143547 0.0767997 -5 5 -2 
7381 6 0.978433 0.171579 0.0126502 0 2 -5 
6903 6 0.875275 0.103924 0.00810411 -7 -5 1 
8828 6 0.993912 0.215463 0.0639315 5 2 -3 
5276 6 0.390572 0.234743 0.0533492 -1 -2 -3 
8728 6 0.601429 0.265051 0.0532417 -2 0 -3 
6855 6 0.665801 0.195056 0.0363465 -1 1 1 
8496 6 0.811983 0.201299 0.094949 2 0 4 
5446 5 0.290752 0.243007 0.0757662 0 -5 2 
8355 6 0.873942 0.206785 0.0105831 0 4 -6 
8083 6 0.209416 0.262331 0.0635429 2 5 -3 
5618 6 0.295718 0.286214 0.019502 6 0 -2 
7072 6 0.759492 0.258359 0.98811 2 3 -3 
8409 5 0.48475 0.273989 0.017437 0 0 -2 
8957 5 0.60359 0.319094 0.0195027 -2 -6 0 
8173 5 0.599363 0.337383 0.995922 0 8 -6 
8179 5 0.661617 0.318694 0.054458 -1 2 -2 
7750 6 0.901218 0.299326 0.0395591 -1 -1 4 
6601 6 0.323079 0.341486 0.0240707 5 5 -3 
5397 5 0.218453 0.335935 0.00995667 -1 -1 -1 
8564 6 0.515413 0.402178 0.00505089 5 0 1 
5468 6 0.7226 0.390612 -0.00300792 3 3 -2 
7655 5 0.0500028 0.359335 0.045752 2 -4 -3 
8236 5 0.453671 0.426699 0.0285037 1 2 1 
7141 6 0.861811 0.400102 0.0233458 4 -1 -1 
6559 6 0.252581 0.4447 0.0507424 -5 -1 -4 
5910 6 0.323251 0.409782 0.00227995 1 2 1 
8223 5 0.584699 0.414462 0.0544055 -1 -1 4 
8011 5 0.855077 0.448591 0.0534649 2 -1 0 
6819 5 0.585506 0.467029 0.0245886 -5 5 1 
7858 5 0.0915809 0.520972 0.011183 -2 -1 1 
7032 5 0.290826 0.518854 0.0735783 3 3 0 
7576 6 0.717418 0.520504 0.053178 -3 -3 -1 
8626 6 0.0548859 0.61236 0.0554231 -1 -1 0 
8861 6 0.937375 0.611432 0.0179532 -2 -1 3 
6339 5 0.0120745 0.648401 0.00199195 -7 -1 -2 
8417 6 0.404751 0.589466 0.0551457 -1 -3 -2 
5437 5 0.464804 0.614525 0.0250362 -5 -3 0 
6174 6 1.00055 0.652817 0.0362334 -4 2 -2 
5017 6 0.13997 0.68328 0.0497862 1 1 -1 
6641 6 0.428982 0.660286 0.0305653 0 4 2 
7590 6 0.556525 0.653275 0.037922 -3 0 3 
8823 5 0.719142 0.630215 0.995541 2 0 3 
7037 5 0.864528 0.67524 0.0344754 0 -1 1 
5284 5 0.385881 0.708374 0.0507603 -3 0 1 
5682 6 0.738858 0.720928 0.0403811 -1 -3 -1 
7608 5 0.452081 0.773405 0.0236905 5 3 -5 
7563 5 0.839545 0.75696 0.0397249 -2 0 -1 
5569 5 0.656622 0.803192 0.000327083 -5 4 -1 
6932 6 0.773775 0.79227 0.0364521 3 -5 3 
6906 6 0.0122921 0.787443 0.0158467 -5 -6 6 
5096 6 0.0962579 0.843178 0.0658845 4 1 1 
7132 6 0.692507 0.836446 0.0207182 -3 -6 6 
7458 6 0.696071 0.877781 0.016263 5 -5 2 
6522 6 0.199727 0.828979 0.0213172 -1 1 -6 
5137 6 0.468024 0.885783 0.063299 -1 5 -1 
8391 5 0.89987 0.872176 0.0595639 -1 -5 -2 
8389 5 0.958108 0.846168 0.991908 -3 0 -5 
6714 5 0.22193 0.924625 0.0357692 -3 -2 2 
6873 6 0.491816 0.879646 0.0450182 -3 2 1 
6587 6 0.244148 0.927574 0.0287412 0 -6 0 
8087 5 0.224076 0.96939 0.0635764 0 3 4 
8260 6 0.746313 0.94481 0.0629488 0 -4 -1 
7068 6 0.800226 0.947231 0.0589506 0 1 -2 
8640 5 0.955155 0.960464 0.0265548 -3 0 1 
7352 6 0.49708 0.985107 0.0163739 5 -5 -2 
5512 6 0.886588 0.00277668 0.0284798 3 6 -2 
8826 5 0.624259 0.00867612 0.045613 0 -4 -2 
5513 5 0.861647 0.0123832 0.041748 -2 3 2 
6731 5 0.456455 0.0834165 0.0230432 -2 5 6 
7421 6 0.104883 0.0766526 0.0155391 2 -3 -5 
8841 6 0.234928 0.0866216 0.0282733 2 2 -3 
7704 6 0.286903 0.0902798 0.0227821 -5 -2 6 
8999 5 0.404773 0.0852595 0.056299 0 6 2 
8930 5 0.557211 0.0808312 0.0740052 1 -1 5 
8690 6 0.366279 0.0914066 0.0602333 -1 -2 -1 
5995 6 0.829462 0.116781 0.0790316 -1 5 2 
7583 5 0.379672 0.104263 0.0724022 7 5 3 
6325 5 0.546953 0.148912 0.0548942 -1 -1 -3 
5792 6 0.606644 0.126001 0.077392 -1 1 0 
7566 5 0.58873 0.180325 0.0399431 -5 -3 2 
7709 5 0.969914 0.131991 0.0779405 -2 -4 6 
7557 5 0.688472 0.226302 0.0479377 6 3 -1 
5189 6 0.796709 0.211637 0.0403564 -1 -3 2 
6678 6 0.17374 0.220434 0.0622423 3 -6 4 
6024 6 0.218443 0.240824 0.0555412 1 0 1 
7050 5 0.0642285 0.230255 0.038698 -2 -4 -4 
6193 6 0.0436694 0.256879 0.053705 -2 1 4 
6803 5 0.355341 0.333594 0.082359 0 -1 1 
7861 5 0.511456 0.334756 0.0193951 0 -1 2 
6766 6 0.223622 0.38123 0.0676277 6 3 4 
7292 6 0.262615 0.360967 0.0237576 -5 -1 -1 
7761 6 0.389271 0.366775 0.0691373 -3 9 0 
7378 6 0.716886 0.373351 0.0473553 -2 2 3 
7467 5 0.962439 0.370802 0.0470685 1 3 5 
5877 6 0.0761799 0.436422 0.0394785 -1 -1 2 
5919 5 0.421901 0.385268 0.0554193 -5 2 -3 
7201 5 0.608515 0.40619 0.0400689 2 3 1 
5154 6 0.672288 0.398391 0.0599558 -1 1 2 
5237 6 0.65948 0.445494 0.0921255 3 -1 -1 
7451 6 0.0344974 0.450069 0.0599768 -1 5 -5 
6822 6 0.0620829 0.42032 0.0521633 0 4 0 
5579 6 0.428705 0.399738 0.0154423 -4 4 -3 
6342 6 0.338001 0.455839 0.0336136 4 -2 4 
5401 6 0.0159837 0.445143 0.0505902 -3 -3 -1 
7291 6 0.815064 0.466381 0.0683162 0 1 0 
7643 6 0.196829 0.476224 0.0465293 0 -3 -1 
7394 6 0.05333 0.49497 0.0817661 0 -4 1 
8266 6 0.894847 0.483851 0.0598315 -2 -5 3 
8686 6 0.155075 0.559579 0.0690788 3 -1 3 
7344 6 0.347689 0.503158 0.0647739 -3 0 -3 
6973 6 0.455853 0.520772 0.105441 0 1 4 
8267 6 0.0157728 0.537985 0.0460273 3 2 2 
7672 5 0.0514135 0.580155 0.0670621 -4 -3 -1 
7431 5 0.470241 0.573744 0.0175913 -1 6 2 
7325 5 0.225893 0.599589 0.0261419 4 0 2 
8815 6 0.210163 0.664038 0.0822814 -3 3 -1 
7195 5 0.256046 0.602457 0.0531615 -6 1 3 
5329 6 0.654362 0.583424 0.0396558 0 -1 -2 
8944 5 0.48475 0.619093 0.0839579 3 6 -2 
6880 6 0.517798 0.634337 0.0684426 0 3 2 
6750 5 0.676625 0.658267 0.0474298 0 2 0 
8388 6 0.770207 0.662597 0.0819055 -1 -4 1 
8856 5 0.9354 0.630057 0.0483419 2 0 0 
6810 6 0.16049 0.638521 0.0277857 0 -2 3 
7211 5 0.188734 0.705514 0.0805351 1 1 -3 
8021 5 0.514062 0.708772 0.0799687 -1 2 -3 
5174 5 0.601411 0.711161 0.094713 2 1 -3 
6823 5 0.712358 0.711545 0.0665387 -2 2 2 
5836 6 0.11326 0.727339 0.0914386 0 2 7 
8945 6 0.251461 0.732178 0.0775908 -1 -4 0 
5703 6 0.471175 0.696264 0.0523 1 -3 3 
5013 5 0.137363 0.766695 0.0217723 -7 -3 2 
6090 6 0.27116 0.79181 0.0818696 0 -2 1 
7455 6 0.330509 0.767087 0.0684289 2 0 -1 
6674 6 0.431144 0.73057 0.0788936 -1 -3 0 
8271 5 0.736688 0.788947 0.0316944 2 -1 2 
6761 6 0.962123 0.755697 0.0729482 -1 -1 5 
8390 5 0.231997 0.835398 0.0634316 -5 -2 -5 
6800 5 0.846757 0.814959 0.0646664 -3 -2 0 
7841 6 0.134692 0.822781 0.101296 0 4 -1 
5651 5 0.201178 0.831959 0.0481514 -6 6 2 
5930 6 0.549411 0.821797 0.0711931 5 1 2 
7247 6 0.29872 0.880669 0.0305004 3 1 0 
6580 6 0.450308 0.843085 0.0435599 -4 1 -5 
6541 6 0.666103 0.870481 0.059911 -3 0 2 
5068 5 0.380744 0.866468 0.0785495 1 -2 -6 
7876 6 0.980316 0.850985 0.0427248 2 -2 2 
5598 5 0.345768 0.916664 0.0125571 5 5 -2 
5011 6 0.381817 0.973198 0.0418538 -6 1 -1 
5844 6 0.509904 0.968129 0.0586644 -2 -2 2 
7591 5 0.311244 0.957349 0.0568881 -2 -8 1 
8432 5 0.637529 0.973106 0.0486821 0 0 -1 
8504 6 0.588646 0.00376194 0.0563376 -2 0 -1 
6590 6 0.402538 0.015984 0.0864805 1 -1 -1 
6486 6 0.973465 0.0017996 0.0867032 -1 3 3 
8745 6 0.0543571 0.0154247 0.0660448 4 3 3 
8422 6 0.162444 0.00546447 0.0894967 2 4 6 
8154 5 0.209457 0.0641547 0.08195 2 4 -4 
7965 5 0.695691 0.020929 0.0701698 0 1 0 
5829 5 0.842768 0.066628 0.0911861 1 0 -5 
6501 6 0.785995 0.0509898 0.0276415 2 -7 -5 
5915 6 0.513133 0.0973506 0.0586519 -2 -2 2 
5484 5 0.979441 0.0788055 0.0487031 2 5 6 
6249 6 0.338321 0.118422 0.0357041 1 2 3 
7217 5 0.119377 0.140256 0.0789702 2 -3 -2 
6200 6 0.814502 0.111408 0.0362574 -2 7 -3 
7888 5 0.493517 0.132382 0.0717155 -1 0 1 
5753 6 0.253504 0.162634 0.0713764 0 7 2 
5187 6 0.428218 0.179737 0.0899358 3 1 -4 
5027 6 0.744194 0.194626 0.0964353 4 -2 0 
7995 6 0.634083 0.216871 0.0640595 -1 6 1 
8369 6 0.710659 0.213424 0.0831386 0 8 0 
5581 5 0.726825 0.214291 0.0881722 8 -2 0 
8702 6 0.148428 0.245105 0.0675127 2 0 -3 
6119 6 0.777125 0.246526 0.0988716 -1 2 0 
5823 5 0.186151 0.284844 0.0710086 0 0 1 
7815 6 0.570692 0.279494 0.0761809 -2 0 2 
8116 6 0.957444 0.247217 0.0432966 1 -2 5 
5482 6 0.0774038 0.308632 0.10973 1 5 4 
7599 6 0.33843 0.26756 0.131186 -3 -2 1 
8051 5 0.573429 0.300719 0.0711828 1 -1 -2 
6892 6 0.975826 0.313147 0.0341893 -3 1 -2 
5473 6 0.200069 0.346002 0.0771273 3 1 5 
5781 5 0.425147 0.371714 0.0809975 -2 2 0 
8501 6 0.417368 0.349567 0.0591059 0 3 -6 
7844 6 0.891057 0.366546 0.0905241 -2 -7 1 
6592 6 0.583337 0.424229 0.0592251 0 -5 1 
8196 6 0.179795 0.401927 0.0749426 3 0 2 
8313 5 0.557426 0.457583 0.0880166 2 2 -2 
8937 5 0.159289 0.463299 0.0659784 0 0 -5 
6347 5 0.313249 0.441367 0.0476831 -1 -2 1 
8040 6 0.329682 0.409942 0.0699777 3 -4 2 
8949 6 0.631341 0.436397 0.0663259 -2 0 -3 
5341 5 0.0875122 0.437192 0.0706634 0 -3 1 
8274 6 0.387303 0.488289 0.0511361 -3 -2 -4 
8924 6 0.505412 0.48751 0.0712735 2 3 -2 
5215 5 0.120896 0.529858 0.0705813 3 -4 -3 
6364 5 0.403381 0.538967 0.0752812 0 -6 2 
7466 5 0.192831 0.563244 0.0274312 -7 2 2 
7162 5 0.544333 0.512716 0.0713637 -3 2 -1 
7039 5 0.642285 0.616138 0.125866 0 2 7 
6458 5 0.728583 0.589226 0.104348 -5 3 1 
7174 6 0.459015 0.613122 0.081014 3 6 -5 
7679 6 0.687212 0.651045 0.0699967 3 0 7 
5245 6 0.803437 0.637779 0.029115 -3 2 -3 
6234 5 0.372533 0.650553 0.0897474 -2 -6 4 
5854 6 0.857361 0.642863 0.079439 1 -2 -3 
7594 6 0.966391 0.633553 0.0845539 -4 -4 3 
6680 6 0.267234 0.732525 0.0986478 0 5 -1 
7586 5 0.008254 0.663263 0.0910757 -2 1 1 
7973 5 0.663431 0.680934 0.0795648 1 -2 0 
6036 5 0.786366 0.698005 0.0384965 5 -3 2 
8939 6 0.999432 0.703592 0.0442125 -2 -1 -3 
7681 5 0.0411145 0.738014 0.0506302 -1 0 -1 
6569 5 0.628467 0.737247 0.0690152 3 -2 6 
5564 6 0.93562 0.799923 0.0966844 0 5 5 
5445 6 0.419662 0.767841 0.0836799 -1 1 1 
5086 5 0.898364 0.817626 0.0940496 4 -3 0 
5326 5 0.846451 0.762914 0.0816196 3 -1 2 
5116 6 0.932324 0.788964 0.0341751 -6 1 1 
7668 6 0.538454 0.831145 0.0927058 -1 1 0 
7127 6 0.228037 0.833493 0.0440684 -3 4 2 
5050 6 0.451698 0.865633 0.0505549 1 -3 5 
8477 5 0.231361 0.87983 0.0718839 4 1 4 
7128 6 0.281297 0.931555 0.0749348 0 0 3 
5034 6 0.930091 0.946318 0.0615329 -2 -4 -3 
5603 5 0.149467 0.973611 0.0856011 0 -1 1 
6597 6 0.14701 0.92694 0.0992021 -3 0 -2 
7053 5 0.43392 0.947138 0.0584588 -4 2 1 
7224 5 0.536317 0.980161 0.115388 3 4 4 
5715 6 0.810415 0.964877 0.0618791 3 2 -7 
7721 6 0.851816 0.929467 0.0768231 -2 6 0 
5065 5 0.571085 0.961074 0.042193 0 -1 0 
5725 5 0.907385 0.930771 0.0950994 -3 -1 0 
7045 5 0.92918 0.932301 0.065172 -1 2 8 
6856 6 0.946245 0.942268 0.10966 0 -1 -3 
7581 5 0.918079 0.963646 0.0826785 -4 3 -4 
7188 5 0.708741 0.967688 0.0435834 0 1 3 
6861 5 0.974582 0.00835768 0.079476 -3 -1 2 
5295 5 0.142893 0.0186977 0.11537 3 -5 -1 
5519 6 0.435451 0.0574416 0.0845826 1 3 0 
5907 6 0.628986 0.0480255 0.0977046 1 -2 -2 
6901 5 0.0843258 0.0726618 0.148321 2 1 0 
8621 5 0.14272 0.059249 0.128936 2 0 0 
5407 5 0.356477 0.0708032 0.138425 3 -1 2 
5647 6 0.62452 0.0790631 0.118043 3 -3 5 
8387 5 0.765092 0.0393976 0.0840482 7 -1 1 
5993 6 0.822466 0.105078 0.080886 -4 -1 2 
7901 5 0.4433 0.125634 0.0991828 2 2 -3 
7228 5 0.932553 0.138766 0.112899 -2 7 0 
6221 5 0.364097 0.156595 0.117518 0 -2 -4 
6726 6 0.526156 0.15906 0.100217 2 0 0 
5150 6 0.969765 0.173599 0.09233 -3 -3 4 
5904 6 0.0486375 0.191524 0.0567605 4 0 -1 
5290 6 0.203406 0.183128 0.113715 -1 2 1 
8608 5 0.278636 0.179556 0.112952 2 2 1 
8027 6 0.635128 0.222092 0.118475 0 -1 2 
6292 6 0.780045 0.207995 0.103458 1 1 -1 
5889 6 0.838898 0.174878 0.0536398 -4 -1 4 
7337 5 0.432355 0.236589 0.105938 0 -2 6 
7767 6 0.517721 0.221254 0.0960463 -3 3 -2 
7702 6 0.399762 0.196588 0.0886534 -2 4 -1 
6971 5 0.416558 0.285043 0.102079 -4 1 -1 
5058 6 0.710108 0.292601 0.113334 6 -1 5 
8483 5 0.986424 0.324886 0.0893933 4 1 2 
7326 6 0.145361 0.289412 0.130567 -1 -1 -4 
5953 5 0.771155 0.244574 0.104883 -3 -2 -4 
8245 5 0.622103 0.334434 0.087195 8 2 8 
8571 5 0.794256 0.340087 0.07881 0 -1 0 
5062 6 0.821278 0.353404 0.092912 3 1 5 
6667 5 0.654646 0.356804 0.10761 -4 -1 8 
8768 6 0.0932671 0.384187 0.0773901 3 -8 -1 
7986 5 0.151924 0.374342 0.0932629 1 4 1 
6312 5 0.28588 0.454378 0.0813874 -1 2 1 
7144 5 0.523952 0.456024 0.108194 4 -1 0 
8210 5 0.65471 0.42212 0.0856879 0 2 0 
7161 6 0.929419 0.450166 0.0944191 -2 1 2 
8670 6 0.127425 0.458364 0.0812195 1 -3 3 
6909 5 0.77791 0.490341 0.0856054 -4 1 0 
5543 6 0.384525 0.452118 0.123181 1 3 0 
6048 5 0.596409 0.516601 0.100225 -1 1 -3 
7884 5 0.469249 0.458254 0.102444 2 -1 1 
8772 5 0.720063 0.556613 0.0872365 3 -3 -2 
6752 6 0.845511 0.553136 0.115477 1 -2 -1 
5038 5 0.408506 0.61069 0.108447 0 -3 -1 
5415 5 0.653698 0.620099 0.137132 -2 -6 2 
7856 5 0.981406 0.603713 0.118713 -1 0 1 
8737 5 0.669233 0.616327 0.0889829 -3 -1 -2 
8810 6 0.712265 0.649086 0.0645256 -2 1 0 
8979 6 0.127706 0.719916 0.0987773 -4 -3 2 
5192 5 0.636324 0.728737 0.0837644 1 0 1 
7555 5 0.725201 0.717658 0.126817 -1 -2 3 
7407 5 0.411227 0.72579 0.0815544 -2 2 -2 
8158 6 0.457128 0.765273 0.0850221 -5 5 0 
7536 5 0.587101 0.745622 0.0977038 -2 -1 0 
7757 5 0.476433 0.790729 0.110887 -5 -5 3 
8492 5 0.572623 0.844619 0.123167 2 1 -5 
7299 6 0.8963 0.806063 0.0740713 4 -1 4 
8735 6 0.383831 0.832205 0.0983574 1 -6 4 
5694 6 0.379801 0.808782 0.0904627 4 0 3 
7302 5 0.757225 0.826293 0.0511988 -2 3 8 
6345 5 0.28708 0.9124 0.0723274 0 4 8 
6065 5 0.620157 0.835898 0.110051 -2 0 -1 
8029 5 0.946561 0.928135 0.10119 4 0 0 
7633 5 0.600643 0.921871 0.0776528 -3 -2 -3 
5588 5 0.757146 0.897697 0.0745664 2 -1 1 
6561 6 0.881846 0.953506 0.0796151 3 -3 0 
8105 5 0.656793 0.961053 0.0966753 0 4 -1 
5641 5 0.454275 0.963686 0.115402 -3 -3 -1 
6507 6 0.13776 0.95727 0.13311 1 3 1 
6199 5 0.866088 0.00133912 0.133834 -4 1 -2 
8066 6 0.594621 0.961729 0.118581 -3 -2 3 
7323 5 0.131373 0.122816 0.0926872 0 3 2 
5509 6 0.626211 0.0403113 0.0999072 1 0 4 
5847 6 0.0743163 0.033133 0.121724 4 2 4 
8765 5 0.24442 0.126726 0.172247 1 0 -5 
7933 6 0.331394 0.12641 0.0853175 0 1 3 
7347 5 0.757406 0.0581419 0.109101 -6 1 1 
8436 6 0.324081 0.152148 0.0904279 3 1 -2 
6287 5 0.890858 0.112939 0.100431 -2 6 -1 
8176 5 0.00970925 0.143583 0.130415 1 6 0 
5440 5 0.0280122 0.206855 0.125709 -1 -3 -1 
5785 5 0.411897 0.241086 0.130625 -6 1 -2 
7963 5 0.650558 0.221261 0.134575 0 -1 -2 
7017 6 0.839094 0.230653 0.111126 2 2 4 
8485 6 0.757116 0.243814 0.128372 1 -2 2 
6798 5 0.630459 0.281275 0.14255 7 -3 0 
5858 6 0.88742 0.267055 0.109869 2 0 4 
6606 6 0.989209 0.281896 0.126789 1 2 1 
7052 6 0.177167 0.289169 0.113201 1 -2 -3 
8934 6 0.532882 0.293138 0.134134 -2 0 5 
8867 5 0.00553977 0.346953 0.137472 1 -1 -3 
5493 5 0.290751 0.345255 0.128736 2 5 3 
5136 5 0.377781 0.350623 0.102984 1 2 -2 
5311 6 0.718348 0.296785 0.106143 2 -3 4 
8032 5 0.478677 0.35781 0.11545 1 4 0 
5460 6 0.177429 0.415302 0.121278 -2 0 4 
6313 5 0.787849 0.361599 0.122806 3 3 5 
8687 6 0.156919 0.39903 0.13645 5 -3 4 
6951 5 0.39967 0.366438 0.106573 0 0 0 
8321 6 0.616195 0.441051 0.13738 3 1 0 
7244 5 0.832737 0.424059 0.148359 -4 -2 -1 
6965 6 0.160919 0.452008 0.13197 -2 -1 1 
7054 6 0.214155 0.429573 0.172487 0 -1 3 
5532 6 0.841115 0.418402 0.135651 0 3 1 
5577 6 0.31486 0.512208 0.0909522 -1 2 -1 
5209 6 0.6569 0.447797 0.120094 0 3 3 
8443 5 0.684888 0.466237 0.0925952 2 -1 -7 
7976 5 0.789839 0.465808 0.108713 3 0 -5 
6360 6 0.240441 0.486961 0.115954 0 -1 -3 
5198 5 0.853022 0.43116 0.123876 -2 -2 3 
8548 5 0.0420347 0.507239 0.135229 1 2 -1 
7516 6 0.844337 0.540239 0.128293 1 -2 4 
6155 6 0.674191 0.53648 0.141101 -2 -2 3 
5418 5 0.755779 0.532608 0.12336 4 2 3 
6525 6 0.951391 0.5384 0.111678 -3 5 0 
5670 6 0.501516 0.583592 0.0759428 -2 0 0 
8677 5 0.730246 0.63175 0.0712134 2 2 -2 
6054 5 0.797867 0.660853 0.146659 -2 4 -3 
5377 5 0.194754 0.645022 0.146971 2 -2 3 
8249 5 0.94071 0.614208 0.0990312 -4 -1 -4 
5596 5 0.127511 0.651509 0.146044 2 -3 0 
5661 6 0.501052 0.636287 0.123306 -1 -8 2 
8693 6 0.0161021 0.745063 0.113898 -2 1 1 
6274 6 0.6252 0.738006 0.12574 -3 1 -2 
8140 5 0.220712 0.753376 0.106417 2 -1 4 
8312 6 0.531508 0.763152 0.147246 4 0 -2 
6310 5 0.587839 0.729235 0.114387 1 -1 -1 
6912 6 0.871873 0.767586 0.115542 1 -1 3 
6832 5 0.877539 0.770264 0.136797 1 2 0 
8467 6 0.359504 0.797419 0.101913 1 0 6 
5870 6 -0.00134568 0.807405 0.0998798 2 3 2 
7321 5 0.342738 0.875906 0.143908 0 5 3 
7726 5 0.223992 0.844393 0.105114 -1 -2 2 
5984 6 0.55451 0.832622 0.106324 -5 -3 2 
7510 5 0.635754 0.868175 0.126688 2 1 1 
6769 6 0.087603 0.893962 0.107671 3 1 3 
6181 6 0.346109 0.8868 0.108938 -5 1 1 
5837 5 0.462785 0.855616 0.100407 -4 -4 5 
6403 6 0.482075 0.905286 0.114823 -1 -2 1 
5711 5 0.740645 0.877249 0.15518 -1 -2 4 
6047 6 0.0661846 0.916125 0.120163 -6 0 2 
6553 6 0.282451 0.946746 0.146092 -1 -4 3 
7755 6 0.00918188 0.872385 0.122088 -1 2 -3 
5127 6 0.131383 0.930226 0.130034 4 -2 2 
8749 5 0.784442 0.929646 0.169341 -5 0 5 
5663 6 0.409256 0.92021 0.0929895 4 -1 0 
7334 6 0.670417 0.936611 0.110169 -1 -4 -1 
6782 6 0.231999 0.965735 0.118261 0 4 2 
8380 6 0.778319 0.95083 0.164522 -5 4 2 
8204 5 0.878254 0.986828 0.12749 0 1 2 
6358 6 0.687911 0.984958 0.160041 -2 -2 2 
8025 6 0.700997 0.0040311 0.150469 -5 0 -2 
7060 6 0.936369 0.994807 0.152873 -6 -2 0 
5508 6 0.179163 0.0340144 0.144329 -2 -1 0 
5607 5 0.0315189 0.00915002 0.181822 5 -3 -2 
5094 6 0.0625862 0.0453565 0.135075 2 -5 2 
8989 5 0.714998 0.0246049 0.135256 2 0 -1 
8563 5 0.98111 0.0372606 0.132416 -1 -1 2 
7724 5 0.326559 0.0421678 0.163131 4 0 2 
6429 6 0.900366 0.0357558 0.158017 -1 -2 -3 
5575 5 0.941373 0.0534701 0.138756 -3 3 -2 
5827 6 0.130518 0.117299 0.174137 -1 -6 -1 
7243 6 0.450443 0.106191 0.12379 -1 1 2 
5888 6 0.587558 0.0585034 0.146489 3 -5 -1 
5988 5 0.956006 0.0930628 0.13481 3 2 1 
7398 5 0.0346186 0.0983258 0.142737 2 0 -2 
7710 5 0.214639 0.143973 0.144386 2 5 -2 
7642 6 0.360577 0.1714 0.120748 -2 2 2 
6285 6 0.775059 0.130183 0.1259 2 -1 0 
7354 5 0.822233 0.193277 0.178485 2 1 -5 
7153 6 0.890854 0.126163 0.129852 -1 1 4 
6218 5 0.259857 0.175969 0.142648 2 6 -3 
5367 6 0.57674 0.204685 0.112512 -3 0 -2 
7177 5 0.360719 0.209721 0.124381 3 -3 -2 
7183 6 0.859898 0.184567 0.145327 -1 0 0 
7525 5 0.920315 0.197618 0.144552 -3 -1 -4 
5252 6 0.0786643 0.237038 0.157283 4 5 -2 
5702 6 0.315924 0.291496 0.138241 3 -1 2 
8784 5 0.0188805 0.306425 0.199225 -2 3 2 
5349 6 0.085314 0.285648 0.141608 5 1 -3 
8581 5 0.444155 0.306272 0.141115 2 1 3 
6409 5 0.239095 0.323104 0.158938 2 -1 -3 
7438 5 0.347361 0.30913 0.157104 1 2 4 
5627 6 0.972984 0.33074 0.141515 -3 1 1 
6269 6 0.748622 0.373491 0.157003 4 -2 -2 
8889 6 0.288335 0.451323 0.148461 -1 0 -3 
6408 6 0.534584 0.405585 0.178775 5 0 1 
5768 6 0.944338 0.392323 0.15501 -2 -1 -4 
8307 6 0.578334 0.411024 0.161318 -2 -5 1 
5051 6 0.66839 0.411251 0.183271 -2 1 2 
8289 5 0.820118 0.431327 0.147706 -3 -5 1 
6953 6 0.522604 0.417067 0.141711 0 3 -5 
6891 5 0.354315 0.51327 0.138325 3 -2 -2 
5463 5 0.0251852 0.53379 0.165178 -1 1 1 
6686 6 0.824007 0.531189 0.13622 0 4 -2 
8528 5 0.306578 0.545972 0.0980668 1 2 -2 
7635 5 0.311828 0.537667 0.112994 -1 0 -7 
8494 6 0.162087 0.57134 0.11961 -1 -1 6 
8186 5 0.234801 0.564889 0.175958 -4 3 -2 
7526 5 0.0165197 0.614378 0.0982386 0 2 -2 
7389 6 0.289936 0.55276 0.161974 5 1 0 
5226 6 0.54372 0.565008 0.139938 -2 -1 3 
6389 5 0.800879 0.578344 0.143612 -2 4 1 
6346 5 0.125506 0.611084 0.194917 -4 -5 4 
7562 6 0.251775 0.602443 0.118073 4 -1 -3 
5223 6 0.0132834 0.630169 0.15611 0 -1 2 
6073 5 0.314896 0.636641 0.127536 2 -6 3 
6760 6 0.517432 0.629895 0.117022 1 -3 -4 
7981 5 0.684325 0.627698 0.153937 2 -2 1 
6941 5 0.218801 0.67849 0.179323 -1 0 -3 
7625 6 0.958059 0.718702 0.138778 -2 1 1 
5405 6 0.381696 0.716776 0.134906 3 0 -1 
7627 6 0.489922 0.722966 0.170691 -3 0 0 
7522 5 0.58471 0.729901 0.145437 3 -6 6 
8261 5 0.669754 0.693991 0.109736 4 -5 0 
8131 6 0.763486 0.74551 0.121013 4 1 -2 
8837 6 0.864277 0.685363 0.169053 5 2 2 
6780 5 0.0527968 0.825569 0.133344 1 0 5 
8371 6 0.346681 0.789253 0.141101 -1 -2 0 
5375 6 0.701344 0.784508 0.104222 -5 -2 1 
8305 6 0.0168839 0.825305 0.148671 1 0 -1 
8354 5 0.101399 0.783038 0.143555 4 -2 -2 
7411 5 0.268808 0.781686 0.160773 -1 2 4 
8757 5 0.242457 0.832801 0.116786 5 0 -10 
5623 6 0.349624 0.866377 0.163574 2 0 1 
6455 6 0.803232 0.869881 0.156963 -1 -4 4 
6030 6 0.806388 0.810886 0.150058 -3 5 3 
7341 5 0.34175 0.820877 0.139627 0 1 -1 
6813 6 0.866762 0.821718 0.148841 -2 2 -3 
7725 6 0.0916676 0.870603 0.144257 -1 3 -1 
5263 5 0.6324 0.858761 0.149913 -2 -4 0 
6956 6 0.896598 0.912973 0.138928 -4 -2 1 
8622 6 0.376596 0.9167 0.143492 2 -1 -2 
6137 5 0.556684 0.9455 0.133909 1 -5 -5 
8535 5 0.0408678 0.987932 0.148559 -1 0 -2 
8156 6 0.669243 0.985621 0.138399 3 5 4 
5891 5 0.867315 0.970663 0.171997 0 0 1 
8596 5 0.698764 0.011705 0.173382 3 -1 -1 
7214 5 0.828171 0.04031 0.189188 3 3 -1 
8194 5 0.82943 0.0592141 0.182638 0 1 2 
6142 5 0.00201307 0.0121815 0.199674 -2 3 3 
8262 6 0.506704 0.042699 0.180208 -4 -1 -3 
7138 6 0.730619 0.0475739 0.162586 6 -4 -5 
8331 6 0.14395 0.0490384 0.163039 0 2 3 
7459 5 0.706262 0.0493173 0.19946 3 1 2 
6003 5 0.115844 0.107872 0.149114 -2 2 4 
6488 5 0.463549 0.0886093 0.210723 1 -7 3 
5734 6 0.552688 0.0682366 0.173464 3 4 0 
5758 5 0.588687 0.0924649 0.150406 -1 -2 1 
5931 5 0.660768 0.136842 0.206526 0 -1 3 
5279 6 0.327051 0.0997359 0.194173 -1 5 3 
8791 6 0.00962998 0.175285 0.149927 1 -3 4 
7479 6 0.244158 0.1041 0.2011 -1 4 0 
7795 5 0.780429 0.132821 0.208283 1 1 -2 
8073 6 0.990188 0.162594 0.163267 -2 -1 -2 
8807 6 0.834487 0.166244 0.162554 1 1 -7 
5103 6 0.51151 0.207727 0.148064 1 1 0 
5742 5 0.634192 0.194117 0.131367 2 -4 -5 
6779 6 0.655541 0.213273 0.11523 -2 4 5 
5924 6 0.71386 0.215409 0.174122 5 1 4 
6186 5 0.763894 0.21903 0.161037 -2 2 2 
6076 5 0.759895 0.254585 0.161196 2 4 1 
8795 6 0.332868 0.281559 0.18925 0 1 2 
7514 5 0.998515 0.256201 0.14342 -1 -4 -3 
5553 5 0.104403 0.267315 0.197725 -4 4 -3 
7541 5 0.0975229 0.286462 0.180172 -1 -4 2 
7136 6 0.594946 0.306685 0.169495 0 -1 -5 
6110 5 0.682179 0.25595 0.177566 2 0 1 
8399 5 0.795488 0.31883 0.177609 -4 -1 2 
6807 6 0.930691 0.24921 0.160647 2 1 1 
8043 6 0.0616704 0.258671 0.154066 2 -1 -1 
7978 5 0.853344 0.300883 0.168981 4 -1 -2 
6328 6 0.197974 0.289515 0.183186 1 3 1 
5444 6 0.190724 0.410024 0.13116 -2 2 0 
6607 5 0.745272 0.409196 0.232037 -6 4 4 
6781 6 0.326471 0.453331 0.174268 1 -1 4 
5843 6 0.521018 0.5069 0.178356 -3 4 7 
6151 5 0.741826 0.478148 0.209106 3 -5 4 
7023 5 0.0343561 0.493638 0.138316 -1 -1 1 
7604 6 0.21513 0.503474 0.149291 3 2 1 
6566 6 0.624058 0.589191 0.202473 -1 0 -2 
6204 6 0.160675 0.59142 0.127194 5 2 2 
6504 5 0.942453 0.555966 0.163323 1 -1 -6 
5982 5 0.980919 0.594741 0.186669 -2 4 -1 
6282 5 0.0462156 0.624711 0.158177 5 -4 1 
6205 6 0.446403 0.596029 0.164623 2 -1 0 
8804 5 0.458059 0.631939 0.154071 -3 -4 4 
7160 6 0.907312 0.649859 0.214906 -1 -2 2 
6654 6 0.944114 0.629995 0.163621 1 1 0 
6591 5 0.604284 0.667517 0.169451 1 2 2 
5806 6 0.841936 0.656127 0.111401 5 2 -5 
7977 5 0.07579 0.677492 0.191929 4 -1 -3 
8052 6 0.829127 0.684619 0.150617 2 1 -4 
7441 5 0.585665 0.760883 0.15498 -1 -5 -2 
5312 5 0.828481 0.704984 0.189969 3 6 3 
7868 5 0.655598 0.725229 0.155614 -1 -1 -3 
6322 5 0.705736 0.714139 0.201586 -1 6 -4 
7728 6 0.18906 0.762182 0.187064 1 1 -6 
7914 6 0.562961 0.797705 0.17909 -2 4 1 
5885 5 0.692761 0.799928 0.176039 1 0 0 
6175 5 0.870616 0.800655 0.206569 0 -1 -4 
5383 5 0.139032 0.7945 0.191648 2 -1 1 
8416 5 0.240815 0.805354 0.154313 4 -3 -3 
7853 6 0.841795 0.809071 0.14107 3 -1 0 
7676 6 0.495511 0.862337 0.145174 1 4 -7 
6524 5 0.606666 0.85161 0.1874 0 -1 0 
5948 5 0.671297 0.856565 0.154024 1 -1 0 
5959 5 0.391493 0.887481 0.171898 0 2 1 
5165 5 0.98358 0.940999 0.191053 6 5 3 
7851 6 0.290923 0.908428 0.144341 0 -6 -3 
7275 5 0.724834 0.910514 0.181016 -1 -1 -6 
8842 6 0.296316 0.933613 0.157779 -4 3 -3 
8806 5 0.953178 0.898847 0.191476 -3 -7 -1 
6719 6 0.0208005 0.97308 0.163041 4 2 0 
5095 6 0.433565 0.0146953 0.154122 6 3 -1 
5604 6 0.650385 0.961839 0.155848 0 -1 -3 
5503 5 0.988596 0.0073433 0.150808 -1 -4 -1 
8468 6 0.612098 0.00680787 0.183408 -2 7 1 
7833 6 0.806539 0.0321505 0.144447 1 2 0 
7867 5 0.420289 0.0401162 0.182169 -1 2 -1 
8000 6 0.520767 0.0422566 0.22763 2 1 -1 
5691 6 0.208444 0.0580491 0.21757 -2 2 2 
7437 5 0.780506 0.06195 0.220345 0 0 2 
5997 6 0.868345 0.076504 0.227334 1 0 1 
8557 5 0.362173 0.142313 0.1947 6 -3 0 
7528 6 0.633246 0.186324 0.210449 0 3 -4 
6620 5 0.850198 0.157375 0.209644 2 4 -1 
6039 6 0.0281518 0.160733 0.202884 0 5 -7 
7101 6 0.224746 0.149224 0.165799 0 3 5 
6835 5 0.26964 0.186861 0.205876 -2 4 -3 
8056 6 0.567624 0.182073 0.192724 3 4 -1 
5373 5 0.686138 0.165989 0.209742 1 -1 7 
6419 6 0.969163 0.161877 0.230484 6 5 2 
6902 6 0.793073 0.185196 0.191321 0 -3 -4 
5970 6 0.900152 0.215882 0.190567 4 2 3 
5304 6 0.904318 0.215908 0.228724 0 1 -3 
7296 5 0.906846 0.210191 0.189093 -3 3 3 
8081 6 0.264024 0.236001 0.214898 2 4 -1 
5163 5 0.320751 0.292189 0.216096 -4 -3 3 
8386 6 0.728245 0.286868 0.201221 3 5 3 
5112 5 0.862135 0.20801 0.166108 -2 2 4 
7237 6 0.887453 0.267491 0.192622 -1 3 3 
7255 5 0.488201 0.27025 0.178217 -6 5 -2 
5243 6 0.148103 0.302218 0.186789 -5 4 1 
5146 5 0.260019 0.30737 0.19935 -1 0 3 
7360 6 0.34295 0.292196 0.203437 -1 1 1 
6260 6 0.966842 0.291137 0.16787 5 4 1 
7209 5 0.14018 0.310436 0.18039 0 -8 6 
5652 6 0.385319 0.328708 0.191916 -1 -1 0 
5777 6 0.750232 0.37171 0.179862 -2 6 4 
7212 6 0.0149321 0.370793 0.231122 1 4 3 
5147 6 0.176481 0.393687 0.212404 -2 3 3 
6013 6 0.00206183 0.357147 0.168279 -2 -1 -2 
6276 6 0.427344 0.419328 0.170448 1 -3 2 
6637 6 0.191273 0.406094 0.210985 1 3 -2 
6556 6 0.811167 0.392961 0.190077 -4 -4 3 
6197 6 0.526746 0.4592 0.15137 3 1 2 
5048 6 0.9136 0.435237 0.18903 1 -2 -2 
7122 5 0.147295 0.432267 0.219339 1 -3 4 
7104 6 0.25226 0.461155 0.157265 0 4 3 
6815 5 0.426401 0.523414 0.203118 -1 3 4 
6775 6 0.810175 0.468436 0.179753 -2 -3 -1 
6053 5 0.187591 0.524072 0.182191 2 2 -4 
8134 5 0.269888 0.505596 0.19906 2 -1 -1 
6764 5 0.41739 0.463185 0.175801 3 2 2 
5019 6 0.851118 0.511921 0.208017 1 2 0 
7338 6 0.582255 0.494669 0.178068 5 -2 2 
5233 5 0.797398 0.518841 0.217914 -1 -1 0 
7692 5 0.256056 0.542848 0.160397 1 -1 -2 
6747 5 0.787569 0.558646 0.183108 -2 2 1 