ITEM: TIMESTEP
20000000
ITEM: NUMBER OF ATOMS
9000
ITEM: BOX BOUNDS pp pp pp
-75 75
-75 75
-75 75
ITEM: ATOMS id type xs ys zs ix iy iz 
8068 6 0.155486 0.020448 0.0364887 0 2 0 
7802 6 0.997126 0.987611 0.972564 -3 1 0 
5445 5 0.651989 0.020736 0.987954 2 6 3 
7539 6 0.705998 0.0305637 0.00988306 -1 -2 2 
5438 6 0.717409 0.997021 0.999499 0 6 2 
5832 6 0.439395 0.0489858 -0.00188009 1 1 0 
7305 6 0.0652644 0.0663058 0.0163734 -3 0 -3 
7095 6 0.158355 0.0878112 0.00814231 0 -1 0 
8528 6 0.1936 0.0770973 0.0140785 -5 -4 0 
8840 6 0.31699 0.0924444 0.0577299 1 0 2 
5970 5 0.625265 0.111261 0.979918 0 0 3 
5237 5 0.60417 0.0993593 0.00442361 1 3 -1 
7401 6 0.0225458 0.080927 0.019998 4 1 0 
7357 5 0.578475 0.153 0.967398 4 2 1 
6732 5 0.737504 0.0730204 0.0122822 -1 4 3 
6647 6 0.995247 0.173767 0.0119301 -4 6 -3 
7690 5 0.989519 0.115344 0.028624 5 2 -3 
6051 5 0.235237 0.151879 0.00789798 -3 -1 1 
8978 5 0.419999 0.185681 -0.00115507 -2 1 -2 
8888 5 0.569052 0.146901 0.993033 -4 6 -2 
5588 6 0.671796 0.234072 0.0293884 2 0 -3 
8078 5 0.755531 0.212137 0.0444066 2 2 -1 
7529 6 0.78199 0.198217 0.014583 1 0 0 
7732 5 0.00821883 0.227875 0.961837 -1 -4 -4 
8752 5 0.981676 0.229988 0.00578012 -3 4 -5 
8215 6 0.371694 0.26566 0.00765413 -1 6 5 
7941 5 0.612541 0.257927 0.963487 -1 -2 1 
6755 6 0.287153 0.254934 0.983291 -1 2 1 
8597 5 0.317905 0.341512 0.98782 1 3 -3 
7963 6 0.935196 0.394121 0.0207835 -1 -3 -1 
6217 5 0.178069 0.380031 0.955945 0 -4 0 
6670 5 0.139151 0.429241 0.0113834 2 7 2 
6518 6 0.425589 0.376833 0.9814 -1 6 -7 
7320 5 0.634595 0.426018 0.979511 -6 1 0 
5195 5 0.87874 0.41902 -0.000258683 0 5 0 
5258 5 0.0407058 0.419954 0.0127962 2 5 3 
7734 5 0.181325 0.442023 0.0190993 0 1 3 
5193 5 0.366076 0.486676 0.984366 1 -2 -2 
7480 6 0.924742 0.504774 0.966334 2 2 2 
8045 5 0.208495 0.552146 0.976483 3 -3 0 
8894 6 0.777611 0.562528 0.00619721 0 1 -2 
8012 6 0.993305 0.540687 0.974314 4 1 -1 
7107 6 0.128055 0.564102 0.983576 2 -2 -6 
5901 5 0.858754 0.596432 0.0283624 -4 4 2 
5843 6 0.408881 0.588332 0.993093 3 -1 0 
8911 5 0.685965 0.610279 0.988736 -1 2 -4 
8447 5 0.723463 0.614183 0.0455541 -2 1 0 
5168 5 0.156024 0.581686 0.00307814 1 -4 1 
6731 5 0.580438 0.594677 0.0198826 8 1 2 
8667 5 0.986264 0.570198 0.0186082 5 4 -4 
8502 6 0.313738 0.671744 0.0409595 0 -1 -5 
8633 5 0.00132952 0.623573 0.0126989 -3 2 0 
8005 5 0.17706 0.678549 0.0102294 3 3 5 
6897 5 0.263315 0.670109 0.00201584 -1 4 1 
7680 6 0.892169 0.645241 0.0124243 -1 -2 0 
8791 6 0.469146 0.699474 0.990627 -3 4 -1 
6337 5 0.942477 0.705543 0.0224865 -4 -3 1 
8545 5 0.0293278 0.708144 0.988225 3 0 -1 
8628 5 0.548376 0.705659 0.054826 -1 -2 0 
5708 6 0.696702 0.724641 0.0407806 -3 -2 1 
6042 5 0.725927 0.743521 0.0229032 -5 2 -2 
5893 6 0.22549 0.721392 0.984125 -1 3 0 
5931 5 0.905165 0.768133 0.00863272 -1 1 -1 
8308 6 0.397756 0.766993 0.00711172 1 -6 1 
8789 5 0.317749 0.781632 0.0284931 -3 -1 -2 
5874 5 0.38168 0.791586 0.0256249 3 -2 -2 
6928 6 0.29752 0.814007 0.0204097 -3 -1 4 
5106 6 0.0752039 0.87452 0.0394633 0 -2 2 
4005 1 0.644423 0.900618 0.0184921 0 0 0 
5299 6 0.713677 0.892272 -0.000896271 -1 0 -2 
8172 5 0.137419 0.931695 0.0400579 1 -5 -2 
5539 6 0.236702 0.953935 0.98163 -1 0 0 
4733 1 0.457639 0.932544 0.0136796 0 0 0 
4738 1 0.452448 0.937892 0.00293947 0 0 0 
4736 1 0.459359 0.935396 0.00250352 0 0 0 
4734 1 0.461925 0.933063 0.00896098 0 0 0 
4735 1 0.455564 0.932572 0.00712676 0 0 0 
4730 1 0.466975 0.934673 0.0214056 0 0 0 
4731 1 0.462234 0.93084 0.0197468 0 0 0 
4732 1 0.462892 0.93563 0.0153215 0 0 0 
4737 1 0.454318 0.932708 0.999887 0 0 -1 
4739 1 0.450758 0.938126 0.996416 0 0 -1 
8822 6 0.0621685 0.00328569 0.0471547 3 0 2 
6472 6 0.46226 0.0157502 0.0161283 -2 2 1 
8994 6 0.840952 0.963199 0.0119293 -5 1 4 
8720 5 0.616442 0.0225507 0.998072 2 4 -4 
8797 5 0.370697 0.0299712 0.0115897 -2 -1 2 
7477 5 0.901488 0.0250535 0.0410338 4 -2 -3 
6900 6 0.13287 0.0629587 0.0444596 -4 0 4 
5148 5 0.227697 0.0782442 0.0396461 -2 0 -1 
8099 5 0.643907 0.0662247 0.0155036 0 2 6 
6097 5 0.826145 0.0494129 0.0412365 5 5 1 
7957 5 0.205997 0.121688 0.0516127 -3 2 2 
6771 5 0.456486 0.138627 0.0170857 -1 2 5 
5034 6 0.894915 0.139189 0.0363792 -2 7 -2 
5244 5 0.95041 0.0779085 0.0284938 -1 3 5 
6066 6 0.299479 0.120217 0.0484553 -1 -2 -2 
8446 5 0.312057 0.107859 0.041634 0 -1 2 
7121 6 0.289462 0.208946 0.0280463 0 4 0 
5930 6 0.737202 0.204235 0.0465573 -3 3 3 
5883 6 0.808111 0.186505 0.0207668 -3 0 -3 
5751 5 0.271036 0.171826 0.013151 2 3 0 
7276 6 0.298654 0.180629 0.0769382 2 1 3 
6424 6 0.492802 0.214202 0.0268508 -4 1 4 
8345 6 0.52749 0.210444 0.00690835 2 3 4 
7494 6 0.981511 0.244589 0.0264792 1 -3 -1 
7012 5 0.682178 0.24146 0.00856796 4 -1 7 
7951 6 0.962239 0.220288 0.024898 0 4 4 
6203 6 0.417503 0.286917 0.00625261 3 2 -1 
5733 6 0.667628 0.336819 0.0255232 6 -7 -1 
7244 6 0.641435 0.332541 0.00827575 3 -6 2 
5681 5 0.933617 0.336692 0.0405965 4 -6 -2 
7464 6 0.17508 0.370166 0.0458282 0 -1 1 
8869 6 0.116945 0.409256 0.997219 2 0 -5 
6915 6 0.269852 0.368844 0.0076118 1 -1 -2 
5541 6 0.0267529 0.411152 0.022148 2 -2 6 
6094 5 0.672935 0.437811 0.0389015 2 0 -5 
7126 6 0.538226 0.427802 -0.00084287 7 0 1 
5165 5 0.729814 0.416448 0.0382282 3 -1 3 
8442 5 0.985376 0.493081 0.0396389 -2 7 2 
7077 6 0.2327 0.458301 0.0250249 -1 -6 2 
5050 5 0.475004 0.492386 0.0297927 -2 1 -1 
8916 5 0.453394 0.508461 0.0307628 -5 -1 1 
7922 6 0.507437 0.517533 0.0504332 -1 -2 1 
8298 6 0.0971103 0.528048 0.018315 3 -4 0 
6011 6 0.17679 0.507791 0.0419417 2 -3 2 
6533 6 0.706718 0.555086 0.0683583 0 0 8 
7697 6 0.509299 0.53924 0.0492247 6 -3 1 
5089 5 0.327783 0.576393 0.017065 4 0 -3 
8016 6 0.505529 0.571466 0.0581218 2 2 -5 
5185 5 0.488343 0.659841 -7.44546e-05 7 2 -7 
7589 6 0.367907 0.644243 -0.000768529 -1 3 1 
8145 6 0.995889 0.649368 0.0405897 1 2 2 
8290 6 0.855265 0.674593 0.0314115 1 1 -1 
8440 5 0.778246 0.752792 0.0178469 -3 -1 -4 
7441 6 0.930139 0.711268 0.0118078 -4 -1 3 
8225 6 0.318308 0.75108 0.00618223 -2 -3 -1 
7149 6 0.465073 0.737632 0.027132 5 -1 2 
6893 6 0.512497 0.703599 0.0370238 3 -4 -1 
5665 5 0.704269 0.772298 0.017975 1 -4 -5 
7005 6 0.0710155 0.801862 0.0560885 4 -2 -4 
6673 6 0.681246 0.808841 0.0163228 -1 -6 -2 
6985 5 0.925115 0.755553 0.0520237 4 0 -3 
8352 5 0.81376 0.780938 0.0615436 -2 -2 2 
6851 6 0.186305 0.825636 0.00714836 3 0 3 
6800 5 0.774793 0.800605 0.0122918 -1 0 4 
7865 6 0.327418 0.875272 0.0293284 7 1 3 
6936 6 0.919101 0.849444 0.0210463 -1 -3 -1 
7326 6 0.465791 0.884003 0.043662 5 0 -2 
6145 6 0.225272 0.861158 0.0576664 4 -4 0 
4432 1 0.487703 0.900652 0.0299498 0 0 0 
4430 1 0.481103 0.903615 0.0274983 0 0 0 
4431 1 0.485906 0.906393 0.0316256 0 0 0 
4433 1 0.49293 0.90472 0.0306024 0 0 0 
4429 1 0.479757 0.909695 0.0282667 0 0 0 
4434 1 0.490074 0.904126 0.0358255 0 0 0 
4435 1 0.491335 0.910194 0.0352019 0 0 0 
4436 1 0.490671 0.909958 0.0411267 0 0 0 
6048 5 0.654064 0.91611 0.0336864 1 1 0 
3997 1 0.651596 0.88905 0.0347469 0 0 0 
4000 1 0.654871 0.895396 0.0248648 0 0 0 
3999 1 0.651236 0.890047 0.027077 0 0 0 
3996 1 0.653187 0.894675 0.0385807 0 0 0 
3998 1 0.653222 0.894203 0.0314404 0 0 0 
4003 1 0.649303 0.894783 0.0188915 0 0 0 
4001 1 0.654729 0.890277 0.021032 0 0 0 
4006 1 0.648496 0.905937 0.0173142 0 0 0 
4004 1 0.650739 0.899943 0.0219025 0 0 0 
4009 1 0.644268 0.91207 0.026513 0 0 0 
4007 1 0.644462 0.907161 0.0217847 0 0 0 
4008 1 0.649476 0.910082 0.0236667 0 0 0 
3995 1 0.650267 0.889932 0.0418267 0 0 0 
4022 1 0.658588 0.916822 0.0395579 0 0 0 
4023 1 0.655387 0.915573 0.0450909 0 0 0 
4002 1 0.65543 0.895577 0.0177053 0 0 0 
4020 1 0.657282 0.922859 0.0353233 0 0 0 
5858 5 0.0448095 0.948011 0.0347856 0 -7 -1 
7780 5 0.171017 0.913319 0.0182885 2 -3 -4 
8354 5 0.19199 0.886291 0.0230628 5 2 1 
5083 5 0.281865 0.932569 0.0256529 -2 2 -6 
4729 1 0.468746 0.929107 0.023758 0 0 0 
4442 1 0.474483 0.920603 0.0418842 0 0 0 
4439 1 0.482489 0.912119 0.0411311 0 0 0 
4443 1 0.470252 0.918911 0.0370924 0 0 0 
4444 1 0.473475 0.92394 0.0359673 0 0 0 
4445 1 0.469652 0.925358 0.0410311 0 0 0 
4446 1 0.469301 0.929929 0.0363095 0 0 0 
4428 1 0.483819 0.909831 0.0232887 0 0 0 
4437 1 0.488804 0.915639 0.0392019 0 0 0 
4424 1 0.492858 0.918609 0.0283794 0 0 0 
4426 1 0.490208 0.914077 0.0228408 0 0 0 
4427 1 0.486702 0.913148 0.0280655 0 0 0 
7536 5 0.482315 0.913404 0.0341161 -2 3 2 
4422 1 0.496945 0.922731 0.0318756 0 0 0 
4425 1 0.487418 0.919237 0.0253315 0 0 0 
4423 1 0.49254 0.92462 0.027257 0 0 0 
4421 1 0.492813 0.927413 0.0345144 0 0 0 
4417 1 0.500219 0.927574 0.0453957 0 0 0 
4420 1 0.498588 0.927093 0.0377576 0 0 0 
4419 1 0.493716 0.927034 0.041828 0 0 0 
4440 1 0.481502 0.918361 0.0399764 0 0 0 
4010 1 0.647715 0.916935 0.0238802 0 0 0 
4011 1 0.646483 0.918146 0.0298061 0 0 0 
4012 1 0.651121 0.922233 0.0283978 0 0 0 
4014 1 0.649612 0.929411 0.024634 0 0 0 
4013 1 0.646064 0.925706 0.0285387 0 0 0 
4015 1 0.648895 0.932755 0.0300436 0 0 0 
4017 1 0.654253 0.934379 0.0347993 0 0 0 
4016 1 0.654817 0.930163 0.0301968 0 0 0 
4021 1 0.653766 0.920653 0.0398791 0 0 0 
4019 1 0.653122 0.927516 0.036552 0 0 0 
4018 1 0.658612 0.930173 0.0369645 0 0 0 
7649 5 0.894596 0.933354 0.0664878 2 0 1 
5017 6 0.1549 0.949586 0.0682226 -8 0 0 
4726 1 0.475468 0.937886 0.0245245 0 0 0 
4728 1 0.47181 0.933181 0.0280426 0 0 0 
4727 1 0.475193 0.931792 0.0225498 0 0 0 
4724 1 0.481587 0.940544 0.0260558 0 0 0 
4447 1 0.473026 0.932499 0.0403952 0 0 0 
4450 1 0.467886 0.942115 0.046458 0 0 0 
4448 1 0.467984 0.937026 0.0408656 0 0 0 
4449 1 0.472919 0.938552 0.0447626 0 0 0 
4723 1 0.479686 0.938313 0.0318135 0 0 0 
4725 1 0.480331 0.934051 0.0266814 0 0 0 
4722 1 0.476264 0.943886 0.0306967 0 0 0 
4721 1 0.481769 0.945352 0.0325 0 0 0 
4720 1 0.478201 0.947271 0.0371795 0 0 0 
4719 1 0.483766 0.945323 0.0405084 0 0 0 
4718 1 0.479126 0.946812 0.0446716 0 0 0 
7759 5 0.185626 0.0117272 0.00816395 -7 3 1 
7322 5 0.289244 0.977401 0.0626316 -3 2 4 
8964 5 0.891914 0.029157 0.0646102 -3 -1 0 
7067 5 0.066037 0.076953 0.0411913 -1 5 -2 
7051 6 0.65613 0.0443214 0.085344 -6 1 -1 
7463 5 0.60427 0.125742 0.0445344 4 -5 4 
7402 6 0.90701 0.142531 0.0797731 2 3 -3 
8833 5 0.117245 0.133486 0.0934255 -4 2 2 
7359 5 0.2262 0.162648 0.043955 -1 3 2 
8357 6 0.00772275 0.190921 0.0516311 1 2 3 
6841 6 0.251458 0.211972 0.0315348 6 5 0 
8653 6 0.671658 0.203761 0.0705689 -2 0 1 
5340 6 0.190343 0.179327 0.0392362 1 -5 2 
6602 6 0.276565 0.231122 0.0833321 -7 5 2 
5934 6 0.38674 0.228083 0.0690541 2 2 -4 
6032 6 0.463142 0.231516 0.0411055 2 -2 -2 
6035 6 0.549423 0.193618 0.0659964 2 7 4 
5619 6 0.678916 0.223745 0.0392609 2 2 2 
6146 6 0.153739 0.203821 0.0442788 -2 -2 2 
8619 5 0.551352 0.272452 0.0771449 2 -2 -1 
6464 6 0.552212 0.254624 0.0226301 -2 5 5 
7611 6 0.692182 0.249414 0.0713238 -1 -1 4 
8596 6 0.911739 0.268318 0.0537028 -2 2 2 
6080 5 0.39952 0.283235 0.0649588 1 1 -1 
6397 6 0.371311 0.315111 0.027426 -1 -1 2 
7235 6 0.2415 0.314844 0.0883755 1 7 4 
8952 5 0.294882 0.295456 0.0398049 3 4 5 
5247 5 0.784665 0.324053 0.0972206 0 2 3 
8350 6 0.664047 0.308079 0.0458827 -3 1 -1 
8343 6 0.995076 0.350824 0.0601245 1 -3 2 
7250 6 0.326033 0.347356 0.0730605 1 3 -6 
8062 6 0.0247366 0.403967 0.102059 -3 -1 -1 
6403 6 0.927113 0.377925 0.0527284 7 -1 2 
8039 6 0.0551804 0.428247 0.0202576 0 0 -1 
7381 6 0.616881 0.444548 0.0600976 1 -4 -1 
5052 6 0.763934 0.455591 0.0573813 -3 4 6 
6730 6 0.957505 0.43318 0.0693596 3 -1 3 
5546 6 0.720713 0.449824 0.0630856 0 -1 -1 
5846 6 0.957136 0.469929 0.0536175 -1 -3 3 
6867 5 0.687992 0.424758 0.010523 -4 -3 3 
8903 6 0.369106 0.513076 0.0894488 -7 -1 2 
7509 6 0.733987 0.501423 0.0397325 -2 2 -2 
5479 5 0.655505 0.549949 0.0568431 3 4 1 
8879 6 0.204079 0.570202 0.0702135 2 -5 0 
7293 6 0.455504 0.586104 0.0485986 -7 -4 2 
6274 5 0.956502 0.528094 0.0370238 -2 6 1 
5070 6 0.0037049 0.582003 0.0542425 2 -2 -1 
7887 6 0.178659 0.58279 0.0701906 2 -3 3 
5140 5 0.330738 0.556786 0.0698053 1 0 3 
6344 5 0.929109 0.580124 0.0660428 3 3 1 
6637 5 0.985198 0.601257 0.0837483 1 -5 2 
5375 6 0.230018 0.583317 0.0174901 2 -3 -1 
7597 5 0.64363 0.630077 0.0625704 1 0 3 
6644 5 0.803192 0.590839 0.0211802 0 2 3 
5013 6 0.0422765 0.652773 0.050556 -2 4 -4 
7490 6 0.282174 0.666024 0.0596993 -1 -2 0 
8102 6 0.213614 0.686101 0.0554471 -2 -4 0 
8883 6 0.562007 0.695337 0.0369491 -1 0 1 
6998 6 0.660164 0.708379 0.0508046 -2 -5 3 
8202 6 0.519925 0.728562 0.0622888 -2 -2 0 
6837 5 0.850398 0.702968 0.0590157 -1 1 -1 
8550 6 0.159636 0.75354 0.0715213 5 1 3 
8814 5 0.67873 0.769356 0.0412943 2 -4 -5 
8219 5 0.0760999 0.809501 0.0616349 -3 -1 5 
7298 6 0.575232 0.813492 0.0857225 -1 3 1 
6247 6 0.591122 0.79267 0.0600788 -1 1 2 
7627 6 0.156566 0.877691 0.0387279 -3 2 -5 
6325 5 0.307896 0.81786 0.0625796 1 2 2 
8508 6 0.616725 0.85961 0.0246205 2 4 1 
5191 6 0.13805 0.856187 0.0487597 3 -1 -1 
3991 1 0.657921 0.894322 0.0501663 0 0 0 
3990 1 0.656848 0.890429 0.0452513 0 0 0 
3988 1 0.657078 0.883783 0.0493809 0 0 0 
3985 1 0.665369 0.880077 0.0572146 0 0 0 
3987 1 0.662642 0.881045 0.0502576 0 0 0 
3986 1 0.659629 0.881696 0.0558185 0 0 0 
6947 6 0.157779 0.891144 0.0696605 1 -5 4 
7585 5 0.334358 0.911239 0.0228931 2 -2 -1 
7049 5 0.660924 0.899467 0.0561167 5 -4 -2 
3993 1 0.650602 0.893138 0.048503 0 0 0 
3992 1 0.654569 0.897521 0.045708 0 0 0 
3994 1 0.647562 0.895457 0.0437044 0 0 0 
4024 1 0.652289 0.912509 0.0400747 0 0 0 
4026 1 0.651385 0.905735 0.0440186 0 0 0 
4025 1 0.648994 0.911485 0.0454284 0 0 0 
4028 1 0.647613 0.907303 0.0507571 0 0 0 
4029 1 0.651352 0.907188 0.0563863 0 0 0 
4031 1 0.65152 0.900024 0.0552966 0 0 0 
4032 1 0.653116 0.90165 0.0610355 0 0 0 
4030 1 0.646729 0.903277 0.0573476 0 0 0 
4033 1 0.656117 0.896065 0.0595424 0 0 0 
3989 1 0.661824 0.888153 0.0481672 0 0 0 
5776 5 0.665664 0.896351 0.0512791 1 -3 -3 
3977 1 0.669894 0.899721 0.0644238 0 0 0 
3975 1 0.662298 0.901561 0.0634615 0 0 0 
3976 1 0.665023 0.895785 0.0630407 0 0 0 
3978 1 0.668764 0.899136 0.0579663 0 0 0 
3979 1 0.675168 0.897328 0.0602713 0 0 0 
3980 1 0.67367 0.895503 0.0541458 0 0 0 
8408 6 0.844773 0.920753 0.0515937 -1 0 -1 
8669 6 0.43571 0.940221 0.0868073 4 1 0 
4441 1 0.476484 0.915404 0.0381593 0 0 0 
4709 1 0.476089 0.929251 0.0695318 0 0 0 
4438 1 0.486394 0.915126 0.04516 0 0 0 
4418 1 0.497814 0.932346 0.0424076 0 0 0 
4416 1 0.505267 0.931085 0.042574 0 0 0 
4414 1 0.506607 0.932769 0.049409 0 0 0 
4413 1 0.507996 0.929305 0.054586 0 0 0 
4415 1 0.507169 0.926724 0.0473214 0 0 0 
4412 1 0.501716 0.931239 0.0547503 0 0 0 
4410 1 0.502987 0.924982 0.0583797 0 0 0 
4409 1 0.508595 0.923849 0.0607226 0 0 0 
4411 1 0.504491 0.930678 0.0611345 0 0 0 
4408 1 0.503997 0.9207 0.0641736 0 0 0 
4405 1 0.510657 0.919833 0.0741935 0 0 0 
4407 1 0.507973 0.923009 0.06814 0 0 0 
4406 1 0.5082 0.916765 0.068885 0 0 0 
8539 6 0.586296 0.907703 0.0739243 -1 0 2 
4027 1 0.653889 0.907647 0.0492969 0 0 0 
8273 5 0.66246 0.90844 0.105222 1 0 -2 
3964 1 0.651814 0.926277 0.0758129 0 0 0 
3965 1 0.657134 0.925447 0.079275 0 0 0 
3966 1 0.65538 0.919652 0.0766702 0 0 0 
3967 1 0.660363 0.922405 0.0732759 0 0 0 
6954 5 0.458874 0.935578 0.0459941 -8 -4 3 
4454 1 0.46019 0.942982 0.0558898 0 0 0 
4452 1 0.466615 0.940364 0.0540217 0 0 0 
8677 5 0.473987 0.939644 0.0366231 0 5 0 
4455 1 0.458636 0.947646 0.0512151 0 0 0 
4453 1 0.461175 0.940924 0.0499692 0 0 0 
4451 1 0.466554 0.936263 0.0486918 0 0 0 
4456 1 0.454806 0.947338 0.0562234 0 0 0 
5241 5 0.47442 0.936218 0.0527986 -1 2 -2 
4715 1 0.484411 0.94112 0.0541464 0 0 0 
4713 1 0.481647 0.936056 0.0586907 0 0 0 
4717 1 0.484744 0.945053 0.0477729 0 0 0 
4716 1 0.480689 0.940428 0.0488639 0 0 0 
4714 1 0.478386 0.941413 0.0559747 0 0 0 
4712 1 0.475153 0.936457 0.0601885 0 0 0 
4711 1 0.477952 0.931548 0.0637493 0 0 0 
4710 1 0.472244 0.933432 0.0657632 0 0 0 
5307 5 0.403841 0.958586 0.0434858 -2 6 3 
4464 1 0.454671 0.969137 0.059819 0 0 0 
4463 1 0.460675 0.970908 0.0615728 0 0 0 
4461 1 0.459735 0.964765 0.0582793 0 0 0 
4465 1 0.455351 0.975587 0.0589964 0 0 0 
4462 1 0.459866 0.965196 0.0644891 0 0 0 
4460 1 0.460269 0.958976 0.0604294 0 0 0 
4458 1 0.459681 0.952639 0.0563346 0 0 0 
4459 1 0.458417 0.958608 0.0546311 0 0 0 
4457 1 0.453854 0.952675 0.053705 0 0 0 
4466 1 0.455904 0.974893 0.0651927 0 0 0 
4468 1 0.457343 0.980455 0.0698886 0 0 0 
6748 6 0.681014 0.951136 0.0858358 0 1 7 
8150 5 0.825014 0.977603 0.081242 -1 -2 7 
6280 6 0.587331 0.963684 0.0542168 2 2 -1 
6156 5 0.667591 0.00606974 0.0274804 -3 1 -3 
8570 5 0.645343 0.00723395 0.0553876 1 -3 1 
5915 6 0.233182 1.0005 0.0610722 3 4 -4 
7551 6 0.827777 0.0158699 0.0699562 -2 4 -1 
7858 6 0.81443 0.0326813 0.0813125 4 2 -1 
8092 5 0.132382 0.00458713 0.0889759 1 -1 -1 
5369 5 0.949537 0.0637946 0.110827 1 -2 -8 
6102 5 0.0343703 0.0495606 0.0797794 0 4 2 
5886 5 0.77458 0.0469109 0.0687301 -5 0 5 
8926 5 0.80876 0.028653 0.0916706 -7 1 1 
5119 5 0.905152 0.0264852 0.090043 2 0 2 
5617 5 0.655707 0.154445 0.0423102 -1 0 1 
6810 6 0.156951 0.156004 0.0873051 1 2 6 
7633 6 0.4505 0.120062 0.0965748 5 -6 2 
7727 5 0.682195 0.127323 0.0830371 -1 0 1 
8753 6 0.708134 0.188383 0.100325 -2 2 -3 
5463 5 0.835249 0.128417 0.0434466 0 1 -1 
7952 5 0.370843 0.197689 0.0899234 1 2 5 
7348 6 0.805143 0.207501 0.0918471 -1 0 -1 
8472 5 0.311352 0.251623 0.0846968 2 4 -3 
6002 5 0.580816 0.183961 0.0218735 1 1 1 
5012 6 0.335169 0.2143 0.0260104 3 3 -1 
6000 6 0.582033 0.218789 0.108388 -2 2 0 
6178 6 0.813934 0.263301 0.071085 3 3 -1 
8490 6 0.129906 0.289198 0.099052 -1 -2 -1 
5268 5 0.889757 0.253678 0.0739954 -6 -4 -1 
8373 6 0.946187 0.219408 0.113348 1 0 0 
7880 6 0.0443937 0.301508 0.107216 -4 -1 1 
6853 5 0.467096 0.28823 0.0643326 3 5 -2 
6306 5 0.213998 0.368222 0.100051 5 1 6 
5612 6 0.793126 0.409956 0.0928506 -2 -2 -2 
8406 6 0.969486 0.346493 0.0763423 2 -4 1 
7704 6 0.213778 0.429359 0.0442544 -4 0 0 
6691 6 0.244887 0.414194 0.107719 2 -1 -2 
5782 5 0.543814 0.436929 0.0942067 -4 1 0 
5802 6 0.66838 0.384508 0.106213 -2 0 -3 
8227 5 0.726133 0.415036 0.0543104 2 4 5 
8361 6 0.312856 0.40907 0.0932326 0 2 5 
7142 6 0.0441865 0.467087 0.0771749 6 5 2 
5084 6 0.242449 0.486357 0.0989559 9 -2 0 
6741 6 0.426475 0.451501 0.0563348 1 3 -2 
8070 6 0.798529 0.460341 0.091834 -2 -4 4 
5703 6 0.192078 0.516894 0.0664491 1 -1 1 
7717 5 0.214142 0.485249 0.0813684 5 -5 0 
8258 6 0.303784 0.509216 0.0718318 1 -6 -2 
8543 5 0.508599 0.479768 0.0613917 -3 -2 10 
7065 6 0.806694 0.495215 0.0828038 -1 1 0 
5001 6 0.0505352 0.497047 0.0713478 -2 -1 5 
5525 5 0.162816 0.482626 0.0735432 2 2 -1 
8943 6 0.00926466 0.545145 0.0562234 2 4 5 
8750 6 0.546245 0.566788 0.0464821 1 -3 5 
6995 5 0.814844 0.590234 0.0987162 -1 -5 5 
7106 5 0.0219966 0.570915 0.0738022 -3 3 -2 
8046 5 0.261872 0.632205 0.0824704 0 2 -2 
8072 5 0.319293 0.571921 0.0765451 -4 -6 -2 
8250 6 0.623085 0.588919 0.0105021 -1 -1 2 
8565 5 0.0404465 0.619826 0.05258 5 1 1 
8170 6 0.206441 0.645854 0.0897742 2 0 0 
7011 6 0.676611 0.606927 0.118407 3 -4 1 
6052 5 0.900519 0.657891 0.070885 -6 -2 -1 
5028 6 0.946062 0.661888 0.12264 -3 -3 3 
7163 5 0.0367159 0.668922 0.105441 1 3 -2 
8837 6 0.199777 0.700909 0.0984832 1 -1 -4 
5057 6 0.395105 0.685759 0.141111 -3 1 -1 
5872 5 0.659136 0.746791 0.0637263 4 2 -1 
7294 6 0.218866 0.744305 0.0745095 2 -2 3 
5179 6 0.592086 0.769264 0.108249 -1 -1 1 
8779 6 0.365733 0.749428 0.0751576 -1 -2 0 
8715 6 0.637265 0.779012 0.0647147 0 3 -1 
5922 5 0.988417 0.772419 0.0809143 -2 0 -2 
6117 5 0.189911 0.813868 0.0951038 1 0 -2 
6862 6 0.937404 0.805311 0.0720325 -2 0 -1 
8552 5 0.390425 0.868286 0.0825623 -2 0 4 
8828 6 0.618426 0.813997 0.0929131 5 2 4 
6008 5 0.0815994 0.851305 0.0802147 -2 2 -4 
5016 5 0.154779 0.860364 0.0720833 -1 -2 4 
7101 6 0.146708 0.907952 0.0516916 -4 0 2 
7873 6 0.177635 0.903582 0.0783181 -1 1 2 
7416 6 0.268354 0.877124 0.0298564 -1 1 6 
4189 1 0.558538 0.881779 0.102823 0 0 0 
6055 5 0.549288 0.90982 0.116726 -2 1 0 
4182 1 0.577776 0.869668 0.092856 0 0 0 
4141 1 0.620524 0.878604 0.0833946 0 0 0 
4142 1 0.618289 0.874401 0.0791065 0 0 0 
4143 1 0.619223 0.871396 0.0847239 0 0 0 
4146 1 0.626306 0.868087 0.0865372 0 0 0 
4147 1 0.626147 0.862216 0.0891511 0 0 0 
4144 1 0.624035 0.870479 0.0805738 0 0 0 
4148 1 0.632077 0.862955 0.0866009 0 0 0 
4053 1 0.62932 0.884365 0.0884404 0 0 0 
4055 1 0.63627 0.882724 0.0913659 0 0 0 
4058 1 0.64183 0.879452 0.0940496 0 0 0 
4057 1 0.642663 0.88011 0.0873748 0 0 0 
4056 1 0.637423 0.877041 0.0882104 0 0 0 
4054 1 0.635026 0.883809 0.0853723 0 0 0 
3984 1 0.665265 0.886307 0.0548458 0 0 0 
3983 1 0.671642 0.883924 0.0554226 0 0 0 
5329 6 0.839485 0.891103 0.0887881 6 1 3 
6291 5 0.175346 0.892442 0.0589811 1 2 5 
4397 1 0.520299 0.909181 0.0917172 0 0 0 
4191 1 0.55818 0.887861 0.0993844 0 0 0 
4050 1 0.633632 0.89592 0.0858649 0 0 0 
4048 1 0.639506 0.895841 0.0898591 0 0 0 
4051 1 0.6315 0.891748 0.0902815 0 0 0 
4052 1 0.630592 0.88928 0.0844195 0 0 0 
4049 1 0.637217 0.890497 0.0866119 0 0 0 
4034 1 0.65685 0.897361 0.0654178 0 0 0 
4036 1 0.65221 0.895474 0.0708948 0 0 0 
4038 1 0.65828 0.891883 0.0737686 0 0 0 
4040 1 0.653418 0.895161 0.0787745 0 0 0 
4039 1 0.654025 0.888598 0.07731 0 0 0 
3971 1 0.667306 0.910232 0.0698325 0 0 0 
3973 1 0.661561 0.906134 0.0694935 0 0 0 
4044 1 0.652331 0.894865 0.0926138 0 0 0 
4046 1 0.645635 0.896355 0.09411 0 0 0 
4042 1 0.650648 0.896603 0.0857046 0 0 0 
4041 1 0.654013 0.891395 0.0842147 0 0 0 
3982 1 0.671509 0.888535 0.0514423 0 0 0 
5211 5 0.657845 0.889925 0.0636267 -6 -1 1 
4035 1 0.651423 0.894453 0.0647289 0 0 0 
5641 5 0.667541 0.89255 0.0573112 -1 -5 3 
3981 1 0.675369 0.89015 0.0564932 0 0 0 
4037 1 0.653634 0.889393 0.0700278 0 0 0 
3974 1 0.665077 0.900997 0.0690361 0 0 0 
3972 1 0.665633 0.906325 0.0745651 0 0 0 
5442 6 0.869563 0.898843 0.108078 1 3 -1 
7360 6 0.305272 0.900876 0.0725517 -3 2 4 
4703 1 0.469816 0.921654 0.0811369 0 0 0 
4701 1 0.464374 0.918012 0.0841391 0 0 0 
4702 1 0.470517 0.915568 0.0833083 0 0 0 
4700 1 0.465363 0.914314 0.089229 0 0 0 
4699 1 0.468612 0.919847 0.089858 0 0 0 
5404 5 0.467545 0.939358 0.0861749 -3 4 2 
4705 1 0.468965 0.918653 0.0746833 0 0 0 
4704 1 0.474743 0.91906 0.078356 0 0 0 
4707 1 0.471935 0.925669 0.0748092 0 0 0 
4666 1 0.484345 0.927879 0.0909004 0 0 0 
4668 1 0.489337 0.933271 0.0886758 0 0 0 
4669 1 0.488609 0.932493 0.0949893 0 0 0 
4667 1 0.48337 0.934058 0.0899275 0 0 0 
4403 1 0.517773 0.92234 0.0740328 0 0 0 
4401 1 0.516077 0.917589 0.0802018 0 0 0 
7365 5 0.520554 0.944732 0.0855114 7 -1 -2 
4402 1 0.519898 0.916686 0.0752175 0 0 0 
4400 1 0.522627 0.916372 0.0818458 0 0 0 
4404 1 0.515083 0.917748 0.069886 0 0 0 
4398 1 0.52426 0.912146 0.0878026 0 0 0 
4399 1 0.518826 0.913264 0.085224 0 0 0 
3961 1 0.654206 0.936538 0.0730285 0 0 0 
3963 1 0.657077 0.929304 0.0727238 0 0 0 
3970 1 0.666238 0.913551 0.0756929 0 0 0 
3962 1 0.651204 0.931482 0.0710856 0 0 0 
3968 1 0.660021 0.916095 0.0721882 0 0 0 
3969 1 0.66641 0.917897 0.0709277 0 0 0 
7576 6 0.674823 0.897085 0.0860337 -4 -2 6 
4708 1 0.469958 0.927574 0.0691231 0 0 0 
4706 1 0.473963 0.920737 0.0707522 0 0 0 
4535 1 0.468215 0.955848 0.0828135 0 0 0 
4532 1 0.459547 0.958082 0.0901585 0 0 0 
4531 1 0.462212 0.959636 0.0955147 0 0 0 
4534 1 0.463791 0.959919 0.0843385 0 0 0 
4665 1 0.478669 0.929781 0.0884406 0 0 0 
5650 5 0.474257 0.959555 0.0830449 1 -3 -2 
4541 1 0.477609 0.947048 0.0704141 0 0 0 
4542 1 0.481383 0.94493 0.0747178 0 0 0 
4543 1 0.475454 0.944409 0.0765056 0 0 0 
4539 1 0.472798 0.950209 0.0738533 0 0 0 
4540 1 0.478852 0.952068 0.0736032 0 0 0 
4545 1 0.47227 0.945729 0.0830386 0 0 0 
4537 1 0.46758 0.955562 0.0752845 0 0 0 
4538 1 0.473715 0.956268 0.0761449 0 0 0 
4544 1 0.47862 0.947105 0.0811811 0 0 0 
3923 1 0.607437 0.960381 0.0954614 0 0 0 
3917 1 0.611879 0.953145 0.0833224 0 0 0 
3921 1 0.613677 0.958855 0.0909889 0 0 0 
3913 1 0.616192 0.941942 0.0799698 0 0 0 
3909 1 0.616998 0.951204 0.0893335 0 0 0 
3907 1 0.616144 0.953271 0.0959568 0 0 0 
3908 1 0.615973 0.947025 0.0939626 0 0 0 
3906 1 0.621464 0.950595 0.0971216 0 0 0 
3911 1 0.616096 0.943908 0.0873292 0 0 0 
3954 1 0.636896 0.942731 0.0803431 0 0 0 
3953 1 0.636638 0.947319 0.0850505 0 0 0 
3910 1 0.621553 0.947318 0.0877449 0 0 0 
6679 5 0.623479 0.954007 0.0874423 1 -1 -4 
3959 1 0.652014 0.943017 0.0731581 0 0 0 
3960 1 0.648359 0.938291 0.0712402 0 0 0 
3958 1 0.650785 0.939356 0.0786529 0 0 0 
3952 1 0.632544 0.94857 0.0805465 0 0 0 
3955 1 0.641283 0.946753 0.0786329 0 0 0 
3951 1 0.629695 0.94972 0.0861475 0 0 0 
3957 1 0.648212 0.94501 0.0795116 0 0 0 
3956 1 0.643441 0.940804 0.0788498 0 0 0 
7561 6 0.0609211 0.944667 0.112781 3 -2 1 
5600 6 0.297295 0.0040747 0.0659665 -2 4 3 
4467 1 0.456433 0.980983 0.0635539 0 0 0 
4530 1 0.458829 0.964956 0.094815 0 0 0 
4533 1 0.465594 0.956357 0.0900334 0 0 0 
4536 1 0.468845 0.960595 0.07913 0 0 0 
4470 1 0.464637 0.978065 0.0689113 0 0 0 
3922 1 0.60809 0.961881 0.0894071 0 0 0 
3916 1 0.611207 0.951998 0.0772215 0 0 0 
3918 1 0.61348 0.958144 0.0800127 0 0 0 
3920 1 0.613857 0.962872 0.0853788 0 0 0 
3919 1 0.617575 0.957242 0.0847147 0 0 0 
3924 1 0.601752 0.959017 0.0920773 0 0 0 
6831 5 0.628975 0.968841 0.0965921 1 3 0 
3912 1 0.616598 0.948328 0.0826982 0 0 0 
3914 1 0.615011 0.946566 0.0751716 0 0 0 
3947 1 0.628273 0.962028 0.092662 0 0 0 
3945 1 0.621342 0.965151 0.092284 0 0 0 
3915 1 0.609988 0.946346 0.0795151 0 0 0 
8920 5 0.88565 0.960555 0.0843035 0 2 0 
5218 6 0.381278 0.994341 0.061805 -2 -4 5 
4469 1 0.461844 0.983609 0.0669704 0 0 0 
4471 1 0.465498 0.98199 0.073382 0 0 0 
4473 1 0.460491 0.98318 0.0790568 0 0 0 
4472 1 0.461246 0.977645 0.0758187 0 0 0 
4475 1 0.46288 0.976725 0.0824592 0 0 0 
4474 1 0.457234 0.979031 0.0821992 0 0 0 
4476 1 0.460606 0.976762 0.0883167 0 0 0 
6750 6 0.677006 0.965448 0.0655273 1 -2 0 
6466 6 0.385701 0.0378031 0.0986862 7 -4 2 
7118 6 0.118795 0.0602092 0.123467 1 3 -1 
8686 6 0.316076 0.0777064 0.100883 0 3 1 
7219 6 0.589066 0.0530226 0.0858192 3 -2 1 
8302 6 0.620268 0.0340992 0.120608 -4 -6 1 
5967 6 0.204344 0.0989057 0.132703 2 -2 0 
8526 5 0.388498 0.0853009 0.109163 -2 4 -3 
6999 6 0.934256 0.0970012 0.142921 -7 0 -1 
7706 6 0.763421 0.138101 0.101023 -1 2 4 
8081 5 0.610385 0.185851 0.113862 4 -1 -3 
8995 6 0.0498226 0.187928 0.0949245 2 -1 0 
7860 6 0.106658 0.20934 0.0940494 -2 -1 3 
5176 6 0.268684 0.224708 0.130104 0 2 -2 
5669 5 0.733245 0.189625 0.0792763 3 -2 -4 
5671 5 0.784574 0.231638 0.0588613 2 3 1 
6469 6 0.811642 0.21247 0.0946905 -7 1 -2 
8471 5 0.845261 0.193539 0.0598316 -3 1 -1 
5639 5 0.400047 0.249034 0.111063 -1 -4 1 
6453 6 0.408748 0.248194 0.093628 -1 -1 5 
5117 6 0.767479 0.23711 0.14349 0 7 1 
7255 6 0.563649 0.293817 0.115035 0 0 -3 
5997 5 0.899552 0.333109 0.0871608 2 2 4 
5556 5 0.39174 0.362189 0.0415872 -7 2 -3 
5407 6 0.694661 0.320315 0.126721 0 3 5 
6700 6 0.47366 0.399799 0.0736376 -3 0 -2 
5019 6 0.38665 0.418839 0.100715 0 6 2 
6534 5 0.753711 0.405929 0.11096 2 1 4 
8721 6 0.808667 0.42275 0.119104 2 3 -1 
5217 5 0.121242 0.469565 0.0734073 1 3 2 
8589 5 0.196457 0.435796 0.136901 3 0 -1 
7944 5 0.360135 0.398238 0.115996 1 -3 -1 
5178 5 0.588404 0.447369 0.13242 1 1 -5 
6968 6 0.144489 0.444571 0.0885227 0 3 2 
8158 6 0.410188 0.445787 0.11893 3 2 0 
8338 5 0.146245 0.459212 0.0809931 -6 0 3 
8623 6 0.144761 0.456196 0.119286 3 -1 1 
8037 5 0.291866 0.520924 0.113894 4 -1 0 
5492 5 0.673159 0.482651 0.126057 0 0 -2 
7037 6 0.26102 0.522507 0.101999 -4 0 0 
5900 6 0.969561 0.496333 0.0741998 2 0 -1 
8615 6 0.546106 0.545695 0.112986 -1 0 7 
6223 5 0.682229 0.581382 0.0895207 -1 -2 -6 
6120 6 0.392956 0.608108 0.138641 3 8 1 
8374 6 0.68295 0.600303 0.122848 2 -1 0 
7424 6 0.117086 0.60521 0.129187 5 3 -3 
5347 5 0.582698 0.651167 0.0975837 2 0 3 
5652 6 0.279573 0.6633 0.0954599 3 -2 -1 
5545 5 0.905436 0.69501 0.128223 -3 -3 2 
6364 6 0.968451 0.701846 0.0915338 0 -3 0 
7449 6 0.777367 0.705407 0.151301 -3 0 1 
7060 6 0.181572 0.708966 0.0631735 7 0 10 
5984 6 0.6205 0.725201 0.110822 3 -2 4 
6215 6 0.94749 0.730907 0.0579128 4 1 0 
5528 5 0.80596 0.725557 0.0952772 -1 -4 -3 
7541 6 0.891391 0.75828 0.0908474 -2 -2 -3 
5732 6 0.156335 0.820046 0.116514 0 -6 1 
5376 6 0.540671 0.749594 0.0805784 -2 0 2 
8875 5 0.756536 0.750183 0.0868635 -4 -1 -3 
7212 6 0.0137525 0.812012 0.109473 3 3 6 
1479 1 0.454266 0.814864 0.115451 0 0 0 
7870 6 0.531828 0.816344 0.104052 4 1 1 
5950 6 0.367238 0.831551 0.073936 0 2 1 
8515 6 0.439529 0.863776 0.102714 1 1 3 
1477 1 0.456184 0.81778 0.109078 0 0 0 
1478 1 0.457679 0.819696 0.11544 0 0 0 
1476 1 0.459514 0.823407 0.109091 0 0 0 
1475 1 0.456306 0.822666 0.103572 0 0 0 
1472 1 0.463491 0.828348 0.0999328 0 0 0 
1470 1 0.467285 0.833648 0.0972692 0 0 0 
1471 1 0.461283 0.834406 0.0997796 0 0 0 
1474 1 0.457614 0.828814 0.104775 0 0 0 
1473 1 0.456749 0.828591 0.0988294 0 0 0 
1469 1 0.4672 0.833198 0.103794 0 0 0 
1467 1 0.473584 0.832467 0.107613 0 0 0 
6858 5 0.517425 0.832735 0.0823458 -2 -1 2 
6592 5 0.326857 0.817921 0.0990722 1 3 0 
1468 1 0.472487 0.831612 0.101454 0 0 0 
4175 1 0.59619 0.860498 0.0977025 0 0 0 
4172 1 0.594928 0.851093 0.104641 0 0 0 
4174 1 0.591783 0.856005 0.100386 0 0 0 
4169 1 0.604322 0.851011 0.110182 0 0 0 
4171 1 0.598172 0.853428 0.109762 0 0 0 
4170 1 0.601896 0.85246 0.104325 0 0 0 
4167 1 0.607921 0.844751 0.111574 0 0 0 
4168 1 0.604668 0.845895 0.106531 0 0 0 
4173 1 0.596592 0.857419 0.104187 0 0 0 
4161 1 0.622249 0.836672 0.105612 0 0 0 
4155 1 0.635299 0.839939 0.0941649 0 0 0 
4151 1 0.634828 0.853248 0.0885533 0 0 0 
4150 1 0.632324 0.85809 0.0918248 0 0 0 
4149 1 0.629692 0.857013 0.0861261 0 0 0 
4163 1 0.618052 0.842244 0.103715 0 0 0 
4160 1 0.626726 0.838504 0.110188 0 0 0 
4166 1 0.612382 0.84652 0.107437 0 0 0 
4165 1 0.613518 0.840942 0.109677 0 0 0 
4154 1 0.639012 0.844995 0.0952346 0 0 0 
4153 1 0.634536 0.846299 0.0908949 0 0 0 