ITEM: TIMESTEP
20000000
ITEM: NUMBER OF ATOMS
9000
ITEM: BOX BOUNDS pp pp pp
-75 75
-75 75
-75 75
ITEM: ATOMS id type xs ys zs ix iy iz 
6045 5 0.0394056 0.011896 0.0349562 5 1 -3 
7988 6 0.514024 0.0477453 0.0176529 2 1 -1 
7207 5 0.759919 0.988208 0.021213 5 -3 -1 
6171 6 0.857347 0.0325187 0.0235758 -3 1 5 
8502 5 0.181169 0.0344223 0.0193574 1 3 0 
7274 5 0.768437 0.0302571 0.996317 -1 0 -1 
7425 6 0.162274 0.0595841 0.01513 0 2 1 
6938 5 0.435566 0.0512363 0.979027 -1 -4 0 
5540 5 0.54757 0.075221 0.974486 4 6 -1 
6031 6 0.382489 0.0627074 0.979393 2 -1 -1 
8597 6 0.466714 0.0901261 0.981591 6 3 -1 
5998 6 0.815268 0.0971245 0.998792 0 1 -6 
5135 5 0.0676572 0.122852 0.0155906 -1 -2 1 
7145 6 0.338241 0.105052 0.0437847 1 -5 1 
6921 6 0.501707 0.135102 0.0256306 -1 -2 0 
7401 5 0.659933 0.142107 0.0021371 1 -3 -1 
6998 6 0.681392 0.161076 0.0216955 -1 6 -2 
6273 6 0.774094 0.0984935 0.997727 2 -2 -1 
8844 6 0.398536 0.165585 0.948975 1 2 -3 
7882 6 0.861301 0.139797 0.02939 0 2 4 
6528 6 0.404654 0.166726 0.015399 1 3 5 
5217 5 0.8823 0.180267 0.0161009 -1 3 2 
8589 6 0.394471 0.21462 0.00717282 -1 2 9 
7088 5 0.452326 0.180881 0.974308 -6 -2 1 
5352 6 0.984548 0.157428 0.98211 -1 -1 -2 
8604 6 0.738134 0.19796 0.00100304 2 0 0 
6723 5 0.0801774 0.256528 0.995665 -2 -1 3 
5703 6 0.930133 0.248211 0.0401282 -2 2 0 
8430 6 0.132304 0.265987 0.0245284 -6 3 -3 
8961 6 0.954487 0.275981 0.0204907 -4 2 6 
7415 5 0.231748 0.29973 0.0240758 -2 5 5 
6381 6 0.828588 0.280045 0.0198159 2 0 4 
6501 5 0.905666 0.326643 0.987905 5 -4 4 
7070 6 0.911785 0.286455 0.0328748 -5 3 -3 
5207 6 0.106167 0.310484 0.00583203 4 -2 -1 
6151 6 0.667065 0.337009 0.985586 -2 0 1 
5154 6 0.7179 0.32222 0.0229995 1 3 -2 
6614 6 0.913434 0.323107 0.0271256 1 0 -6 
8580 5 0.483211 0.369278 0.036397 0 2 -2 
7380 6 0.62046 0.349617 0.98142 1 4 -1 
5422 5 0.857392 0.366077 0.0113723 3 0 3 
5610 5 0.00444426 0.342835 0.988581 1 -2 1 
8481 5 0.204061 0.355561 0.0203482 4 -3 -1 
5355 6 0.315536 0.419997 0.983737 1 -2 -1 
5363 5 0.480901 0.334593 0.971889 0 -1 4 
6233 5 0.553493 0.361019 0.040002 1 -1 -1 
7865 6 0.811614 0.40948 0.0147138 1 -4 2 
8843 5 0.750614 0.414995 0.000232657 -2 -1 -5 
8492 5 0.971405 0.400301 0.0189407 -3 2 0 
6183 5 0.443363 0.452258 0.998833 0 -1 0 
5098 6 0.550268 0.417793 0.0212974 3 1 -4 
5694 5 0.259891 0.457193 0.0216486 2 2 -4 
7259 5 0.725672 0.453217 0.0275667 -1 -3 1 
6218 6 0.849078 0.505192 0.0249274 5 1 0 
8905 6 0.889775 0.466763 0.993174 0 5 -3 
6997 5 0.694554 0.491356 0.0100501 1 4 4 
6716 5 0.125771 0.536105 0.047379 3 5 -1 
5553 6 0.604042 0.537782 0.999516 0 4 -2 
7520 5 0.870632 0.571168 0.0324911 -5 2 1 
6659 6 0.207738 0.608064 0.000520851 -3 -2 1 
8087 6 0.497322 0.606071 0.0367078 0 -2 0 
5718 5 0.54738 0.60404 0.0340249 -4 3 6 
7164 5 0.810436 0.619459 0.00600806 1 -1 0 
5768 5 0.852394 0.611592 0.00603191 -1 -1 3 
8199 6 0.0736653 0.596897 0.974035 6 2 1 
5462 6 0.131897 0.62182 0.0192285 3 0 2 
7107 5 0.422828 0.629445 0.0247112 -3 -4 2 
6276 6 0.8863 0.664892 0.985591 -1 -2 -7 
5030 6 0.211471 0.658298 0.984895 1 -2 -2 
5084 6 0.0547207 0.680061 0.989102 4 -5 -1 
8117 6 0.578133 0.684524 0.0339604 -5 0 1 
8641 5 0.28296 0.690584 0.989884 5 -1 -2 
5384 5 0.60789 0.705053 0.992138 -8 3 3 
6955 6 0.552419 0.775899 0.0289257 -3 -7 1 
7077 5 0.152039 0.784337 -0.00018892 2 6 -2 
6135 6 0.795136 0.780411 0.0279025 3 0 4 
5304 5 0.969956 0.767971 0.0321563 3 -1 6 
6820 5 0.419803 0.783196 0.981995 -1 2 0 
6034 6 0.493491 0.7623 0.996036 1 0 0 
6288 5 0.774074 0.821901 0.977724 0 3 3 
5146 6 0.983521 0.778698 0.0225205 -4 -3 2 
5979 6 0.18307 0.780335 0.000272955 -4 2 -1 
6167 5 0.179349 0.799033 0.0262997 1 0 2 
8701 6 0.254508 0.814126 0.0144691 -1 -6 1 
7691 6 0.349471 0.824758 0.00680411 1 2 -2 
7541 5 0.818279 0.856366 0.00111334 -2 0 0 
7435 6 0.883627 0.832169 0.981822 -3 1 -2 
7923 6 0.958528 0.873595 0.0272851 0 5 0 
7979 6 0.129883 0.903894 0.051424 -2 0 -6 
8923 6 0.834328 0.907392 0.00315719 -1 0 5 
8514 5 0.451223 0.89967 0.00300316 2 -2 -2 
5080 6 0.473187 0.921686 0.0396267 4 -3 2 
8582 5 0.264705 0.921065 0.0417534 -2 1 1 
6322 5 0.321619 0.908338 0.0174811 3 -7 4 
6282 5 0.701012 0.993662 0.0360428 -5 1 -3 
8611 6 0.640447 0.0279964 0.0737495 1 -4 2 
6004 6 0.284343 0.05241 0.0402137 0 -6 -1 
5678 6 0.767345 0.983285 0.0738798 -1 -7 4 
6598 5 0.367413 0.043748 0.0365355 0 1 -2 
7512 5 0.328256 0.0605943 0.0373649 -3 -2 1 
7659 6 0.518785 0.0612372 0.0162654 0 3 0 
6665 6 0.963015 0.0799708 0.0568186 -2 3 1 
7613 5 0.577794 0.124829 0.998417 2 6 1 
7853 6 0.0448814 0.112501 0.0204936 -5 -3 4 
8170 5 0.829022 0.137172 0.03556 -1 6 0 
6369 5 0.733272 0.150689 0.015639 0 3 1 
7498 5 0.333811 0.184543 0.0439586 -1 -2 1 
6637 5 0.429017 0.172986 0.0516811 -2 2 4 
8860 5 0.545675 0.190238 0.0490194 2 1 2 
6903 6 0.835146 0.179896 0.0184651 -1 -1 4 
6744 6 0.301667 0.200813 0.0181429 -1 -3 8 
6475 6 0.659731 0.21381 0.0634869 3 -2 5 
6981 6 0.0878011 0.214524 0.0243391 -5 -5 2 
6720 6 0.126634 0.255878 0.038621 1 0 3 
7003 6 0.628398 0.239411 0.0477328 0 2 0 
7547 6 0.888555 0.26727 0.0553458 -4 0 0 
8969 5 0.880345 0.20494 0.00918493 -3 2 4 
8797 5 0.206175 0.291357 0.012373 4 -2 6 
8664 5 0.500198 0.257321 0.0429325 0 -7 3 
7838 6 0.606836 0.313582 0.0600802 -4 -3 8 
7972 6 0.0613408 0.280295 0.064727 0 -1 0 
8225 5 0.00214624 0.310331 0.0210579 1 1 2 
7732 6 0.150399 0.334538 0.0268722 -2 -3 -4 
8109 6 0.410241 0.393645 0.0309824 -5 2 -1 
5843 5 0.167692 0.396537 0.02254 4 5 -1 
7606 6 0.518465 0.330372 0.0453512 -3 4 -4 
5478 5 0.241924 0.391906 0.0555247 -2 -2 2 
8456 5 0.107439 0.469287 0.0318121 0 -2 -5 
8863 6 0.698142 0.467934 0.00087906 -1 0 -2 
6110 5 0.332155 0.489499 0.0528852 1 1 1 
7488 5 0.736221 0.508547 0.00637021 -1 -2 -4 
8968 5 0.822645 0.480912 0.990517 -1 -5 -5 
5412 5 0.525238 0.517007 0.0354872 1 -1 -1 
7892 5 0.984432 0.522763 0.0671105 -1 -7 -3 
8851 5 0.000681882 0.498152 0.0631948 -8 1 0 
5481 6 0.126827 0.532086 0.00934639 2 -2 -5 
6792 5 0.263843 0.511157 0.0541309 -3 5 7 
8655 6 0.614409 0.564888 0.0575512 4 -3 2 
6126 5 0.0616604 0.563876 0.0322064 2 -1 -2 
8616 5 0.819337 0.620923 0.0293348 1 0 1 
5501 6 0.420135 0.618691 0.0288328 0 3 -3 
6589 6 0.623232 0.566783 0.000390458 -1 -1 1 
7218 5 0.986686 0.586219 0.0282482 -2 -2 2 
8762 6 0.2817 0.648432 0.0103021 -1 -3 -4 
8041 6 0.32334 0.645898 0.0142631 0 -2 2 
6071 6 0.524688 0.659496 0.0432956 5 1 -1 
5444 5 0.754164 0.659043 0.989464 0 -1 2 
6730 6 0.755915 0.61142 0.0796822 -2 -3 2 
7320 6 0.841703 0.643083 0.0088394 3 -3 3 
7784 6 0.530922 0.681352 0.0114684 -4 -2 3 
8137 6 0.27452 0.685989 0.0340084 4 -4 3 
8871 5 0.417129 0.668084 0.0533187 -4 0 -2 
8773 5 0.512314 0.683191 0.0427697 5 5 -1 
6015 6 0.58492 0.698409 0.0392844 0 -2 2 
6076 5 0.99373 0.72717 0.0373909 -2 4 3 
8648 5 0.419142 0.813131 0.0406584 1 -1 -3 
8728 6 0.509782 0.739019 0.0109764 1 -1 4 
7221 6 0.503805 0.740682 0.0167172 4 0 -1 
5779 6 0.931924 0.785218 0.0690823 -1 -1 -7 
8171 6 0.0254271 0.775487 0.0447535 3 -3 0 
7591 6 0.0678673 0.785374 0.0248193 -3 -4 5 
5741 5 0.391447 0.768363 0.0177388 0 0 2 
7965 5 0.511604 0.80717 0.0117099 3 -3 0 
6127 5 0.699018 0.90258 0.0248452 7 -1 1 
7469 5 0.90935 0.852298 0.0363956 1 0 -3 
6020 5 0.840135 0.905278 0.0367293 -1 2 0 
7132 5 0.761964 0.90224 0.0328328 1 -1 4 
6805 6 0.0096886 0.928014 0.0236933 2 -2 1 
7023 6 0.0964041 0.962671 0.0105617 4 -6 -2 
7693 5 0.177607 0.934676 0.0200728 -2 -2 0 
6477 6 0.554557 0.964697 0.042854 3 -4 2 
5797 5 0.656957 0.957097 0.0194297 -1 1 8 
8478 6 0.149876 0.972588 0.0394583 -6 -2 2 
6526 6 0.0639215 0.952588 0.050312 1 -6 1 
7555 5 0.891902 0.959692 0.0482416 -1 -4 -1 
7126 5 0.89556 0.987342 0.0333724 -1 1 5 
6575 5 0.734655 0.00975156 0.0596936 0 -1 0 
5806 5 0.0947536 0.0163756 0.0394394 6 -1 -2 
8259 6 0.806126 0.0683682 0.03905 1 3 3 
7454 6 0.280027 0.122253 0.0540381 3 1 -2 
8554 5 0.623713 0.110844 0.0272247 -3 1 3 
6087 5 0.151716 0.176216 0.0459779 1 0 -5 
5933 6 0.816772 0.145049 0.0825403 -1 1 -3 
5780 5 0.337817 0.175987 0.0343182 3 -4 -3 
6836 5 0.315389 0.178345 0.0553248 4 1 -1 
5896 5 0.895218 0.116534 0.0299506 3 -3 1 
8333 5 0.638217 0.201224 0.0716994 5 1 -3 
7551 5 0.177666 0.202677 0.0506868 1 -2 -2 
5223 5 0.157622 0.214607 0.0809737 4 -6 6 
5766 5 0.309897 0.268905 0.0385227 -3 3 -1 
7345 6 0.523414 0.288813 0.0366634 6 0 3 
7046 6 0.956381 0.282423 0.0339086 2 2 0 
5789 6 0.556126 0.253064 0.048079 -4 2 2 
5025 5 0.980094 0.267339 0.0523554 -2 0 -4 
5808 6 0.2325 0.302744 0.0914273 1 7 -5 
7993 6 0.622801 0.290383 0.066709 -1 2 3 
6892 6 0.135417 0.332609 0.0257538 -4 1 2 
8432 6 0.339312 0.30779 0.064268 7 2 -4 
8730 6 0.922321 0.333311 0.0652032 -4 2 3 
7872 6 0.642803 0.381681 0.0598224 -2 0 0 
8039 5 0.7574 0.320637 0.0339215 -3 3 -4 
5437 5 0.103081 0.349618 0.0595808 -3 -1 5 
8374 6 0.270021 0.428939 0.105526 -4 -4 1 
5632 5 0.367241 0.367672 0.0479106 2 -1 -6 
5185 5 0.743282 0.421405 0.100756 0 1 3 
8856 6 0.830997 0.377102 0.0174032 0 4 -4 
8421 6 0.0247381 0.426244 0.0549773 2 -6 3 
5614 5 0.0493389 0.38584 0.086234 1 1 0 
5204 6 0.348381 0.421323 0.0785945 -3 -1 2 
5184 6 0.622006 0.444575 0.0520873 -4 -2 -3 
5526 6 0.686798 0.433251 0.0603104 5 3 -4 
8917 6 0.893941 0.511386 0.0312189 -3 0 -3 
6139 6 0.323659 0.49003 0.0740706 1 0 -4 
7349 5 0.323879 0.484199 0.0562461 -7 4 -1 
7888 5 0.700857 0.47922 0.0429528 -3 1 5 
5293 6 0.500774 0.484089 0.0832202 5 0 0 
5922 6 0.900345 0.544406 0.0849742 -1 -4 0 
5635 5 0.620199 0.555938 0.0545614 2 0 2 
8348 6 0.608747 0.539891 0.0444777 1 3 2 
7680 5 0.432136 0.552428 0.0488862 3 1 5 
6694 6 0.789155 0.544218 0.0388606 -4 1 -3 
5035 5 0.727266 0.593674 0.0741144 -2 -2 -1 
5165 6 0.950155 0.52418 0.0829704 -4 -4 0 
5110 6 0.161918 0.61896 0.0763253 -2 0 -4 
6822 6 0.370346 0.634614 0.090198 5 3 -1 
6601 5 0.364972 0.660541 0.0723743 -4 0 -2 
5567 5 0.0291019 0.68624 0.0642747 1 0 4 
6783 6 0.139149 0.675887 0.0830281 -3 -1 -1 
6472 5 0.679761 0.699732 0.0569456 4 1 -4 
5726 6 0.457724 0.691553 0.0529696 -2 -2 2 
7474 5 0.0523235 0.764487 0.0546935 3 -1 -3 
8644 6 0.168457 0.7371 0.0603193 2 -1 0 
7707 6 0.702304 0.731068 0.0892863 -3 -5 1 
8362 6 0.741622 0.739736 0.0472416 -1 -3 2 
8801 6 0.0886377 0.72773 0.0814965 4 6 -2 
8992 6 0.261797 0.758354 0.0951861 0 2 -1 
8949 6 0.935362 0.80122 0.0506919 0 -2 4 
5129 6 0.148285 0.807071 0.0761737 3 -2 -3 
7510 6 0.756016 0.798235 0.0261152 5 -3 1 
8174 5 0.291883 0.827783 0.0785285 -4 -1 2 
7288 5 0.588899 0.814563 0.0609933 -1 -5 5 
8343 5 0.784623 0.828116 0.0856677 -3 -4 2 
6457 5 0.220372 0.899013 0.0350327 -1 -3 -3 
5974 5 0.523064 0.851361 0.0551091 4 -2 0 
5410 6 0.045786 0.87561 0.0494478 -1 -4 -3 
8723 5 0.256042 0.844037 0.0277836 -4 0 4 
6439 5 0.564797 0.891712 0.0971428 3 -2 -7 
8257 5 0.842459 0.894282 0.104892 0 -5 3 
7047 6 0.327459 0.886598 0.0597471 3 0 -4 
6254 6 0.888382 0.870097 0.0563507 -5 -10 2 
6874 6 0.748799 0.908195 0.0995371 0 4 -1 
5735 5 0.0417319 0.918976 0.048777 1 -2 5 
7578 5 0.906579 0.949745 0.0903268 2 -1 3 
6740 6 0.997608 0.950332 0.044325 -1 4 0 
6782 6 0.0640337 0.96919 0.0449382 0 -2 4 
8603 6 0.472759 0.956765 0.0720723 3 2 6 
7019 5 0.674377 0.964619 0.084557 1 -3 2 
5128 5 0.834591 0.976609 0.0259356 -3 -1 -3 
6882 5 0.199727 0.997157 0.0650249 0 3 4 
5857 6 0.584416 0.0386574 0.0672651 3 1 -2 
7629 6 0.0615523 0.998368 0.0785906 -1 -3 3 
7193 5 0.452554 0.987921 0.0736931 3 -2 2 
5670 6 0.786567 0.0211102 0.0902565 -5 1 -2 
5552 6 0.464171 0.0371835 0.119074 -1 7 4 
7032 6 0.472107 0.0578991 0.0959506 -3 0 4 
5283 6 0.540243 0.0678641 0.106725 2 0 -2 
5094 5 0.724365 0.0332566 0.0573173 0 -1 -1 
6842 6 0.763306 0.0818845 0.0462379 -3 3 2 
5873 5 0.323359 0.0843363 0.108353 0 -2 4 
5388 6 0.0513181 0.0967541 0.0710103 -3 3 6 
7372 6 0.776924 0.148881 0.0682428 2 -4 -2 
5115 5 0.355847 0.149423 0.0993755 3 -3 0 
8327 6 0.456143 0.154697 0.0872629 3 2 3 
5964 5 0.483852 0.155211 0.0764389 3 1 3 
6914 6 0.655438 0.1394 0.0928724 2 4 4 
6272 6 0.369661 0.137953 0.0490288 -1 -3 -2 
7927 5 0.629078 0.213531 0.0964952 -7 1 4 
8601 6 0.517095 0.177552 0.0755526 -1 1 1 
5698 6 0.378881 0.235683 0.0975825 3 5 0 
7162 5 0.395496 0.22201 0.0702984 3 3 3 
6553 5 0.874425 0.230067 0.0408163 -6 0 2 
5039 5 0.977183 0.262734 0.0669574 -3 -2 2 
6423 6 0.944753 0.265055 0.083359 1 0 -1 
8410 5 0.24532 0.347364 0.106688 -1 -1 -2 
6843 5 0.81901 0.327871 0.0814593 4 0 -1 
8144 6 0.0991728 0.3402 0.0685822 2 2 -4 
6432 5 0.872481 0.389762 0.0629579 1 2 0 
6227 5 0.955144 0.367737 0.0793721 2 -2 1 
7952 6 0.356428 0.359206 0.0602639 4 1 6 
7737 6 0.0612571 0.433776 0.103739 0 -5 3 
8652 6 0.0959999 0.41683 0.119474 -1 1 -1 
7726 6 0.385257 0.442471 0.0893458 -3 4 1 
6920 5 0.701504 0.439455 0.10279 4 2 5 
5937 5 0.910579 0.391119 0.0797002 0 -3 2 
7264 6 0.946674 0.419706 0.0732111 3 -3 2 
7433 6 0.0471204 0.457234 0.0578819 2 -3 3 
6088 6 0.523817 0.453303 0.0812928 2 -3 6 
6754 6 0.972857 0.452414 0.0616546 0 0 -1 
5475 5 0.621533 0.458201 0.0872665 -1 2 4 
6391 6 0.753147 0.485604 0.0744027 0 -1 2 
5168 5 0.0987098 0.54303 0.0835008 1 3 0 
5425 5 0.130534 0.521088 0.090482 -4 -1 0 
5354 6 0.179637 0.570546 0.0929901 -2 -2 1 
6583 5 0.60339 0.573897 0.0851276 -2 3 -2 
6715 6 0.0184295 0.583296 0.111555 -5 2 -1 
7220 5 0.162918 0.607835 0.0439705 -1 3 0 
8412 6 0.203549 0.560658 0.0859062 -2 0 1 
5874 5 0.861083 0.587414 0.0622181 4 -2 5 
6772 6 0.24584 0.563395 0.0345448 2 2 -2 
5603 6 0.541667 0.625052 0.0904178 0 1 1 
8036 5 0.723351 0.628255 0.0564208 3 1 -1 
8110 5 0.964636 0.638715 0.0829698 2 2 3 
7262 5 0.024611 0.664056 0.101429 -2 -1 1 
7594 6 0.571337 0.657094 0.075021 -8 -1 -2 
8419 5 0.653114 0.660783 0.072196 -7 2 5 
6621 5 0.394501 0.652487 0.036295 -2 -2 0 
6916 6 0.0373644 0.685059 0.0715258 1 3 5 
6003 6 0.0790857 0.705161 0.0622816 3 1 3 
5295 5 0.185125 0.702972 0.0818669 -3 -3 2 
8160 6 0.459552 0.71465 0.0927562 -2 -2 -1 
7449 5 0.639799 0.744122 0.068578 -4 1 -2 
7951 5 0.685134 0.707165 0.0615557 -6 5 -1 
6055 5 0.92713 0.707559 0.998308 1 -2 -1 
5560 6 0.971154 0.704994 0.0901026 -5 3 -3 
7476 5 0.106601 0.68324 0.0701198 -1 -1 2 
7761 5 0.0959143 0.726908 0.109724 -4 -1 -3 
5521 5 0.771634 0.708389 0.0791354 -6 -1 -2 
6208 5 0.815399 0.697362 0.0936716 -6 -1 -5 
8453 6 0.833722 0.761116 0.120182 0 -1 -2 
7000 5 0.111764 0.794063 0.100427 1 -2 0 
6832 5 0.752538 0.739815 0.0883775 3 -1 -2 
7392 6 0.81855 0.726687 0.0685741 -2 -1 5 
7156 5 0.837551 0.709855 0.111929 3 2 -2 
7504 6 0.531712 0.772814 0.0785492 -5 -4 -6 
5736 5 0.588431 0.786724 0.111886 -4 5 2 
8583 6 0.705944 0.774455 0.0863987 -3 0 4 
5647 6 0.955045 0.773343 0.0711626 -4 -2 1 
8500 5 0.493019 0.825518 0.0790207 -4 4 -2 
8444 6 0.819501 0.846932 0.106152 5 4 0 
5969 6 0.875342 0.878361 0.0638832 -3 -2 -4 
7431 6 0.0898953 0.897663 0.0884109 0 1 -2 
8488 5 0.135519 0.892059 0.0821691 5 3 3 
6073 5 0.225901 0.923308 0.0514752 2 0 -5 
6813 6 0.25988 0.913391 0.0453392 -4 -2 -1 
7649 6 0.451319 0.914502 0.0845058 -2 -1 -2 
8255 5 0.642414 0.947715 0.109295 1 -1 0 
7254 6 0.667027 0.925875 0.0872328 -4 -4 2 
7656 5 0.749942 0.936393 0.109962 0 -2 0 
6931 6 0.399348 0.948684 0.10617 7 0 6 
8878 6 0.795779 0.933005 0.0544093 -2 -7 2 
7772 6 0.331239 0.995098 0.0895848 -1 -3 2 
7806 5 0.392054 0.0155628 0.116397 3 -3 1 
6202 6 0.274802 0.0379402 0.0976076 -1 2 -5 
6291 5 0.3336 0.00262604 0.0807348 -2 -2 5 
5949 6 0.434951 0.0698582 0.0660111 -3 -4 -2 
6290 5 0.95007 0.0671293 0.113352 -1 1 1 
6036 6 0.0351018 0.0396217 0.115176 2 0 -2 
8569 6 0.0287817 0.0442195 0.119296 1 4 1 
6313 6 0.450668 0.107799 0.105823 0 1 -2 
7039 6 0.727141 0.0775691 0.0909735 6 1 0 
7500 5 0.0398521 0.0676076 0.108876 2 -2 -4 
8654 6 0.859368 0.138909 0.0869122 -4 0 1 
5733 5 0.975878 0.136415 0.090897 4 3 -2 
8916 6 0.124168 0.108024 0.160389 -5 1 5 
8031 6 0.239091 0.110254 0.112289 2 -5 -3 
8042 6 0.0697141 0.132164 0.0776985 1 1 -3 
8852 5 0.582416 0.151832 0.111825 1 1 1 
7856 6 0.00474524 0.192089 0.0630498 1 2 -1 
5982 6 0.71901 0.211605 0.104707 -5 2 -4 
5812 6 0.802342 0.181904 0.0999986 0 -7 -2 
5442 6 0.349861 0.229927 0.0789347 1 -2 -1 
7529 6 0.0528275 0.238392 0.149814 0 -2 3 
6844 5 0.165573 0.264104 0.0833118 3 -1 0 
6771 6 0.825853 0.245634 0.115176 4 0 0 
6419 5 0.837811 0.239616 0.125748 4 -3 0 
5980 5 0.913417 0.250725 0.110635 -2 -2 0 
5125 6 0.584859 0.282418 0.108676 -1 -1 2 
6193 6 0.0690615 0.278913 0.0900396 1 -1 0 
8091 5 0.092436 0.243887 0.136417 -1 1 -4 
6775 5 0.970751 0.284887 0.10269 -2 0 2 
7889 5 0.78498 0.374942 0.113222 -2 2 1 
8166 5 0.318017 0.402239 0.128442 3 0 -3 
7056 5 0.363039 0.369083 0.10539 1 -2 1 
8427 6 0.533919 0.377844 0.0853496 1 0 0 
5818 6 0.885478 0.445198 0.137935 2 1 1 
7158 5 0.966667 0.396347 0.142201 -5 -1 2 
7473 6 0.807089 0.448104 0.101003 -5 -3 4 
7719 6 0.979984 0.500237 0.12303 1 -4 -2 
8350 6 0.72978 0.504861 0.0873962 1 -3 3 
6538 5 0.461677 0.500766 0.131274 1 -1 0 
8263 6 0.863427 0.575431 0.0951211 -2 -1 -1 
5950 6 0.556421 0.620982 0.105889 2 0 -1 
5448 6 0.581325 0.671667 0.0803446 0 -1 2 
7226 5 0.536298 0.591121 0.081576 3 4 -2 
6511 5 0.128637 0.698641 0.124794 -4 1 0 
5334 5 0.266103 0.682546 0.126148 -1 1 2 
8363 6 0.394229 0.668326 0.086465 -2 -3 5 
5564 5 0.620271 0.685694 0.0906882 1 5 -1 
6895 5 0.760585 0.65895 0.117624 -3 1 4 
5883 5 0.1246 0.722789 0.10441 0 -1 -2 
7369 5 0.39906 0.692814 0.0740998 -1 6 0 
6499 6 0.533278 0.643272 0.146781 1 3 -2 
6408 6 0.584641 0.667302 0.114595 5 3 -3 
8393 6 0.799889 0.703546 0.0696491 -1 -2 1 
5468 6 0.990074 0.714936 0.132391 -2 -1 -2 
8575 5 0.346031 0.69555 0.145516 2 -1 0 
7725 6 0.184693 0.7281 0.10424 -3 -3 -3 
6401 5 0.292939 0.685315 0.120627 2 2 -6 
7443 6 0.511838 0.731961 0.152288 -1 -1 1 
6662 6 0.576817 0.721781 0.114995 -2 4 4 
7233 6 0.710554 0.744064 0.109882 0 -4 -2 
8997 5 0.0807422 0.751582 0.100162 -2 -1 3 
8803 5 0.433164 0.76453 0.0980026 -2 -1 -1 
6095 5 0.219267 0.806397 0.09952 3 -4 -2 
7774 5 0.239807 0.7383 0.0500306 0 4 3 
5137 5 0.0298522 0.780618 0.0835519 2 2 -1 
5336 5 0.589964 0.835099 0.103367 -2 2 1 
7169 6 0.108144 0.818567 0.125121 -2 -3 -7 
8809 6 0.640631 0.830349 0.111519 1 3 1 
5986 6 0.836534 0.821 0.146798 2 1 4 
5710 6 0.640584 0.856638 0.128379 0 -5 -1 
8352 6 0.131677 0.929148 0.134611 1 3 -2 
7690 5 0.263114 0.875422 0.0748032 -4 6 3 
8053 5 0.270675 0.879528 0.115054 -3 4 -2 
7173 5 0.704969 0.92322 0.0773646 -2 -4 2 
8260 5 0.0266162 0.937491 0.104338 3 4 0 
8070 6 0.328321 0.931092 0.110543 -3 8 6 
8065 5 0.436343 0.947089 0.0856904 1 3 5 
8768 5 0.485385 0.890161 0.156922 1 -5 3 
6838 6 0.0331244 0.938756 0.120329 1 -4 -1 
7452 5 0.981324 0.916592 0.109841 2 5 -1 
5044 5 0.195245 0.963263 0.141343 -2 0 -4 
5833 6 0.374691 0.985305 0.0708984 -1 2 1 
8900 5 0.507311 0.96188 0.109707 -1 -3 -5 
6221 6 0.728565 0.961446 0.0813572 -4 0 3 
8305 6 0.783104 0.969448 0.0988878 0 -1 5 
6978 6 0.451164 0.0176238 0.0944739 -5 5 0 
8599 5 0.477908 0.988334 0.123817 3 -4 -1 
8698 5 0.58366 0.961635 0.133501 -7 -5 -3 
5578 6 0.850172 0.967355 0.139062 -2 0 0 
5048 6 0.103804 0.0297641 0.128524 3 -1 -5 
7391 6 0.938872 0.0499048 0.1228 2 -2 1 
6251 5 0.0913305 0.0114082 0.0638053 2 -3 -2 
8624 5 0.576409 0.0160634 0.140122 -5 4 3 
6445 6 0.738559 0.0677465 0.137811 0 5 -4 
5832 5 0.393987 0.0692276 0.119988 2 0 3 
5801 6 0.0998788 0.0879361 0.108058 1 3 3 
7417 5 0.30602 0.113473 0.131039 -3 4 6 
5913 6 0.525438 0.0831276 0.155458 -10 0 -2 
6876 6 0.921304 0.0928829 0.137609 0 -5 -6 
8461 5 0.938691 0.132923 0.134867 -3 3 1 
8339 5 0.0575282 0.137241 0.122587 -2 1 -2 
5566 6 0.630657 0.143626 0.107498 -4 1 4 
7067 6 0.42882 0.188625 0.103153 -4 -3 1 
5691 6 0.517628 0.182312 0.118931 -2 1 -3 
6080 6 0.573513 0.233384 0.126766 -2 7 2 
7302 6 0.526747 0.279505 0.115319 1 -4 4 
7558 6 0.134279 0.247384 0.130884 -1 3 -1 
8921 6 0.260918 0.264793 0.111108 5 1 1 
8168 5 0.00427939 0.299087 0.117434 -3 3 2 
8320 5 0.255389 0.274623 0.101682 3 1 -2 
7171 6 0.349905 0.303925 0.0901469 7 -3 5 
7050 5 0.81142 0.308749 0.0855161 -6 1 2 
7083 6 0.593277 0.302105 0.08836 -6 0 0 
6308 5 0.297379 0.363933 0.127164 0 -2 -2 
7402 6 0.486948 0.389113 0.135197 -1 -3 0 
7701 5 0.793991 0.342526 0.100034 3 0 0 
8848 5 0.866961 0.358881 0.137248 1 -2 0 
8581 6 0.987822 0.393049 0.158516 -2 0 3 
6220 5 0.345464 0.373569 0.0970879 -2 -2 1 
7816 5 0.877701 0.378473 0.165904 6 2 -1 
5016 5 0.0829291 0.406923 0.128633 -1 1 1 
8738 5 0.304255 0.37874 0.0882498 0 2 1 
8594 5 0.543303 0.414181 0.13655 3 0 -6 
5089 5 0.258906 0.430008 0.0855211 -2 -1 -1 
5340 6 0.707214 0.452356 0.124289 1 2 1 
6005 6 0.349972 0.439807 0.088686 -1 -3 7 
7209 5 0.335003 0.453646 0.134868 -8 -2 1 
8359 6 0.971712 0.446973 0.105689 1 -6 -1 
8872 6 0.39585 0.489102 0.109811 2 5 0 
8322 5 0.540053 0.478587 0.106553 -1 2 0 
6434 5 0.997259 0.502352 0.137019 -4 -3 0 
7044 6 0.334588 0.439485 0.118158 -2 -2 -1 
7298 5 0.944837 0.517748 0.140609 -6 6 0 
8658 5 0.412332 0.517304 0.125624 -1 -3 4 
8355 6 0.541529 0.532151 0.129486 2 3 2 
8822 5 0.694155 0.522872 0.128159 1 3 -1 
6283 5 0.0530983 0.607952 0.137381 6 2 -1 
6569 6 0.539684 0.557906 0.122706 3 -7 -5 
7103 5 0.0164101 0.601577 0.152926 0 5 -2 
5538 5 0.179667 0.600106 0.135421 3 -3 4 
5291 6 0.564204 0.639457 0.11079 -6 -3 4 
6623 6 0.65167 0.643406 0.114129 -2 -1 0 
5075 5 0.710204 0.65991 0.157542 -3 -3 -1 
8148 5 0.57053 0.655897 0.136233 0 -1 -1 
8573 6 0.235961 0.685284 0.150248 -1 2 -1 
5498 5 0.766605 0.7028 0.153573 -1 1 4 
5520 5 0.975966 0.684597 0.109149 -2 1 0 
6456 5 0.146322 0.73835 0.0974636 -1 2 -2 
8828 6 0.473388 0.76556 0.116854 1 3 0 
8566 5 0.443659 0.74742 0.126199 4 -2 1 
6364 5 0.493803 0.819555 0.110215 -3 -1 -2 
7028 5 0.765905 0.766498 0.0667747 2 -1 -1 
7491 6 0.815736 0.829056 0.13357 -1 1 -2 
5330 6 0.650982 0.77843 0.0899333 -6 1 -1 
5050 5 0.69083 0.908382 0.0936723 1 0 0 
5239 6 0.847692 0.911206 0.111387 2 -2 -1 
8837 6 0.88783 0.908662 0.12655 -1 4 3 
7909 5 0.973062 0.874022 0.137256 -6 0 0 
5627 6 0.136015 0.909613 0.134463 3 -8 3 
7478 6 0.636333 0.888917 0.143205 -2 0 -2 
6096 6 0.0821401 0.948079 0.171361 1 -3 2 
6592 6 0.428395 0.97795 0.149386 0 2 3 
6812 6 0.698963 0.950091 0.108556 2 -3 -2 
8945 6 0.915747 0.937281 0.11605 -1 -5 7 
6068 6 0.368946 0.969286 0.143538 -6 3 4 
5996 6 0.573438 0.988622 0.127469 -4 -2 -4 
6012 5 0.938996 0.977612 0.119219 3 0 -2 
7636 5 0.0991546 0.0314399 0.0930777 3 2 3 
6868 5 0.231388 0.987811 0.133556 -3 -3 3 
6178 5 0.547253 0.00117756 0.120478 -3 1 0 
5345 6 0.594004 0.991679 0.147857 3 6 -1 
6957 5 0.17899 0.0385348 0.174409 0 4 -6 
5263 6 0.743148 0.0664003 0.131501 1 0 1 
6630 5 0.170283 0.0612993 0.159646 1 0 6 
7736 5 0.254806 0.0500543 0.15952 -4 -2 2 
6774 6 0.771398 0.0251341 0.126288 -3 -5 0 
5837 5 0.451585 0.0788196 0.133295 1 0 -4 
5656 6 0.944177 0.122048 0.152856 0 1 -1 
6866 5 0.34381 0.0988648 0.150117 2 -1 -2 
7368 5 0.936929 0.0847145 0.13217 5 -3 0 
8864 6 0.553755 0.180066 0.133617 1 -3 1 
6758 6 0.550279 0.117426 0.165854 2 0 1 
5309 6 0.68126 0.150287 0.11044 -3 1 -2 
5046 5 0.409582 0.199856 0.126798 3 5 -1 
8934 6 0.795075 0.151431 0.125875 2 -1 7 
6785 5 0.956837 0.180846 0.125 5 2 0 
7569 5 0.433196 0.194332 0.128052 5 -3 -2 
5240 5 0.827565 0.18936 0.128361 1 8 -3 
8081 5 0.427593 0.189357 0.156602 1 2 0 
8868 6 0.954999 0.204069 0.139256 -5 -7 0 
5992 6 0.648655 0.25822 0.153042 -1 6 -1 
5903 5 0.0357625 0.276932 0.116093 4 -2 5 
6937 5 0.343583 0.247553 0.13315 -1 3 3 
8047 6 0.375227 0.201706 0.0984154 1 1 -5 
5791 5 0.0912915 0.278437 0.144638 3 4 1 
6195 5 0.288412 0.333779 0.120053 -1 -1 -2 
5688 6 0.611078 0.293583 0.200226 3 3 0 
5252 6 0.900313 0.309543 0.114738 -4 7 3 
7842 6 0.972568 0.29951 0.164675 3 1 2 
5277 6 0.0260229 0.336022 0.150007 1 -1 4 
8049 6 0.059356 0.251688 0.166497 0 -4 -1 
7572 6 0.442375 0.314917 0.171467 -3 -3 -1 
5450 6 0.556983 0.305658 0.161018 -3 -7 -1 
8437 6 0.26165 0.32833 0.146177 -1 0 -2 
5978 6 0.357477 0.365231 0.10873 2 -3 -1 
5981 6 0.364634 0.370161 0.166727 5 4 2 
7007 6 0.308263 0.336401 0.130868 0 0 1 
5314 6 0.875827 0.376283 0.151835 -5 1 1 
8100 6 0.0350551 0.426953 0.158837 0 1 -1 
7412 6 0.574778 0.418682 0.110106 2 1 -2 
7405 6 0.65031 0.411282 0.136343 -2 -4 3 
6719 6 0.801979 0.374637 0.144561 0 -2 1 
6862 6 0.0724211 0.432214 0.146205 0 3 7 
5002 5 0.381291 0.418651 0.171826 -1 -2 2 
8021 5 0.845328 0.420495 0.147364 3 1 1 
5565 6 0.644927 0.43392 0.140701 1 0 -3 
6382 6 0.865023 0.414768 0.135461 -4 1 1 
6712 6 0.0862495 0.470081 0.169695 -1 1 2 
6409 5 0.0615734 0.473078 0.132907 1 2 2 
5329 5 0.658875 0.469147 0.13514 2 -3 -2 
8897 5 0.134472 0.507637 0.151532 3 -2 2 
5653 6 0.433239 0.470035 0.177764 4 -2 -2 
7958 5 0.647661 0.499069 0.156004 0 -2 3 
8808 5 0.773933 0.485252 0.167272 1 6 0 
6907 5 0.997136 0.471509 0.132521 -1 -3 1 
5019 6 0.134481 0.503404 0.172138 4 1 0 
6235 6 0.108052 0.506091 0.147846 2 -3 4 
7049 6 0.279318 0.539557 0.168928 5 3 -2 
6184 5 0.453646 0.438514 0.114499 -2 0 -2 
6451 6 0.843508 0.497051 0.149496 -4 -4 1 
7778 5 0.687509 0.511898 0.14201 1 -2 5 
5117 6 0.847778 0.546364 0.128535 3 3 2 
7009 6 0.855921 0.531315 0.137886 1 0 -4 
5522 6 0.00198578 0.527763 0.195469 4 5 3 
7859 5 0.0350297 0.551312 0.134689 2 7 2 
8517 5 0.587463 0.565356 0.147158 -5 -2 3 
6495 6 0.51224 0.574551 0.18488 -3 0 -1 
5103 5 0.714571 0.554631 0.148136 -4 0 2 
5625 5 0.191313 0.579858 0.161821 -3 0 3 
8747 6 0.275733 0.574292 0.143851 3 2 4 
7059 6 0.484523 0.564007 0.189874 0 0 1 
8002 5 0.722849 0.654304 0.136066 2 5 2 
5577 6 0.281343 0.577637 0.151979 -3 -1 2 
7094 6 0.132124 0.628904 0.155391 -1 1 1 
7325 6 0.589976 0.679359 0.167343 2 0 1 
8787 5 0.200462 0.688717 0.166053 -2 6 -4 
6646 6 0.393766 0.671499 0.157017 4 2 0 
8423 5 0.519738 0.678235 0.179744 -3 -1 -3 
6611 6 0.548135 0.759611 0.151813 1 2 2 
6379 6 0.0987996 0.734154 0.115981 1 0 4 
8792 5 0.404228 0.717776 0.110304 2 4 1 
6375 6 0.945525 0.695992 0.14459 -5 -3 2 
8173 6 0.603852 0.754432 0.149732 3 -3 4 
8504 6 0.59226 0.709696 0.15349 0 0 2 
7091 5 0.696168 0.705958 0.150488 1 1 3 
5057 6 0.84615 0.72397 0.107186 1 0 -1 
7643 6 0.274652 0.765776 0.145199 -2 0 1 
5557 6 0.510247 0.737786 0.197713 3 -1 6 
5346 6 0.508256 0.752191 0.148588 3 4 -2 
6494 6 0.205791 0.808072 0.140823 2 2 1 
8562 6 0.576057 0.775914 0.161538 -4 -1 -1 
5467 5 0.824902 0.726359 0.144552 -3 -1 1 
8204 5 0.959304 0.769224 0.161359 0 -3 3 
6446 6 0.397574 0.843249 0.155432 4 -2 5 
8926 5 0.736022 0.806995 0.183213 -2 7 5 
5547 6 0.567035 0.822009 0.138284 2 -6 1 
8424 5 0.871718 0.881082 0.126489 2 -1 2 
5665 5 0.998142 0.855595 0.14604 -1 3 -1 
7366 5 0.43649 0.905805 0.163052 3 -1 0 
6335 5 0.0642959 0.934824 0.145464 -3 -2 2 
5865 5 0.0938333 0.938568 0.157057 1 0 0 
8123 6 0.704825 0.88314 0.141148 2 3 1 
7375 5 0.831966 0.873142 0.192547 0 0 1 
6057 6 0.237706 0.924499 0.0945207 1 -1 3 
5164 5 0.492054 0.956882 0.14027 3 -1 1 
7596 6 0.0412462 0.984465 0.139852 1 -3 -5 
6739 6 0.33274 0.966533 0.146697 4 -3 1 
5505 5 0.76161 0.951402 0.139083 4 -3 1 
8271 6 0.450517 0.00425944 0.158188 -2 -4 5 
7048 5 0.825754 0.982813 0.168463 -3 0 0 
8331 5 0.973118 0.0205946 0.19749 -5 4 2 
5809 5 0.698313 0.0522881 0.168229 1 -1 0 
5371 5 0.157731 0.040846 0.164577 1 2 1 
8119 5 0.673116 0.084054 0.155367 -1 2 -1 
7408 6 0.393463 0.056411 0.193382 2 2 -2 
5166 6 0.752685 0.121313 0.131251 3 -2 1 
5621 6 0.0815928 0.140497 0.169524 5 -2 -2 
6505 6 0.812135 0.14661 0.174744 1 -1 1 
8138 6 0.840474 0.168829 0.161999 -2 2 -1 
5618 6 0.122193 0.198991 0.148736 -2 -3 -1 
6763 6 0.209097 0.211843 0.162166 -6 -7 4 
7727 5 0.321449 0.176341 0.19219 -3 3 -2 
7386 6 0.37246 0.213893 0.157657 2 0 -3 
8473 6 0.448882 0.178752 0.175909 -2 1 -3 
8540 5 0.983507 0.189474 0.166611 -2 0 3 
6348 5 0.593274 0.236777 0.176064 4 0 2 
7116 6 0.640227 0.202046 0.170432 -3 -2 7 
5715 5 0.202702 0.244713 0.124405 0 4 3 
8793 6 0.33351 0.270651 0.168536 -1 -6 2 
5939 6 0.53323 0.221043 0.133447 5 1 1 
5588 6 0.979104 0.278216 0.130979 -4 0 -3 
7040 6 0.0255129 0.306986 0.195923 1 5 1 
6660 5 0.920557 0.271465 0.192055 1 -2 3 
8399 6 0.0555572 0.317004 0.190133 -4 2 1 
6656 6 0.33226 0.27625 0.145993 0 -2 -1 
8501 6 0.143437 0.31712 0.167889 2 -2 7 
8254 6 0.299243 0.352228 0.165907 0 -2 1 
6397 6 0.264942 0.363348 0.169177 4 -1 3 
7242 6 0.424917 0.338881 0.190401 1 1 2 
6130 6 0.815696 0.317286 0.196728 -3 2 -3 
7538 6 0.48356 0.348793 0.155717 3 -1 0 
8349 5 0.517425 0.386192 0.162221 -4 -4 -1 
8709 5 0.698702 0.382316 0.2171 -1 2 -1 
6625 5 0.829777 0.376325 0.189053 4 -6 -1 
5655 5 0.233456 0.378027 0.179769 -1 0 0 
6745 5 0.0249761 0.426687 0.154384 -5 2 -2 
5628 5 0.243971 0.490862 0.163154 2 3 1 
8947 6 0.739928 0.445241 0.137944 -2 2 2 
5265 5 0.467205 0.495008 0.141179 1 -2 0 
7149 6 0.459303 0.477654 0.174573 -2 -4 -4 
5266 6 0.483639 0.462479 0.162486 0 1 -1 
6017 5 0.294196 0.466561 0.158812 -2 -2 3 
5351 6 0.20305 0.482146 0.199688 -3 -2 2 
6144 6 0.200873 0.554318 0.176009 4 -3 -2 
8373 5 0.289699 0.495427 0.174003 1 -6 2 
7005 6 0.4958 0.537547 0.154848 -2 4 -2 
7971 5 0.563094 0.516412 0.175179 0 -2 1 
8396 5 0.961012 0.538014 0.173655 1 -6 1 
5298 5 0.0811897 0.558633 0.163305 4 -4 3 
6926 6 0.088321 0.548754 0.16416 5 0 3 
8776 5 0.184934 0.59867 0.16328 -1 2 2 
7177 5 0.38518 0.596934 0.166202 2 1 2 
7612 6 0.47327 0.619105 0.168669 -4 1 4 
6613 6 0.881709 0.590514 0.136007 -2 -3 -6 
8892 6 0.853818 0.580075 0.169883 1 -2 2 
6829 6 0.209446 0.627187 0.180443 -2 5 4 
8743 6 0.485666 0.672122 0.176448 0 2 -2 
6784 6 0.867376 0.634674 0.17989 -2 -5 -3 
8687 5 0.60242 0.650463 0.182529 0 6 1 
6207 5 0.207565 0.698051 0.163144 -3 1 5 
6726 5 0.786047 0.699142 0.220227 3 -3 0 
5556 6 0.882672 0.74459 0.114859 1 -3 -2 
5930 5 0.634355 0.748559 0.166748 -1 3 -1 
7346 5 0.675478 0.754795 0.113977 3 -5 1 
7947 5 0.479097 0.759563 0.199194 1 2 3 
6609 6 0.913973 0.802832 0.220204 -2 3 -6 
8646 6 0.995939 0.816593 0.164021 3 -1 1 
8549 6 0.578537 0.841723 0.166905 3 2 -2 