ITEM: TIMESTEP
20000000
ITEM: NUMBER OF ATOMS
9000
ITEM: BOX BOUNDS pp pp pp
-75 75
-75 75
-75 75
ITEM: ATOMS id type xs ys zs ix iy iz 
6648 6 0.209541 0.0154166 0.98945 2 1 1 
6335 5 0.608596 0.98333 0.0517449 5 0 -2 
6443 6 0.706237 0.0480216 0.00222632 0 -1 3 
5532 6 0.931095 0.0075622 0.0305504 -5 -1 2 
5880 5 0.0716906 0.0351351 0.994167 2 1 -2 
8341 6 0.200122 0.00907918 0.0159183 0 2 -1 
5513 5 0.296178 0.0222199 0.989217 0 0 -1 
8748 6 0.217619 0.104768 0.981512 0 -1 0 
6545 6 0.188963 0.156192 0.0381865 -3 -2 1 
5553 6 0.334672 0.105947 0.00667242 1 1 -4 
6667 5 0.733173 0.127064 0.99147 -2 -5 -2 
8731 5 0.636307 0.133593 0.0332766 5 -1 4 
6956 6 0.747649 0.131591 1.00037 0 2 -5 
8845 6 0.673259 0.217442 0.0250344 -1 -2 -1 
6671 6 0.815255 0.162466 0.0659983 -2 -2 -1 
8070 5 0.0326239 0.263675 0.995646 2 0 7 
8283 5 0.284111 0.292344 0.00281734 0 3 0 
6453 6 0.392947 0.214726 0.020041 -1 2 -1 
5227 6 0.573287 0.244022 0.999482 3 -2 -3 
6350 6 0.642326 0.258547 0.992417 6 2 1 
6293 6 0.0867247 0.288906 0.0140149 0 1 -1 
6898 5 0.453409 0.360098 0.0179778 0 0 3 
5600 6 0.21106 0.299408 0.997143 5 2 4 
7685 6 0.800826 0.334226 0.0397661 1 2 2 
7472 5 0.0271051 0.393637 0.0138367 3 -3 3 
5128 5 0.458341 0.404947 0.0532809 3 -1 -4 
8007 5 0.0276135 0.399998 0.0132772 2 5 3 
8411 5 0.0994174 0.409822 0.0512013 1 3 -2 
7935 6 0.273918 0.404624 0.0135452 0 0 0 
6216 6 0.267727 0.444434 0.00603189 1 -1 0 
5239 5 0.719798 0.440475 0.970987 -1 -1 -2 
7556 5 0.22534 0.436713 0.00736905 -2 -1 -5 
6124 6 0.276792 0.482396 0.98394 1 -3 1 
5664 6 0.348201 0.46347 0.0123889 -2 3 -1 
7453 5 0.690271 0.437578 0.0317422 -5 5 2 
6436 6 0.783326 0.485394 0.00126284 -2 -1 -2 
7868 5 0.916062 0.454543 0.0240287 0 1 0 
8260 6 0.347155 0.479203 0.00696421 5 -5 -2 
7159 6 0.489695 0.522976 0.0322229 5 0 7 
5787 5 0.873337 0.532379 0.995129 -3 1 2 
8080 6 0.204535 0.493659 0.0154553 0 3 0 
7370 6 0.769457 0.521647 0.987803 -2 0 1 
5798 5 0.144662 0.495796 0.983597 -6 0 -1 
8678 5 0.671515 0.544168 0.0191134 2 0 -1 
8304 6 0.123508 0.585586 0.984093 -2 -2 -4 
8299 6 0.367527 0.548312 0.0254065 0 2 3 
8997 6 0.744761 0.544805 0.0423862 2 5 -2 
7599 5 0.908206 0.555952 0.00565567 -1 2 3 
6016 5 0.396008 0.582644 0.00647833 3 -4 5 
5628 6 0.595047 0.608643 0.0138568 4 -1 1 
5004 5 0.908355 0.571259 0.00278005 1 0 -4 
6378 6 0.238946 0.600342 0.967815 -4 -2 0 
8995 5 0.29893 0.616515 0.0481285 4 -2 -5 
6212 5 0.0268145 0.648322 0.99602 1 -2 3 
5842 6 0.773402 0.622578 0.0208038 -1 -1 -5 
5860 6 0.849358 0.660591 0.989069 2 1 2 
6851 5 0.323938 0.690064 0.0266287 2 1 1 
6531 5 0.889172 0.730684 0.0161407 -1 3 4 
6866 5 0.628492 0.727904 0.0346337 4 0 4 
5150 6 0.0218009 0.7781 0.019077 -1 -3 3 
5278 5 0.109117 0.795286 0.0342988 -1 0 4 
7858 6 0.266098 0.807164 0.00815453 0 -2 -1 
5180 6 0.391724 0.768898 0.00695087 1 1 1 
6899 5 0.57596 0.761649 0.985805 -5 -6 -1 
8952 6 0.405861 0.83466 0.00915376 2 4 0 
6812 5 0.755983 0.780616 0.998673 -1 -2 3 
8408 5 0.12399 0.828339 0.018568 1 3 1 
8086 5 0.665478 0.83758 0.0242362 -1 -3 7 
5837 5 0.123647 0.874655 0.0588037 -2 -6 2 
6038 6 0.466776 0.853952 0.0198913 3 -2 1 
7346 5 0.720146 0.869029 0.036185 -3 -3 1 
5092 5 0.78429 0.855377 0.0400912 2 -3 -1 
5275 5 0.0345499 0.905736 0.971283 0 -2 -4 
7092 5 0.0691078 0.912589 0.0224095 -2 -1 -2 
7037 5 0.153798 0.901694 0.0140468 -2 -1 0 
6439 6 0.753341 0.93275 0.0360187 -2 1 -3 
7285 5 0.842322 0.900829 0.0304594 -2 -3 4 
6969 6 0.392585 0.917591 0.0189563 3 5 3 
5509 6 0.558686 0.921677 0.00942416 -1 0 -1 
5188 5 0.242883 0.963423 0.00477885 -4 1 -4 
6675 6 0.860978 0.93061 0.0333663 -1 1 3 
7947 5 0.136106 0.954968 0.0555148 6 2 -2 
6511 6 0.411718 0.922698 0.00583474 -1 -4 0 
7252 5 0.881447 0.968692 0.0406003 -2 3 2 
5702 6 0.686919 0.000142616 0.0380551 -3 2 3 
6749 5 0.647987 0.971985 0.0104153 -1 3 5 
5389 5 0.893916 0.00310947 0.977883 -1 -1 -7 
7405 5 0.964988 0.00855006 0.0400424 -4 4 0 
5756 5 0.448186 0.986112 0.0179878 1 2 -3 
7492 5 0.154164 0.0363751 0.0381165 3 1 -3 
8741 6 0.991735 0.0419709 0.0276501 -4 -7 0 
7717 5 0.5057 0.054095 0.0544765 0 1 -1 
7794 6 0.728661 0.107508 0.0747272 -1 -5 6 
5058 5 0.813941 0.0973078 0.0275577 1 1 -4 
8605 6 0.0359597 0.0718615 0.0530275 5 0 1 
7376 5 0.62925 0.109638 0.991352 -3 -4 -1 
8193 6 0.514913 0.102982 0.999431 -5 1 -1 
5975 6 0.0273153 0.111875 0.0300208 3 0 1 
6342 5 0.225391 0.122393 0.0748453 -1 -2 5 
5224 5 0.707057 0.193377 0.0164814 0 3 -3 
8084 5 0.960114 0.210919 0.0478763 -6 1 3 
5367 6 0.955282 0.184371 0.0423413 -1 -2 0 
7235 5 0.292466 0.250025 0.0344321 -1 1 0 
8614 5 0.957322 0.225225 0.0413135 4 -1 -9 
7217 6 0.305138 0.285521 0.0668308 4 4 2 
7757 6 0.799178 0.276501 0.0313116 2 -1 0 
8220 6 0.072855 0.300355 0.0491795 0 0 -2 
7301 5 0.448988 0.303293 0.00369094 1 3 2 
6800 5 0.710461 0.316645 0.0554085 -1 0 -1 
5176 5 0.0406177 0.29705 0.00646559 -4 -2 2 
8569 6 0.05434 0.333545 0.0543702 -6 2 2 
7581 6 0.918676 0.319712 0.0523561 0 -3 8 
8853 6 0.889013 0.354284 0.0335863 -1 -2 -2 
7766 6 0.82011 0.395329 0.0607935 -2 1 -1 
8697 5 0.0375006 0.374506 0.0235289 3 6 6 
7123 6 0.240809 0.41658 0.0881574 0 0 -2 
6929 5 0.500995 0.450177 0.0126643 0 1 0 
6900 6 0.27288 0.454366 0.0116797 1 -3 6 
6144 6 0.0788183 0.455533 0.0656967 1 2 -1 
5097 6 0.344778 0.479748 0.0443007 8 -1 -4 
6246 6 0.673039 0.475156 0.0365086 0 4 4 
8927 6 0.785445 0.473664 0.0266807 2 0 -3 
6052 6 0.00370121 0.490843 0.0177941 6 -6 -2 
5849 6 0.999366 0.468443 0.0436711 -1 -2 1 
5080 6 0.158529 0.485764 0.0253615 1 -3 -1 
8450 5 0.835363 0.475698 0.048826 0 2 3 
7628 5 0.863583 0.471559 0.0507263 4 -1 -2 
6214 6 0.842691 0.464866 0.0519254 1 -4 -1 
7986 6 0.460476 0.523744 0.992367 -6 -4 2 
5958 5 0.595863 0.542648 0.0112909 -2 -4 -2 
5338 6 0.731957 0.540592 0.0356221 5 2 2 
7693 6 0.788154 0.5529 0.00909929 1 4 3 
8022 6 0.123077 0.600437 0.0198219 0 -2 -3 
5654 5 0.237741 0.591648 0.0112207 1 4 3 
8758 5 0.458352 0.557408 0.054456 2 1 -3 
6778 6 0.032627 0.623603 0.0650621 3 -1 4 
5935 5 0.505804 0.586697 0.0289331 -1 1 -1 
6391 5 0.0456323 0.614534 0.0400212 1 -4 -1 
8293 5 0.309641 0.623157 0.0291934 -3 0 2 
7459 6 0.456046 0.630685 0.0202436 1 1 0 
7127 6 0.586563 0.629738 0.0557978 -1 -2 0 
7943 6 0.610744 0.62873 0.0105464 3 0 0 
8382 6 0.441214 0.659302 0.022358 -2 -2 1 
6003 5 0.480678 0.638537 0.0111318 -6 -3 -1 
5119 6 0.528397 0.647252 0.040398 0 1 2 
6635 5 0.850363 0.651382 0.074707 1 -1 -4 
6538 5 0.534096 0.682705 0.0826331 2 1 1 
8502 5 0.697015 0.685946 0.0133891 0 -5 0 
5401 6 0.410526 0.715815 0.0290956 0 -1 3 
7537 6 0.424388 0.684578 0.0429873 -2 -5 0 
5354 6 0.74345 0.701634 0.0310512 2 -2 5 
8556 5 0.143608 0.750895 0.0482236 4 -3 -2 
8584 6 0.560924 0.731352 0.0700135 -5 1 3 
7199 5 0.163673 0.781518 0.0168999 -6 3 -3 
6713 5 0.995881 0.771376 0.0560173 -1 1 -4 
8532 6 0.0945978 0.824058 0.00712955 2 1 4 
7875 6 0.689007 0.801836 0.0289936 1 -2 3 
5636 6 0.0602032 0.808855 0.0268286 7 3 -3 
6572 5 0.298778 0.832643 0.0320071 8 -1 4 
5453 6 0.395694 0.850215 0.00250873 2 3 -6 
6787 5 0.0599885 0.858593 0.00833307 0 0 -3 
6419 6 0.211883 0.879391 0.0720847 -5 -3 1 
8798 5 0.00117345 0.904431 0.00337398 6 -1 1 
5439 6 0.667001 0.892373 0.0351108 1 2 6 
5932 5 0.82282 0.892552 0.0391101 2 5 3 
5477 5 0.44855 0.930911 0.0362747 2 1 -1 
7287 5 0.563963 0.962164 0.0302896 1 -2 4 
8339 6 0.271545 0.983089 0.0523615 4 -3 1 
8296 5 0.652171 0.950489 0.0135567 -3 2 1 
5076 6 0.103425 0.956012 0.0288299 -4 0 -2 
6467 5 0.232057 0.0153301 0.0487489 -2 1 8 
6973 6 0.550046 0.0165712 0.0539154 -1 3 -1 
7308 5 0.479039 0.0568012 0.0617472 2 0 7 
8672 5 0.658977 0.0629668 0.0314535 -3 2 -2 
6258 6 0.836529 0.0582854 0.0352195 2 -2 -2 
6834 6 0.320515 0.0766461 0.0956783 2 -1 1 
5378 6 0.775641 0.0946889 0.0666526 4 -1 1 
5576 6 0.283512 0.106331 0.0606814 -1 2 1 
7838 5 0.748062 0.0768061 0.066999 3 2 -3 
6011 5 0.970401 0.0686227 0.0431675 1 0 2 
6791 5 0.328909 0.0908445 0.0719529 -2 0 2 
7915 6 0.618825 0.12305 0.0615319 0 1 3 
6066 6 0.231811 0.152092 0.0925558 0 -1 -1 
8264 6 0.265319 0.161712 0.0594139 -2 -2 4 
5709 6 0.805985 0.156175 0.0715317 1 3 -1 
8707 6 0.357047 0.188326 0.0140883 -2 6 0 
8403 5 0.175041 0.218376 0.03947 0 0 1 
5896 5 0.587328 0.165204 0.0753929 -1 10 3 
6571 5 0.903506 0.200335 0.0272202 2 -2 6 
7204 6 0.135133 0.215417 0.0617717 -5 3 1 
6448 5 0.983329 0.191359 0.0340019 -3 -2 -1 
8760 6 0.541717 0.237195 0.0433697 1 5 3 
6493 6 0.412154 0.283729 0.0553407 2 2 -2 
5514 5 0.0925968 0.337248 0.0516303 5 -1 1 
5065 6 0.211126 0.360719 0.0501255 -2 2 2 
7609 5 0.264853 0.35926 0.066851 -5 1 3 
8956 5 0.90799 0.364006 0.045167 -1 2 0 
7765 5 0.231582 0.289735 0.0244352 5 1 3 
6409 5 0.605236 0.3469 0.05074 -3 -5 4 
5103 5 0.0257158 0.376631 0.02942 2 1 -2 
6507 6 0.0160805 0.383321 0.0724706 -3 3 1 
8495 5 0.194058 0.368616 0.0454166 1 1 5 
5963 5 0.290576 0.373996 0.077952 -2 1 -6 
6783 5 0.336408 0.379727 0.0761401 0 1 -3 
6743 6 0.37855 0.387767 0.0658584 1 7 2 
5667 5 0.502304 0.367273 0.0499179 -3 1 3 
8338 5 0.57103 0.364294 0.0508652 3 -3 3 
6254 5 0.136562 0.409439 0.0572293 -5 -1 -3 
8152 5 0.264481 0.422805 0.0723213 0 -3 -1 
6061 6 0.378428 0.448533 0.0853722 -2 -2 2 
8110 5 0.992313 0.424029 0.0567452 -2 -6 -1 
6430 5 0.0231579 0.48591 0.0124984 -3 1 6 
6336 5 0.127238 0.43495 0.051969 -3 1 5 
7146 5 0.0725777 0.426923 0.0302056 1 -2 -2 
5148 6 0.868185 0.441144 0.0970846 3 -2 0 
5266 5 0.233604 0.514685 0.0505857 -1 -1 1 
7144 5 0.430835 0.524906 0.111572 -5 -1 1 
5660 6 0.507761 0.528678 0.0564137 3 0 7 
7952 5 0.772819 0.549737 0.0298952 2 -1 -1 
8124 6 0.726032 0.538067 0.044217 -1 -1 4 
8358 5 0.152349 0.622761 0.0580357 0 -5 -1 
8854 6 0.946625 0.573495 0.0623185 -1 -1 -3 
7496 5 0.929192 0.560515 0.0463972 -1 0 1 
8917 5 0.0827478 0.627091 0.00957288 -2 -1 -3 
6823 5 0.44593 0.613084 0.0427617 -1 -9 3 
7229 6 0.10559 0.651868 0.0396566 2 1 -6 
8894 5 0.913237 0.656984 0.033406 -1 6 2 
7895 5 0.271756 0.677995 0.0521449 4 1 2 
7596 5 0.423006 0.649619 0.0711287 1 -1 2 
7675 5 0.709848 0.66623 0.0479137 -2 2 0 
5315 6 0.294788 0.671532 0.0150792 1 -1 1 
6386 6 0.787843 0.70631 0.0552028 -1 0 -3 
8412 6 0.43411 0.714829 0.0285376 -2 -4 2 
5221 6 0.540982 0.747477 0.0360943 0 1 2 
6325 6 0.193035 0.725252 0.0719389 2 5 -1 
5100 5 0.243436 0.781425 0.0565953 0 -9 0 
8836 5 0.688307 0.754165 0.0668649 -1 -4 0 
6209 6 0.993432 0.692011 0.0556453 -5 2 -2 
5659 5 0.499057 0.742137 0.0260484 1 3 1 
6731 6 0.615866 0.732505 0.054599 -4 4 2 
8558 6 0.344816 0.778842 0.0825124 1 6 4 
5380 5 0.707192 0.798111 0.0542014 0 -1 1 
6060 6 0.646 0.808774 0.0658989 2 3 -3 
7750 6 0.123392 0.818253 0.0426643 1 4 3 
8181 6 0.220301 0.821199 0.0452616 2 1 2 
7643 6 0.274862 0.856488 0.0474766 0 -6 3 
6480 6 0.0575391 0.816028 0.103456 0 2 2 
7373 6 0.15749 0.848533 0.0514439 -3 0 0 
8406 6 0.45592 0.859398 0.0424479 2 -4 -2 
8055 6 0.492128 0.888904 0.0443154 2 4 5 
8008 6 0.658794 0.874999 0.0427914 4 -4 3 
6222 5 0.570656 0.899981 0.0640801 3 -4 2 
7410 5 0.143714 0.958036 0.0696936 3 0 2 
5936 6 0.79229 0.964328 0.0766102 4 -2 -4 
7721 5 0.0952356 0.0148058 0.0683822 -3 -4 0 
6942 6 0.139544 0.0201339 0.040636 0 2 1 
7284 5 0.0275572 0.0236915 0.0597278 -2 5 2 
7616 6 0.154891 0.027897 0.0754763 0 5 -1 
7310 5 0.325214 0.996528 0.0747135 -4 3 2 
6202 6 0.284061 0.0334774 0.0654263 1 1 4 
8282 6 0.447272 0.0815797 0.0595418 -5 0 3 
7936 5 0.455839 0.07163 0.0776615 -4 3 -1 
7800 6 0.881937 0.0373866 0.094821 5 4 -1 
8123 5 0.0195739 0.0490055 0.113367 0 8 -3 
6316 5 0.550077 0.0080732 0.0871585 -2 2 3 
8661 6 0.812148 0.0811314 0.106422 4 3 1 
8839 6 0.392796 0.107874 0.100344 1 0 2 
6106 6 0.678012 0.124486 0.0421918 -5 1 -3 
6058 5 0.696285 0.138502 0.0641478 -2 6 0 
8191 6 0.0988029 0.191642 0.104271 -6 1 4 
8020 5 0.141595 0.217862 0.0596146 -1 1 2 
5816 5 0.818872 0.231073 0.0643241 0 0 4 
7913 6 0.0845829 0.244664 0.099976 7 1 0 
5202 5 0.671568 0.229761 0.0806283 1 3 -4 
8947 6 0.686438 0.253011 0.107843 0 2 2 
8114 6 0.825026 0.245134 0.0743365 1 2 4 
7549 6 0.525106 0.266825 0.0723709 -3 0 4 
5259 6 0.351023 0.302415 0.0747178 -3 -1 0 
7508 6 0.594801 0.309196 0.0562994 2 -1 2 
5018 6 0.997528 0.316294 0.069262 -10 3 -3 
7567 5 0.868914 0.320258 0.0807369 -2 2 0 
5026 6 0.265886 0.333187 0.103295 -1 0 1 
6447 6 0.41422 0.31417 0.0850907 0 -2 -1 
6207 5 0.859071 0.334664 0.0835369 6 0 2 
8262 6 0.291998 0.364438 0.0821667 -5 5 -1 
5743 5 0.283337 0.384365 0.103628 -3 -3 1 
8881 5 0.549605 0.348864 0.0752847 -5 1 -1 
8208 6 0.813489 0.384159 0.116859 -2 0 3 
2535 1 0.429154 0.406646 0.095081 0 0 0 
2534 1 0.432059 0.404032 0.0903369 0 0 0 
2532 1 0.439404 0.404795 0.0920954 0 0 0 
8367 6 0.853695 0.356078 0.0670304 4 2 -1 
6955 6 0.892306 0.445786 0.0683199 3 -7 -2 
5241 6 0.425363 0.410165 0.048779 3 -3 3 
2533 1 0.43523 0.40948 0.090878 0 0 0 
2531 1 0.442057 0.410531 0.0933563 0 0 0 
8984 5 0.55314 0.408538 0.051657 2 -8 2 
8446 6 0.740309 0.435368 0.0631415 2 0 2 
7039 5 0.898824 0.469156 0.0955577 -3 4 0 
7390 6 0.0774259 0.438573 0.043656 -2 -1 -2 
5182 6 0.116306 0.474886 0.0829749 2 -2 -1 
6499 5 0.708962 0.496732 0.072441 -3 -2 1 
7477 6 0.915627 0.494468 0.095492 2 -1 3 
6505 6 0.05687 0.519529 0.0769252 0 -4 4 
8570 5 0.609227 0.499298 0.0609781 -1 0 1 
8480 6 0.928402 0.509034 0.0777223 -7 4 -3 
5410 6 0.060839 0.509471 0.0644052 2 -1 -1 
5400 6 0.795676 0.521379 0.0758404 5 0 3 
7428 6 0.390444 0.573053 0.0954162 3 -4 0 
7831 6 0.269661 0.57941 0.0964885 -2 -4 -1 
6206 5 0.920759 0.593874 0.099381 2 -7 0 
8679 5 0.977307 0.60769 0.113242 0 0 3 
6637 6 0.330078 0.644448 0.0485501 -5 0 0 
6820 5 0.489141 0.62607 0.0566612 3 -2 4 
5552 6 0.0323298 0.633794 0.0673439 -3 1 2 
5839 6 0.1879 0.631189 0.0868385 -2 -3 -3 
5238 6 0.43554 0.666589 0.0645362 -2 -5 -3 
6939 6 0.846702 0.634476 0.0857099 1 3 -3 
8872 5 0.774885 0.673819 0.0827103 1 -3 2 
6896 6 0.10651 0.704175 0.0771204 -4 -4 1 
6640 6 0.0121986 0.737805 0.0715445 -5 -3 2 
8535 6 0.536489 0.746456 0.0747619 -2 -1 2 
5526 5 0.642142 0.773916 0.055581 -4 0 1 
5032 5 0.828545 0.711637 0.0619228 0 0 3 
5350 5 0.216049 0.81117 0.0683396 -3 0 1 
8972 6 0.20485 0.762986 0.0261528 -4 6 -1 
6123 6 0.26416 0.766386 0.0932264 0 2 2 
6752 6 0.510429 0.785177 0.0834473 1 1 1 
7931 5 0.337179 0.826711 0.0613308 -1 2 -1 
8192 6 0.422034 0.817053 0.0843117 -1 6 -1 
7959 5 0.830846 0.782831 0.0850199 4 -2 -1 
8803 6 0.920565 0.80293 0.0133792 -1 2 -3 
8577 6 0.645251 0.79207 0.0662064 -3 -3 0 
6095 6 0.881119 0.82516 0.0813768 -3 -2 -6 
6287 5 0.919538 0.820678 0.083971 -7 -7 2 
7788 5 0.203116 0.865169 0.0674844 1 2 5 
8619 6 0.528188 0.809895 0.057208 1 2 1 
8093 5 0.586385 0.824199 0.092139 -5 2 -5 
8060 5 0.934642 0.831687 0.105399 -1 0 -1 
5229 5 0.028835 0.878504 0.0894927 -1 -2 -1 
8591 6 0.491818 0.863863 0.10101 0 3 2 
8485 5 0.603148 0.873299 0.0750323 -4 0 3 
5463 5 0.604212 0.906331 0.0647826 1 -1 1 
6219 5 0.628868 0.87114 0.0742014 2 1 5 
5579 6 0.77055 0.897079 0.108537 -1 0 -2 
6018 6 0.311206 0.971744 0.0669845 2 -5 5 
7865 6 0.683968 0.963484 0.0566243 5 2 2 
6249 6 0.209226 0.958372 0.104894 -4 -2 -2 
8517 6 0.288226 0.940857 0.085526 7 -2 5 
8608 6 0.451887 0.961994 0.107801 -4 -2 -2 
7976 6 0.456451 0.992687 0.114499 -8 0 3 
7692 5 0.499126 0.981597 0.0583459 -4 5 -2 
6958 5 0.596808 0.958997 0.0929445 3 -1 2 
8735 5 0.246815 0.976711 0.0847329 5 0 -1 
7633 5 0.540237 0.00777444 0.1003 -1 0 2 
8275 6 0.64522 0.0400939 0.104305 -5 1 -3 
8787 6 0.831728 0.0188806 0.0647493 2 -1 3 
5014 5 0.86687 0.00631971 0.102385 2 4 0 
8029 5 0.111167 0.0592024 0.111444 -6 -2 2 
6489 5 0.803427 0.0457998 0.104111 -2 -4 4 
7782 5 0.933007 0.0661068 0.0884807 5 0 0 
8471 6 0.323749 0.0899943 0.11965 1 3 2 
8422 6 0.818594 0.151404 0.0940154 -1 -1 -1 
6231 6 0.997245 0.161731 0.119929 0 0 3 
5142 6 0.871158 0.174226 0.0955668 -3 7 1 
5995 6 0.680441 0.234689 0.118687 -1 3 -1 
7005 6 0.231197 0.283622 0.124777 -3 4 -3 
6941 6 0.3967 0.292864 0.135147 -1 -4 4 
6372 5 0.492237 0.277477 0.0999422 -1 1 -3 
7270 6 0.489794 0.256799 0.140479 1 -6 3 
5441 5 0.170567 0.294984 0.117703 6 3 4 
8638 6 0.550323 0.309618 0.104966 -1 2 6 
6844 5 0.986527 0.301043 0.101292 -1 1 -1 
7212 5 0.449899 0.328998 0.0914535 -3 1 4 
7359 6 0.88163 0.290402 0.0796241 -3 1 -1 
2545 1 0.443293 0.376799 0.0938821 0 0 0 
2546 1 0.449339 0.376932 0.0924234 0 0 0 
2547 1 0.448833 0.378346 0.0987282 0 0 0 
2550 1 0.457554 0.374544 0.104314 0 0 0 
2544 1 0.445159 0.382714 0.09252 0 0 0 
2552 1 0.457183 0.368321 0.108389 0 0 0 
2548 1 0.454512 0.376002 0.0975271 0 0 0 
2549 1 0.451947 0.371916 0.101529 0 0 0 
5754 6 0.475085 0.370575 0.119556 -1 -4 0 
8228 5 0.505444 0.399476 0.0852699 -1 0 4 
6449 5 0.667384 0.361717 0.0937513 1 0 3 
2539 1 0.434243 0.396448 0.099842 0 0 0 
2536 1 0.425744 0.401013 0.0935115 0 0 0 
2538 1 0.429444 0.395254 0.0960314 0 0 0 
2537 1 0.428426 0.400557 0.0993712 0 0 0 
2541 1 0.43631 0.388841 0.0985402 0 0 0 
2543 1 0.441431 0.382674 0.0973974 0 0 0 
2542 1 0.440035 0.387562 0.0933672 0 0 0 
2540 1 0.436068 0.393604 0.0941488 0 0 0 
2551 1 0.452953 0.373884 0.108642 0 0 0 
7143 5 0.435136 0.404145 0.0988673 -4 4 3 
2525 1 0.430628 0.412532 0.111337 0 0 0 
2530 1 0.442966 0.407235 0.098505 0 0 0 
2529 1 0.437674 0.411101 0.0990148 0 0 0 
2528 1 0.440249 0.409013 0.104681 0 0 0 
2527 1 0.434214 0.408908 0.104939 0 0 0 
2526 1 0.437254 0.411387 0.110844 0 0 0 
2524 1 0.433932 0.417551 0.108938 0 0 0 
2523 1 0.431938 0.418926 0.114889 0 0 0 
2500 1 0.455095 0.413629 0.108083 0 0 0 
2522 1 0.430386 0.423455 0.110618 0 0 0 
2501 1 0.455682 0.410742 0.113588 0 0 0 
2499 1 0.459487 0.417487 0.110876 0 0 0 
2498 1 0.461693 0.415904 0.105014 0 0 0 
2493 1 0.47609 0.425516 0.105978 0 0 0 
2492 1 0.470185 0.426889 0.108364 0 0 0 
2491 1 0.473929 0.432114 0.10812 0 0 0 
2496 1 0.466679 0.421127 0.106915 0 0 0 
2497 1 0.466528 0.41519 0.109547 0 0 0 
6283 5 0.585671 0.387946 0.105905 -1 0 0 
7473 6 0.600242 0.438359 0.0927653 5 3 -1 
6008 6 0.765452 0.41637 0.132466 2 -3 5 
5767 6 0.805255 0.408143 0.100688 0 0 -1 
8009 6 0.817966 0.452564 0.0909986 -1 2 2 
5606 5 0.0310287 0.460808 0.094621 -4 -2 3 
2490 1 0.468399 0.434467 0.110786 0 0 0 
2489 1 0.472641 0.43462 0.11496 0 0 0 
8081 6 0.949417 0.489552 0.115227 -4 7 8 
7241 5 0.569787 0.475334 0.104647 0 -2 -1 
7470 5 0.719897 0.480234 0.117522 -2 0 1 
7978 6 0.194724 0.481708 0.128162 1 -1 -3 
8521 6 0.333797 0.514874 0.0971943 -5 -3 0 
6315 6 0.58069 0.461403 0.119892 -2 0 -3 
5581 6 0.626544 0.475612 0.0875904 -2 -1 2 
5762 6 0.552557 0.52796 0.0991387 -2 3 3 
8630 5 0.684411 0.568832 0.0811189 -1 -2 -3 
5562 5 0.0487851 0.572822 0.07758 0 4 -2 
8154 6 0.579578 0.550604 0.108945 1 6 -2 
8895 6 0.62839 0.59523 0.0817339 -1 -3 2 
5250 6 0.897865 0.593632 0.0847178 -1 0 1 
8069 6 0.801867 0.567202 0.130671 -4 -4 -3 
7529 6 0.000292916 0.635764 0.0853803 3 -5 6 
6723 6 0.0711186 0.586225 0.0838854 0 2 4 
8261 6 0.373557 0.604611 0.0593365 1 4 4 
8996 5 0.663725 0.612744 0.0930265 -4 -2 8 
7139 5 0.764405 0.590088 0.0680324 0 3 1 
5203 6 0.901186 0.601475 0.104527 -2 -7 0 
5129 6 0.383064 0.635934 0.0818874 1 0 3 
5674 5 0.186972 0.625977 0.0999338 -4 2 -1 
5243 6 0.747227 0.648988 0.131055 2 -3 -1 
5304 6 0.787332 0.625793 0.0720792 0 1 -2 
8161 5 0.967126 0.64402 0.12457 1 4 1 
5074 5 0.715849 0.685787 0.106366 -1 -4 5 
6730 6 0.848314 0.688463 0.107434 3 -2 6 
7687 5 0.891615 0.690291 0.105129 -1 2 4 
7289 6 0.487131 0.720499 0.0856607 -8 0 5 
5413 5 0.76167 0.699747 0.111074 -3 -1 -1 
6722 6 0.387414 0.763766 0.0789253 2 2 2 
5873 6 0.481513 0.76885 0.0945196 -1 1 -6 
8875 5 0.743476 0.766136 0.112554 4 -1 3 
7292 6 0.0610178 0.799368 0.0980853 3 -1 2 
5931 6 0.18884 0.771111 0.0985274 0 1 -2 
8134 6 0.708782 0.78697 0.0645646 -1 -2 -2 
6376 6 0.833416 0.772395 0.111165 2 -6 -3 
8933 5 0.859138 0.779512 0.0902896 1 -4 -3 
6166 6 0.276329 0.780287 0.0977518 -1 3 2 
5364 5 0.851838 0.819964 0.0952444 1 0 3 
8163 5 0.849046 0.821667 0.12647 -3 0 -1 
5852 5 0.301534 0.844959 0.0815926 2 2 2 
6440 5 0.0366081 0.833642 0.0925503 -2 2 0 
5189 6 0.738217 0.860723 0.159976 -4 1 4 
7232 6 0.990023 0.877233 0.0939759 -3 1 3 
8379 6 0.804795 0.882594 0.0631215 -1 4 6 
5631 6 0.912539 0.918919 0.0956101 2 0 2 
8216 6 0.957933 0.868571 0.123942 -3 1 3 
6442 5 0.637834 0.87306 0.0786384 -1 0 1 
8675 6 0.107788 0.933303 0.0733094 3 0 0 
5095 5 0.683078 0.938721 0.0678945 -1 0 0 
8713 6 0.0110359 0.954814 0.121772 -1 -1 -1 
7435 5 0.076656 0.958487 0.118751 3 3 -5 
7155 5 0.430785 0.943787 0.109242 -3 -1 3 
7286 6 0.340098 0.952601 0.130211 -2 3 3 
7227 6 0.499627 0.01568 0.115997 -2 -2 2 
7667 5 0.96921 0.997879 0.0907022 2 1 2 
6152 5 0.102626 0.0121343 0.094182 -1 8 4 
6909 6 0.672252 0.0242702 0.190888 3 -2 -2 
7128 6 0.880836 0.990553 0.112529 3 -4 4 
8924 6 0.46646 0.0512215 0.118262 1 -1 2 
8350 6 0.707635 0.0393505 0.115165 5 0 -2 
8719 5 0.828995 0.971169 0.10337 1 0 3 
5960 5 0.235908 0.052104 0.109693 2 0 1 
7409 6 0.458619 0.0677875 0.139209 -1 -3 -2 
8784 6 0.0662907 0.0989847 0.131198 1 2 -2 
8926 5 0.292789 0.108537 0.122243 0 0 0 
8688 6 0.416954 0.0859124 0.0946615 0 -2 5 
7969 6 0.0641958 0.071732 0.111846 1 -2 2 
6463 5 0.733102 0.123467 0.119044 2 -3 -3 
5107 6 0.814899 0.113998 0.134035 2 0 -5 
5088 6 0.84145 0.134868 0.126231 0 -1 4 
6267 5 0.271314 0.152152 0.128827 -1 0 1 
6757 5 0.352425 0.195246 0.1153 2 -4 0 
6875 6 0.756543 0.184238 0.105987 4 -4 0 
5943 5 0.998693 0.168626 0.139689 1 1 3 
6017 6 0.327187 0.192254 0.117033 3 3 -5 
5452 5 0.4115 0.191676 0.113476 -3 7 2 
5905 5 0.242384 0.183108 0.106847 -1 0 -5 
7403 5 0.846155 0.150327 0.117964 -2 0 5 
6919 6 0.737624 0.22179 0.15165 2 -2 1 
6393 5 0.990858 0.278472 0.149093 0 -4 1 
7850 5 0.0992542 0.25074 0.133187 4 4 -2 
6281 5 0.503679 0.265705 0.169087 4 -2 -2 
6187 5 0.624559 0.262192 0.12138 2 3 -2 
8178 5 0.136322 0.304812 0.145313 3 -1 -3 
5840 6 0.620209 0.288326 0.119915 -1 1 -5 
6408 5 0.166812 0.328705 0.094277 -2 0 0 
7354 6 0.34753 0.371485 0.152753 -1 -4 -2 
2559 1 0.445807 0.364639 0.131131 0 0 0 
2558 1 0.443753 0.363605 0.125273 0 0 0 
2554 1 0.45314 0.365975 0.114442 0 0 0 
2556 1 0.447795 0.36604 0.119523 0 0 0 
2557 1 0.450026 0.363627 0.125182 0 0 0 
2555 1 0.453784 0.367061 0.120673 0 0 0 
2560 1 0.442144 0.369895 0.12943 0 0 0 
2561 1 0.44119 0.369066 0.135351 0 0 0 
7651 6 0.562525 0.384782 0.127527 3 -2 1 
8620 5 0.62781 0.349856 0.134326 2 0 -8 
6892 6 0.108254 0.360855 0.137785 -2 6 -2 
5468 5 0.224654 0.392115 0.0802644 -6 0 3 
6685 6 0.385925 0.366192 0.114776 2 2 -1 
2508 1 0.437741 0.404887 0.127022 0 0 0 
2507 1 0.440714 0.408216 0.122692 0 0 0 
2553 1 0.45668 0.370924 0.11446 0 0 0 
2506 1 0.445152 0.403839 0.124232 0 0 0 
8211 5 0.105755 0.464676 0.120528 2 1 7 
2511 1 0.427379 0.408508 0.121668 0 0 0 
2513 1 0.427204 0.413974 0.127712 0 0 0 
8202 5 0.42493 0.420008 0.112928 1 -3 -2 
2517 1 0.431136 0.421575 0.124928 0 0 0 
2516 1 0.435082 0.421746 0.129948 0 0 0 
8011 5 0.425186 0.409182 0.113966 0 0 1 
2515 1 0.429319 0.419771 0.132477 0 0 0 
2520 1 0.432468 0.425032 0.117648 0 0 0 
2509 1 0.43402 0.404621 0.121495 0 0 0 
2518 1 0.435289 0.426493 0.124321 0 0 0 
2521 1 0.436806 0.423948 0.112695 0 0 0 
2504 1 0.446322 0.408524 0.118687 0 0 0 
2519 1 0.43647 0.420892 0.120528 0 0 0 
2510 1 0.430704 0.406145 0.126219 0 0 0 
2505 1 0.448171 0.409295 0.124813 0 0 0 
2502 1 0.449112 0.412367 0.113033 0 0 0 
2503 1 0.452009 0.411518 0.118981 0 0 0 
2514 1 0.433042 0.414564 0.130425 0 0 0 
2512 1 0.4318 0.41345 0.123002 0 0 0 
2494 1 0.471879 0.422346 0.102194 0 0 0 
2495 1 0.472616 0.419327 0.10801 0 0 0 
2485 1 0.467555 0.445164 0.123314 0 0 0 
2483 1 0.462222 0.449464 0.126417 0 0 0 
2487 1 0.471899 0.439778 0.119889 0 0 0 
2486 1 0.465797 0.441541 0.118337 0 0 0 
2484 1 0.461687 0.443146 0.124656 0 0 0 
2488 1 0.471488 0.440759 0.113432 0 0 0 
2482 1 0.458325 0.445621 0.130251 0 0 0 
2480 1 0.461222 0.44752 0.13721 0 0 0 
2478 1 0.465121 0.450763 0.143506 0 0 0 
5070 5 0.472429 0.452566 0.146126 -2 5 -1 
6710 6 0.510192 0.430549 0.119478 -2 -1 1 
8143 5 0.526147 0.485282 0.13133 2 3 2 
2475 1 0.468784 0.459513 0.147931 0 0 0 
2481 1 0.458336 0.451441 0.133245 0 0 0 
2479 1 0.461226 0.453474 0.13931 0 0 0 
2476 1 0.466702 0.457672 0.142104 0 0 0 
2474 1 0.469546 0.464935 0.143474 0 0 0 
2473 1 0.475155 0.461687 0.145038 0 0 0 
5739 5 0.873935 0.508607 0.146524 -6 -1 -5 
5351 6 0.23001 0.514041 0.125331 0 0 4 
5126 6 0.505058 0.535931 0.123725 -3 -2 2 
5114 6 0.740875 0.484512 0.135714 -2 0 4 
7709 5 0.782486 0.55323 0.153483 -1 3 0 
7394 6 0.981896 0.566027 0.109525 -1 0 4 
8311 6 0.113125 0.564165 0.156399 3 -2 4 
7207 5 0.067446 0.588109 0.115788 -3 -2 0 
8797 6 0.329597 0.58562 0.103729 -1 -6 2 
6365 6 0.406662 0.582053 0.0893468 4 2 -1 
8375 6 0.797687 0.593607 0.126397 1 -6 -6 
5989 6 0.226885 0.65894 0.15722 -3 3 3 
7734 6 0.309981 0.649864 0.0950582 1 0 0 
7501 6 0.578234 0.662506 0.133916 4 1 -4 
8879 5 0.115434 0.694311 0.11482 2 0 3 
6799 5 0.144296 0.676142 0.151472 -2 3 1 
7744 5 0.809982 0.663942 0.144729 0 3 4 
8903 5 0.0515237 0.678022 0.136948 0 3 -2 
8254 5 0.801987 0.711235 0.0951304 2 1 -3 
6363 5 0.0294729 0.698571 0.142573 1 -2 0 
5601 6 0.0525006 0.708754 0.146134 4 0 -1 
8597 5 0.110905 0.690805 0.146909 -1 3 2 
7148 5 0.34099 0.665 0.113785 0 2 2 
7162 6 0.382419 0.702194 0.0983177 3 -4 2 
6203 5 0.261104 0.747433 0.132617 0 -3 5 
8057 6 0.273867 0.733507 0.147142 -1 5 -1 
7438 6 0.124232 0.751179 0.130372 6 -1 3 
7763 6 0.579786 0.749357 0.136012 2 3 3 
5456 5 0.943846 0.727464 0.124203 0 -1 1 
8606 6 0.532689 0.779719 0.128076 0 -2 -4 
7043 5 0.976363 0.767821 0.13905 -1 -1 -5 
5946 5 0.089723 0.849933 0.133772 2 1 3 
5384 5 0.568796 0.832737 0.160746 -2 1 3 
5057 6 0.240875 0.828178 0.130675 1 2 1 
8510 6 0.606216 0.801095 0.124309 -1 0 -2 
7710 6 0.822438 0.87567 0.148557 3 -3 -2 
5368 5 0.362865 0.867742 0.113932 -6 -1 -1 
6735 6 0.7459 0.850401 0.136147 1 -1 3 
6197 6 0.70853 0.855386 0.135113 -1 0 5 
8420 5 0.771492 0.875694 0.111766 -1 -3 5 
5693 6 0.988773 0.927799 0.139247 -3 -3 4 
6037 6 0.134279 0.90724 0.111357 -3 1 3 
5556 6 0.679834 0.91315 0.153124 -2 1 -7 
8017 5 0.243238 0.948567 0.132601 1 -5 1 
7071 6 0.39695 0.9655 0.104997 -2 -2 0 
5677 6 0.423856 0.929407 0.10264 0 -5 -1 
8463 6 0.560332 0.949033 0.182939 3 0 -4 
7907 5 0.76065 0.958437 0.130541 -1 3 1 
8590 5 0.321243 0.93365 0.167182 -2 -3 -3 
8447 6 0.0191563 0.0332827 0.157155 -1 0 1 
5722 5 0.416405 0.0075902 0.147947 3 2 4 
6282 6 0.445573 0.00832592 0.125655 1 2 -1 
5183 5 0.535077 0.036115 0.0842576 -4 -1 3 
8628 6 0.682907 -0.000346093 0.133639 -1 2 6 
5864 5 0.877253 0.0397578 0.12686 2 1 -1 
6512 5 0.44574 0.0332837 0.159097 1 1 0 
5778 5 0.527105 0.999392 0.151685 3 -4 2 
8613 5 0.894443 0.0148343 0.144256 1 6 -3 
5645 5 0.236418 0.0631996 0.129819 -3 0 5 
8726 6 0.796234 0.100143 0.12516 1 1 1 
5567 5 0.956196 0.0651112 0.165428 -2 5 2 
7170 6 0.317741 0.0800873 0.134777 3 5 4 
8864 6 0.497139 0.069939 0.149447 -3 4 0 
8482 5 0.46109 0.0387538 0.124026 -1 1 -2 
7188 6 0.983159 0.0559322 0.152317 -4 -3 -4 
7586 5 0.321569 0.0988349 0.160591 4 1 -4 
7799 5 0.369983 0.140503 0.157704 -1 -1 0 
5358 5 0.340159 0.0851714 0.174748 3 2 -3 
6395 5 0.556216 0.088603 0.118382 -4 5 1 
5319 6 0.631483 0.125536 0.11402 1 2 4 
7612 6 0.396064 0.120576 0.149266 0 5 -2 
6148 6 0.436936 0.0810236 0.156752 -2 -1 -4 
5329 5 0.704244 0.123327 0.134383 1 0 -5 
7382 5 0.288228 0.134477 0.178879 -3 2 -1 
8125 6 0.268843 0.127642 0.17122 -1 4 -3 
7364 6 0.664709 0.153856 0.149073 -3 -1 1 
7906 6 0.768092 0.149251 0.150597 5 -1 2 
7016 5 0.25427 0.231465 0.164487 -4 -2 -3 
7724 6 0.528833 0.197638 0.124635 -7 0 3 
8710 6 0.181439 0.2388 0.135957 6 3 -5 
8921 6 0.540964 0.183016 0.164472 2 1 0 
7511 6 0.751812 0.17755 0.142156 4 0 -1 
7988 5 0.795818 0.21608 0.130834 0 -5 -3 
6859 5 0.974358 0.255037 0.152154 3 5 2 
8536 5 0.308747 0.200466 0.14962 -1 4 3 
6732 6 0.359351 0.187604 0.172163 3 -3 4 
7041 6 0.164811 0.304684 0.136215 -2 0 6 
8598 5 0.602798 0.333731 0.149092 5 6 4 
5494 5 0.757996 0.282446 0.175493 1 4 4 
6686 6 0.931557 0.328834 0.140943 -1 -4 -1 
6916 6 0.977246 0.246684 0.119927 0 -4 -5 
2597 1 0.467896 0.338476 0.160716 0 0 0 
2599 1 0.473945 0.334586 0.158447 0 0 0 
2598 1 0.469043 0.336142 0.154519 0 0 0 
2600 1 0.475361 0.339248 0.154227 0 0 0 
2595 1 0.461074 0.338342 0.157982 0 0 0 
2575 1 0.446581 0.343031 0.142616 0 0 0 
2574 1 0.448066 0.349542 0.142348 0 0 0 
2572 1 0.440849 0.35016 0.139683 0 0 0 
2573 1 0.44244 0.348021 0.145547 0 0 0 
2571 1 0.436275 0.35233 0.143381 0 0 0 
2576 1 0.450829 0.344326 0.137694 0 0 0 
2580 1 0.462049 0.341464 0.138819 0 0 0 
2577 1 0.451402 0.338437 0.140368 0 0 0 
2567 1 0.431084 0.362193 0.140344 0 0 0 
2570 1 0.43385 0.350549 0.1381 0 0 0 
2569 1 0.429743 0.354516 0.1411 0 0 0 
2594 1 0.456132 0.333941 0.158336 0 0 0 
2578 1 0.455472 0.342453 0.142903 0 0 0 
2568 1 0.432898 0.357779 0.136363 0 0 0 
2582 1 0.463168 0.348236 0.142087 0 0 0 
2596 1 0.464437 0.333106 0.159803 0 0 0 
7747 5 0.4679 0.352344 0.156052 4 2 4 
2579 1 0.45871 0.336923 0.141948 0 0 0 
2581 1 0.462068 0.342864 0.145091 0 0 0 
2583 1 0.464808 0.349737 0.148213 0 0 0 
2584 1 0.466027 0.354882 0.144311 0 0 0 
2585 1 0.4658 0.356893 0.150365 0 0 0 
5983 6 0.118349 0.352555 0.158545 0 -2 0 
7574 5 0.315494 0.36359 0.134502 -3 2 0 
2562 1 0.436207 0.372699 0.133722 0 0 0 
2563 1 0.434562 0.367133 0.13595 0 0 0 
2564 1 0.42968 0.3696 0.13265 0 0 0 
2566 1 0.427529 0.363233 0.135365 0 0 0 
2565 1 0.427713 0.368654 0.138626 0 0 0 
6047 6 0.675821 0.380845 0.152045 2 1 1 
6687 6 0.789869 0.363454 0.142713 -3 2 5 
7653 6 0.0461907 0.371074 0.123391 -1 -2 3 
7730 5 0.0425526 0.415241 0.209556 3 0 -3 
8559 6 0.112916 0.419162 0.166076 1 1 1 
8111 5 0.275174 0.428119 0.158198 -3 -2 2 
4267 1 0.478405 0.420123 0.153963 0 0 0 
4268 1 0.484618 0.419852 0.153229 0 0 0 
4265 1 0.474663 0.423752 0.148804 0 0 0 
4269 1 0.48281 0.415232 0.156926 0 0 0 