ITEM: TIMESTEP
20000000
ITEM: NUMBER OF ATOMS
9000
ITEM: BOX BOUNDS pp pp pp
-75 75
-75 75
-75 75
ITEM: ATOMS id type xs ys zs ix iy iz 
6661 5 0.713217 0.022848 0.986428 -5 3 -5 
6038 5 0.953686 0.0240015 0.0463671 1 6 2 
5598 5 0.289216 0.0614305 0.988938 4 1 2 
8371 5 0.827014 0.0518819 0.983419 0 3 -2 
7385 6 0.0832693 0.104051 0.0240802 -1 -3 1 
8641 6 0.723541 0.0555985 0.99773 0 3 1 
5307 6 0.905639 0.114484 0.00632241 3 0 5 
8881 5 0.332636 0.161326 0.99536 4 0 -2 
8333 5 0.488454 0.154017 0.0304024 -2 2 2 
8292 5 0.652178 0.12548 0.0259347 0 0 0 
5060 5 0.165711 0.161698 0.00827049 -2 0 4 
5189 5 0.471181 0.143586 0.0199087 2 0 -2 
6411 6 0.550667 0.157006 0.0145097 -2 2 -2 
7635 6 0.917145 0.147799 0.97196 2 -4 2 
5451 5 0.0983176 0.186352 0.993058 0 0 2 
5566 5 0.947776 0.16891 0.0135915 -3 1 3 
8509 5 0.474318 0.192774 0.98194 1 0 -3 
8930 5 0.616278 0.218458 0.0115677 -2 1 -3 
8500 6 0.77266 0.185914 0.984989 5 -3 0 
5245 5 0.822826 0.245849 0.00885639 -3 8 0 
7220 5 0.923293 0.241776 -0.00219513 5 1 2 
7759 6 0.983527 0.240259 -0.00181685 3 -8 4 
8166 6 0.630776 0.2553 0.988368 -6 3 1 
7721 6 0.942385 0.242884 0.991095 -3 0 0 
6545 6 0.145595 0.283657 0.00518849 3 -4 2 
6514 6 0.579459 0.268304 0.0148343 2 -3 -5 
5077 6 0.947047 0.29075 0.0210947 1 -4 4 
8716 5 0.431114 0.346156 0.0196887 -2 3 0 
6349 5 0.783372 0.353121 0.996618 -1 2 1 
8950 6 0.95094 0.328754 0.994555 0 2 -2 
7920 6 0.910751 0.322844 0.971552 -3 -3 -5 
8916 5 0.00797195 0.439458 0.98547 3 3 -3 
6606 5 0.23726 0.393182 0.989603 1 2 -2 
8937 6 0.757212 0.398741 0.994931 -3 -3 2 
6481 6 0.928252 0.483176 0.987295 1 3 -7 
7255 5 0.558526 0.409848 0.0172003 0 7 -1 
8381 5 0.395121 0.474141 0.0205632 2 3 3 
7537 5 0.664267 0.489247 0.0335126 4 0 3 
5718 5 0.00684001 0.50115 0.00225181 -1 -2 -1 
6390 5 0.18484 0.495707 0.979435 -2 1 -2 
5705 5 0.404856 0.514658 0.0227398 -3 0 -3 
8352 5 0.612336 0.464237 0.0489703 0 0 0 
7771 5 0.867007 0.543195 0.0458072 2 0 -2 
7487 6 0.761592 0.518235 0.985572 0 -3 1 
5948 5 0.376047 0.566406 3.41707e-05 5 3 -1 
8903 5 0.478735 0.541034 0.0303029 2 -2 -3 
5325 6 0.107586 0.602616 0.0373038 3 -1 2 
6518 6 0.991458 0.613864 0.991005 1 0 2 
6509 5 0.530548 0.565903 0.980868 -4 -8 -4 
7828 5 0.445815 0.589501 0.019876 3 1 -4 
8803 6 0.0901133 0.62854 0.990788 -1 -3 0 
5507 6 0.147321 0.649455 0.0420786 4 1 2 
7270 5 0.199565 0.684646 0.968308 3 2 -1 
7739 5 0.571696 0.70778 0.031815 -7 -4 -1 
8802 5 0.611641 0.662279 0.986052 1 -2 2 
6026 5 0.919751 0.674493 0.00419366 1 -8 4 
5701 6 0.395653 0.68913 0.0413527 0 2 2 
5385 5 0.411754 0.688161 0.0105321 3 -1 1 
5084 5 0.413953 0.681022 0.0138998 -4 -1 1 
5842 6 0.0188848 0.714144 0.0316298 -1 5 2 
7914 5 0.26302 0.699966 0.0149035 4 -6 3 
6308 6 0.278653 0.704028 0.024104 1 -2 -2 
6125 6 0.282023 0.703417 0.00465591 -1 0 4 
8983 6 0.367498 0.740754 0.0186633 -3 0 0 
7328 5 0.335809 0.67688 0.98424 5 0 1 
6115 5 0.388737 0.707091 0.0167484 1 -2 3 
8912 5 0.582255 0.718751 0.985061 -1 0 -1 
5126 5 0.980759 0.721995 0.0166116 0 -1 3 
6449 6 0.856115 0.733387 0.0112823 -3 2 0 
8139 6 0.650684 0.776455 0.998227 2 0 4 
8339 5 0.916776 0.748047 0.00870473 4 3 -2 
6352 6 0.154493 0.796591 0.983589 1 1 -3 
7264 6 0.706888 0.81368 0.0283631 1 3 4 
6505 6 0.61109 0.829665 0.0166852 -3 -1 3 
7490 6 0.154488 0.853261 0.0195825 3 -4 5 
5264 6 0.167792 0.865531 0.0115285 0 1 1 
5134 6 0.555236 0.871339 0.00742255 -2 -3 0 
6189 6 0.694107 0.855065 0.0335368 -8 -3 3 
8423 5 0.297143 0.917121 0.983883 3 2 0 
6480 5 0.62698 0.967509 0.0257602 5 3 2 
5003 5 0.784102 0.964362 0.998542 -2 -2 -2 
7335 5 0.925153 0.952656 0.990772 0 -2 -3 
8113 5 0.989848 0.939376 0.989403 -3 3 -1 
5574 6 0.987049 0.024261 0.982966 -3 -1 -4 
6965 5 0.452431 0.9837 0.00603402 0 -2 -3 
6210 6 0.720534 0.994335 0.00720506 -3 1 0 
5372 5 0.758188 0.0176906 0.028626 5 3 -4 
6662 6 0.367684 0.0307024 0.0476055 3 0 5 
7994 6 0.924958 0.0565897 0.0643743 0 -3 -5 
5453 6 0.613803 0.0943304 0.0379626 -3 2 -1 
8228 5 0.723121 0.082585 0.0318793 -4 2 0 
5641 6 0.816646 0.0710621 0.0185856 -2 1 -1 
5034 6 0.98351 0.0790711 0.0276169 -1 1 3 
212 1 0.375833 0.119841 0.0467789 0 0 0 
211 1 0.376793 0.115921 0.0520457 0 0 0 
7460 5 0.382555 0.123063 0.0456952 -2 2 -6 
216 1 0.362351 0.122351 0.049446 0 0 0 
214 1 0.369215 0.123741 0.0487509 0 0 0 
7694 6 0.138582 0.121265 0.0607138 1 -2 2 
5028 6 0.194195 0.167223 0.0374126 -3 0 2 
6408 6 0.383892 0.157923 0.0660275 4 -1 -3 
8276 6 0.290254 0.20499 0.0350724 -1 -1 4 
5102 6 0.72677 0.195049 0.024716 2 5 -1 
8015 6 0.898673 0.189834 0.0400516 0 -1 1 
5989 5 0.997843 0.31997 0.983686 -3 2 4 
6534 5 0.0808621 0.199159 0.992968 -1 1 -3 
8515 5 0.362834 0.278509 0.0552657 2 2 1 
5213 5 0.105603 0.317173 0.0497765 1 -7 0 
7548 6 0.205817 0.256165 0.0413438 -4 -2 -4 
5339 5 0.797558 0.261805 0.0116274 -3 4 -3 
7242 5 0.539619 0.308942 0.05243 4 1 -3 
5916 6 0.771825 0.286348 0.0543002 -2 4 1 
7812 6 0.960401 0.322345 0.0356053 -4 2 4 
6147 6 0.571685 0.328826 0.0286391 -2 0 2 
7536 5 0.0327701 0.380488 0.0416612 -3 -3 1 
5470 6 0.350911 0.375872 0.0386196 0 -1 -6 
5643 6 0.503616 0.357565 0.0198211 5 -1 -5 
5680 5 0.627596 0.331301 0.0287027 -4 1 -1 
6021 6 0.914603 0.369757 0.0215238 -3 -4 8 
5316 5 0.146344 0.374135 0.0368029 1 -1 -1 
5292 6 0.324128 0.386409 0.0450609 2 -4 -3 
8128 5 0.514115 0.372088 0.0444707 4 5 -2 
7704 5 0.926484 0.355444 0.00548924 2 0 -1 
7543 6 0.0205518 0.456332 0.0406922 0 2 4 
8992 6 0.478336 0.384555 0.038903 -4 1 -2 
5059 6 0.533893 0.445648 0.989791 0 -5 -2 
8162 6 0.6126 0.456353 0.0504474 1 -1 -3 
6769 5 0.768903 0.432216 0.0264282 -2 5 2 
8176 6 0.352742 0.49411 0.99084 2 0 2 
6937 6 0.515666 0.465928 0.0744457 2 0 -1 
6339 6 0.741773 0.481666 0.0381329 -3 -1 -1 
6951 6 0.843688 0.424192 0.0260106 -2 0 -3 
7672 6 0.946983 0.499192 0.0405992 4 0 -1 
6208 5 0.326612 0.528117 0.00190669 1 -2 2 
7341 6 0.173161 0.56261 0.0316023 5 1 3 
5917 6 0.634439 0.510983 0.0581005 2 2 -5 
6675 6 0.0718476 0.54148 0.0674327 2 3 6 
7851 5 0.521156 0.544459 0.0683274 1 1 0 
6837 6 0.636498 0.549401 0.0373386 1 1 -1 
8925 5 0.736653 0.608667 0.0395656 -5 -1 0 
5789 6 0.547848 0.591385 0.0591708 0 4 0 
8497 6 0.788963 0.573194 0.0595428 0 6 -1 
7515 6 0.0224964 0.551187 0.0153146 1 -3 5 
8159 5 0.109444 0.583862 0.0345423 4 3 2 
6835 5 0.470423 0.640615 0.0510138 -1 -7 3 
7229 6 0.65612 0.608994 0.037895 2 -1 -1 
6375 5 0.878808 0.630732 0.0508197 3 0 7 
7021 5 0.97313 0.625229 0.0478253 -3 1 0 
6633 5 0.0514144 0.651247 0.0464026 0 -1 0 
6581 5 0.505897 0.670216 0.0247061 0 1 1 
7714 6 0.748171 0.600035 0.0433123 -4 4 -3 
7956 5 0.31477 0.646802 0.0269479 0 -3 6 
8445 5 0.796324 0.674793 0.0133597 7 0 4 
5914 5 0.859783 0.620528 0.0236769 0 3 0 
6860 5 0.0185582 0.644981 0.0536492 2 -1 1 
6332 5 0.556215 0.649566 0.0385697 0 2 -5 
6562 6 0.53722 0.659965 0.99774 2 2 0 
5092 5 0.430204 0.65902 0.0343483 2 -1 4 
7648 5 0.168061 0.707511 0.0154734 5 -3 -3 
5031 5 0.348256 0.735548 0.0704057 -3 3 -2 
5417 6 0.621641 0.713505 0.00374751 1 -2 3 
5118 5 0.711384 0.726952 0.0368128 -2 0 0 
7661 5 0.79579 0.759571 0.0523302 1 0 1 
5503 5 0.133858 0.786146 0.0536422 -2 -1 -2 
6879 5 0.982926 0.764557 0.0475708 4 4 2 
7555 5 0.124933 0.769949 0.0759095 1 5 3 
7110 5 0.306484 0.788584 0.0231727 6 -2 2 
6882 5 0.101715 0.87792 0.0421776 -1 0 3 
8848 5 0.106277 0.800568 0.981599 0 -3 -4 
6933 5 0.186803 0.860412 0.0115244 0 -3 1 
6114 6 0.521759 0.832802 0.061316 -5 3 -5 
5694 6 0.682323 0.830417 0.0473527 2 0 -4 
5523 6 0.826016 0.85483 0.0176867 3 2 1 
6734 6 0.590739 0.888908 0.0161058 -3 3 5 
7298 6 0.701617 0.909126 0.0320249 -2 2 6 
8399 5 0.0172453 0.927116 0.0736181 4 -2 0 
5642 6 0.630283 0.901083 0.0259989 -3 -1 -4 
6584 6 0.927484 0.934854 0.0353127 -3 1 -2 
5338 6 0.444547 0.91232 0.0520299 0 -5 3 
7135 6 0.860389 0.919195 0.0325568 0 3 2 
7985 5 0.65887 0.0103098 0.0223519 -4 -2 -4 
7853 6 0.133195 0.0129982 0.0562222 -3 1 1 
95 1 0.422254 0.00719223 0.070688 0 0 0 
94 1 0.427277 0.0108937 0.0717341 0 0 0 
100 2 0.432701 0.00839835 0.0614946 0 0 0 
98 1 0.422064 0.00553444 0.0607164 0 0 0 
97 1 0.424401 0.0102774 0.0645794 0 0 0 
96 1 0.426705 0.00456253 0.0667695 0 0 0 
99 1 0.427995 0.0059308 0.058519 0 0 0 
103 1 0.433783 0.0166267 0.0670883 0 0 0 
5756 6 0.791736 0.979845 0.0407136 2 -4 3 
102 1 0.440148 0.0169459 0.0674638 0 0 0 
101 1 0.437683 0.0119866 0.0638965 0 0 0 
104 1 0.436172 0.0152931 0.0729123 0 0 0 
106 1 0.438906 0.0205339 0.0772875 0 0 0 
6264 6 0.394698 0.0823526 0.0555078 6 -2 3 
180 1 0.426486 0.0684613 0.0565971 0 0 0 
178 1 0.424086 0.0724822 0.0624672 0 0 0 
179 1 0.420433 0.069691 0.0582819 0 0 0 
176 1 0.430811 0.0686755 0.064242 0 0 0 
182 1 0.421414 0.0706041 0.0516769 0 0 0 
177 1 0.425124 0.0663425 0.0631035 0 0 0 
181 1 0.422065 0.0644824 0.053224 0 0 0 
5932 6 0.653489 0.0465697 0.0692777 0 -3 -6 
6301 6 0.711928 0.0670708 0.0693836 -2 0 -1 
189 2 0.419005 0.0913171 0.0548836 0 0 0 
187 1 0.426242 0.0816714 0.0499783 0 0 0 
188 2 0.422911 0.086911 0.0525997 0 0 0 
190 1 0.418182 0.0896219 0.0610566 0 0 0 
184 1 0.425709 0.0740316 0.0467624 0 0 0 
186 1 0.430001 0.0798089 0.0452453 0 0 0 
185 1 0.4315 0.0757064 0.0496765 0 0 0 
183 1 0.427653 0.0691464 0.0504226 0 0 0 
169 2 0.450461 0.0772531 0.0622037 0 0 0 
168 1 0.456838 0.0768929 0.0635628 0 0 0 
170 1 0.443882 0.0758684 0.062331 0 0 0 
208 1 0.386969 0.112023 0.0513322 0 0 0 
210 1 0.381314 0.114802 0.0475594 0 0 0 
204 1 0.397891 0.111093 0.0473578 0 0 0 
206 1 0.392743 0.115887 0.0497225 0 0 0 
197 1 0.41314 0.100098 0.0586749 0 0 0 
192 1 0.423584 0.0901441 0.0654603 0 0 0 
196 1 0.418835 0.101442 0.055596 0 0 0 
194 1 0.421849 0.0966101 0.0605456 0 0 0 
198 1 0.412191 0.101702 0.0526717 0 0 0 
195 1 0.419399 0.102186 0.0621468 0 0 0 
193 1 0.420165 0.095784 0.0664998 0 0 0 
191 1 0.417354 0.0890461 0.0674672 0 0 0 
7001 6 0.458838 0.0586179 0.0878464 -2 1 2 
167 1 0.463269 0.0782431 0.06382 0 0 0 
166 2 0.466614 0.0826364 0.0608583 0 0 0 
164 2 0.464356 0.0894045 0.0705163 0 0 0 
165 1 0.464034 0.0869624 0.0647787 0 0 0 
8699 5 0.615013 0.120714 0.045985 1 1 1 
6326 6 0.842903 0.116541 0.0826739 1 -3 0 
7678 6 0.77559 0.101263 0.0776061 3 3 4 
6791 5 0.124289 0.119301 0.0434575 5 -2 1 
8755 6 0.169179 0.0965045 0.0304428 3 0 -1 
222 1 0.360836 0.13671 0.054603 0 0 0 
223 1 0.359287 0.142577 0.056142 0 0 0 
217 1 0.360432 0.126509 0.0453712 0 0 0 
221 1 0.357141 0.139706 0.0494935 0 0 0 
213 1 0.370468 0.11747 0.0487989 0 0 0 
215 1 0.365765 0.12136 0.0444441 0 0 0 
209 1 0.383436 0.117261 0.0532465 0 0 0 
219 1 0.356812 0.132914 0.0471209 0 0 0 
218 1 0.359229 0.128741 0.0511244 0 0 0 
220 1 0.354322 0.1346 0.0524848 0 0 0 
207 1 0.389983 0.115826 0.0558191 0 0 0 
203 1 0.401389 0.1143 0.0524025 0 0 0 
205 1 0.394156 0.11056 0.0526433 0 0 0 
201 1 0.407481 0.111273 0.0554252 0 0 0 
202 1 0.402716 0.108121 0.0523339 0 0 0 
199 1 0.41317 0.107335 0.0558227 0 0 0 
200 1 0.407094 0.104735 0.0569955 0 0 0 
6839 5 0.743624 0.179782 0.0341115 -1 1 -4 
7999 5 0.0175945 0.148222 0.0686905 5 -2 4 
8764 5 0.972356 0.127801 0.0563081 -1 1 1 
224 1 0.363052 0.139856 0.0608399 0 0 0 
226 1 0.360817 0.137482 0.0673262 0 0 0 
225 1 0.356962 0.139703 0.0628606 0 0 0 
228 1 0.362224 0.145127 0.0668034 0 0 0 
230 1 0.3563 0.148313 0.0683148 0 0 0 
231 1 0.359349 0.153889 0.0691787 0 0 0 
232 1 0.35466 0.152599 0.0734999 0 0 0 
6297 6 0.767681 0.133903 0.0801453 4 -4 3 
8825 6 0.450287 0.151744 0.00115077 3 3 -4 
2474 1 0.576087 0.17502 0.0596237 0 0 0 
2472 1 0.575476 0.171988 0.0662498 0 0 0 
2473 1 0.571817 0.177031 0.0635627 0 0 0 
2471 1 0.570136 0.169823 0.062527 0 0 0 
2469 1 0.566135 0.173708 0.0671893 0 0 0 
8095 5 0.340415 0.23783 0.0630958 6 0 0 
2476 1 0.582527 0.179323 0.058375 0 0 0 
2478 1 0.584699 0.18352 0.0521599 0 0 0 
2479 1 0.583592 0.189987 0.0525756 0 0 0 
2477 1 0.582692 0.185275 0.0581966 0 0 0 
2475 1 0.577355 0.181243 0.0618694 0 0 0 
2480 1 0.585127 0.188795 0.0466286 0 0 0 
2487 1 0.568501 0.200275 0.0477822 0 0 0 
2482 1 0.585047 0.194319 0.0409038 0 0 0 
2481 1 0.586172 0.194943 0.0473145 0 0 0 
2485 1 0.573679 0.197631 0.0435824 0 0 0 
2483 1 0.579553 0.192234 0.0441936 0 0 0 
2484 1 0.579773 0.198519 0.0440818 0 0 0 
2489 1 0.567288 0.207594 0.0499212 0 0 0 
6520 5 0.577803 0.195823 0.0868854 3 2 6 
6554 5 0.825812 0.22407 0.0576555 1 -3 5 
2495 1 0.571183 0.21412 0.0697468 0 0 0 
2497 1 0.565541 0.214935 0.0743661 0 0 0 
2486 1 0.573701 0.203277 0.0453418 0 0 0 
2490 1 0.567006 0.206536 0.0560474 0 0 0 
2488 1 0.572567 0.203643 0.0519752 0 0 0 
7571 5 0.808253 0.20286 0.0371121 -1 -2 0 
2526 1 0.547894 0.247156 0.0595951 0 0 0 
2524 1 0.552662 0.241465 0.0622881 0 0 0 
2525 1 0.552733 0.244387 0.0563729 0 0 0 
2522 1 0.547916 0.236791 0.0586328 0 0 0 
2521 1 0.550007 0.230699 0.0574182 0 0 0 
2523 1 0.554367 0.236987 0.0577785 0 0 0 
2520 1 0.54518 0.230565 0.0612268 0 0 0 
2519 1 0.549863 0.231864 0.0645165 0 0 0 
2527 1 0.55041 0.251179 0.0547661 0 0 0 
7842 5 0.583881 0.236238 0.0514495 3 4 -2 
6424 6 0.592286 0.236133 0.0731522 -3 4 -3 
7854 6 0.224661 0.288235 0.0858787 -4 0 -4 
2528 1 0.544165 0.251539 0.0550668 0 0 0 
2530 1 0.541122 0.257885 0.0595928 0 0 0 
2531 1 0.546491 0.261793 0.0611768 0 0 0 
2532 1 0.541123 0.264636 0.0637556 0 0 0 
2534 1 0.547793 0.266655 0.0669561 0 0 0 
2535 1 0.543134 0.270654 0.0694818 0 0 0 
2533 1 0.545182 0.269468 0.0621627 0 0 0 
2529 1 0.546812 0.254664 0.0598119 0 0 0 
2560 1 0.578003 0.265321 0.073406 0 0 0 
8943 5 0.416962 0.298532 0.0894928 4 2 -5 
2286 1 0.427949 0.292265 0.0659638 0 0 0 
5814 6 0.686849 0.260554 0.0233296 -1 -1 0 
8132 6 0.897866 0.258666 0.07456 -1 4 1 
6636 5 0.0268636 0.305935 0.0743421 3 3 2 
8799 6 0.132179 0.309416 0.0285568 5 -3 0 
5685 6 0.20401 0.273069 0.0489393 0 -3 -2 
2290 1 0.426381 0.302025 0.0565116 0 0 0 
2285 1 0.433438 0.294988 0.0685035 0 0 0 
2288 1 0.42843 0.297145 0.0608214 0 0 0 
2287 1 0.426825 0.298988 0.0679025 0 0 0 
2289 1 0.423133 0.301092 0.0620425 0 0 0 
2291 1 0.424827 0.307657 0.0597405 0 0 0 
2292 1 0.43035 0.30468 0.0611936 0 0 0 
2294 1 0.435946 0.30871 0.0631263 0 0 0 
2293 1 0.432023 0.310023 0.0581296 0 0 0 
2295 1 0.438587 0.313033 0.0593378 0 0 0 
2297 1 0.442451 0.306229 0.0595053 0 0 0 
6959 5 0.424521 0.306785 0.0673075 1 -8 -1 
2296 1 0.442551 0.311152 0.0638085 0 0 0 
2298 1 0.448332 0.306403 0.0616332 0 0 0 
2302 1 0.446854 0.305017 0.0722492 0 0 0 
2301 1 0.446896 0.298842 0.0715705 0 0 0 
2300 1 0.450566 0.301607 0.0668298 0 0 0 
2299 1 0.44444 0.303257 0.0661513 0 0 0 
7294 6 0.458069 0.314105 0.0575694 3 4 6 
8693 5 0.511738 0.302922 0.0571276 3 0 1 
8331 5 0.654611 0.297033 0.0448803 2 -2 -3 
5444 6 0.345183 0.335704 0.0559882 -3 -1 2 
7405 6 0.375635 0.307027 0.0457349 0 0 2 
8774 6 0.567924 0.320745 0.0785526 -2 1 -2 
6976 5 0.704079 0.325537 0.0755658 0 2 -1 
5560 6 0.0563082 0.392788 0.0799659 -5 3 4 
6204 6 0.264679 0.359977 0.0472596 0 0 -5 
6278 6 0.463036 0.362981 0.0594747 -4 -1 -4 
8337 5 0.49954 0.34541 0.0176881 -2 -3 -2 
7949 6 0.795972 0.375531 0.0555348 -2 2 -4 
7717 5 0.695283 0.447168 0.0709302 -1 4 1 
7185 6 0.313845 0.470422 0.0240812 1 -1 4 
7054 6 0.430979 0.460244 0.0590594 0 2 2 
6807 5 0.518862 0.474377 0.0276252 -2 3 -4 
7724 6 0.618916 0.466068 0.065282 9 0 4 
8765 5 0.102377 0.512913 0.0531757 -2 -6 -4 
7444 5 0.406423 0.51042 0.0692359 0 2 -3 
5597 6 0.859291 0.520467 0.0400168 -3 1 3 
7272 5 0.332276 0.54192 0.0596049 2 0 -1 
8785 6 0.716797 0.612226 0.0918428 -3 -1 -1 
6007 6 0.319477 0.59288 0.0603189 4 -1 -1 
8804 5 0.339518 0.627661 0.0895178 -1 2 -5 
8278 5 0.33234 0.637004 0.0656175 1 2 -3 
6457 6 0.202491 0.623188 0.0665721 -1 -3 4 
5308 5 0.228961 0.672998 0.0226193 1 2 2 
8417 5 0.515019 0.642161 0.0624028 -1 -3 2 
7410 5 0.523313 0.665694 0.0606261 2 3 6 
5850 5 0.621704 0.67432 0.0458961 0 0 5 
6116 5 0.0253426 0.700895 0.0500966 3 -4 -1 
7005 6 0.422366 0.675061 0.0595023 -1 -1 0 
7549 6 0.637108 0.714347 0.090169 -2 4 0 
8469 6 0.811372 0.729523 0.0930724 -1 -1 4 
5021 6 0.91505 0.691705 0.103849 -1 7 0 
7041 6 0.572161 0.732683 0.069345 -1 -4 2 
6851 6 0.766727 0.750071 0.0859129 0 -1 2 
6484 5 0.0876306 0.785831 0.0543167 2 2 1 
7553 6 0.573933 0.778111 0.0580834 0 1 -3 
5364 6 0.849134 0.773076 0.0524058 3 -3 1 
7035 6 0.70754 0.817077 0.0719853 -5 3 -2 
7500 5 0.742613 0.841357 0.0255516 4 5 1 
7163 6 0.322946 0.847608 0.0658046 -2 3 -2 
8300 5 0.189162 0.891965 0.0682765 1 -1 -1 
5399 6 0.368057 0.908237 0.0415641 5 1 1 
5681 6 0.336505 0.903152 0.0223421 -3 1 3 
7574 5 0.405081 0.902308 0.040016 2 -1 -1 
6659 5 0.540548 0.90413 0.0637707 7 0 0 
6319 6 0.227112 0.910309 0.0295662 -2 0 -2 
6672 6 0.10683 0.943027 0.0658374 -1 -2 -4 
6304 5 0.816438 0.953449 0.0588033 -2 2 -2 
6192 6 0.0920469 0.951669 0.0628338 -2 5 2 
6462 6 0.427973 0.989895 0.0321745 1 1 2 
7781 6 0.474444 0.977236 0.0681669 1 0 -5 
7349 6 0.615474 0.958502 0.0312965 -1 2 -3 
6386 6 0.830356 0.99347 0.0241785 1 2 -1 
5519 6 0.995104 0.968175 0.0701461 0 -5 -2 
8167 5 0.131091 0.00123097 0.03462 1 0 -5 
5147 5 0.258516 0.946883 0.0565614 2 0 3 
6167 5 0.245456 0.99561 0.0610478 3 1 2 
6803 5 0.87399 0.970489 0.084711 0 -1 3 
27 1 0.383367 0.0341678 0.0899846 0 0 0 
26 1 0.382188 0.0336521 0.0838414 0 0 0 
24 1 0.376054 0.0311115 0.0814076 0 0 0 
23 1 0.381735 0.02727 0.0803854 0 0 0 
25 1 0.37905 0.0293996 0.0870321 0 0 0 
37 1 0.408263 0.0248303 0.0852966 0 0 0 
38 1 0.402352 0.0215505 0.0842482 0 0 0 
92 1 0.429517 0.0138939 0.0781897 0 0 0 
93 1 0.424788 0.00993145 0.0773589 0 0 0 
89 1 0.429777 0.01319 0.0900624 0 0 0 
85 1 0.415609 0.00994544 0.0913505 0 0 0 
86 1 0.420793 0.00861518 0.0880348 0 0 0 
87 1 0.422461 0.0131719 0.0925439 0 0 0 
88 1 0.424475 0.0149881 0.0869327 0 0 0 
90 1 0.43084 0.0163398 0.0845663 0 0 0 
91 1 0.429558 0.0104103 0.0835594 0 0 0 
8198 5 0.415697 0.0154224 0.0973518 -1 -5 3 
5907 6 0.552309 0.00463201 0.110415 -5 -5 -3 
8583 6 0.648979 0.00620653 0.0631153 -5 2 -6 
7438 6 0.741438 0.983623 0.0546139 -2 1 2 
5413 6 0.824636 0.000627263 0.0590954 5 5 -2 
15 1 0.370207 0.0477091 0.0840941 0 0 0 
16 1 0.370028 0.0410514 0.0841508 0 0 0 
19 1 0.3753 0.037496 0.0740977 0 0 0 
17 1 0.373838 0.0427379 0.0793566 0 0 0 
20 1 0.372791 0.0316828 0.0743094 0 0 0 
18 1 0.370105 0.0380936 0.0775291 0 0 0 
21 1 0.378917 0.031246 0.0752233 0 0 0 
22 1 0.376442 0.0258621 0.0767588 0 0 0 
7028 5 0.366121 0.0528961 0.0869166 -5 4 -2 
14 1 0.364233 0.0455594 0.0845229 0 0 0 
32 1 0.397193 0.0349201 0.0821946 0 0 0 
36 1 0.405634 0.02571 0.0788663 0 0 0 
34 1 0.403659 0.0325255 0.0784909 0 0 0 
109 1 0.438311 0.0304071 0.0837492 0 0 0 
107 1 0.435434 0.0257577 0.0788893 0 0 0 
105 1 0.434849 0.0217714 0.0722699 0 0 0 
108 1 0.441398 0.0280769 0.0786003 0 0 0 
110 1 0.444396 0.0284267 0.0847977 0 0 0 
111 2 0.45002 0.0309408 0.0867578 0 0 0 
144 1 0.444099 0.0375377 0.0866878 0 0 0 
5036 5 0.433774 0.0320533 0.105464 0 -1 -3 
6153 6 0.480272 0.0298571 0.0733123 -2 1 1 
120 1 0.460589 0.0327138 0.0868716 0 0 0 
6600 6 0.681717 0.0301533 0.0818897 -4 5 -1 
5878 6 0.951539 0.0664063 0.0419121 -3 5 -3 
6155 5 0.0577551 0.0530009 0.0872011 -5 3 -6 
4 1 0.356545 0.0535329 0.0767149 0 0 0 
2 1 0.351033 0.0501165 0.0798097 0 0 0 
1 1 0.34664 0.0542298 0.0779914 0 0 0 
3 1 0.353079 0.0562163 0.0811583 0 0 0 
5 1 0.358921 0.0593381 0.0780912 0 0 0 
8 1 0.359158 0.0545711 0.0855238 0 0 0 
9 1 0.360577 0.0574397 0.0913827 0 0 0 
7 1 0.36306 0.0594252 0.0846613 0 0 0 
6 1 0.363091 0.0551105 0.0800171 0 0 0 
7746 5 0.357812 0.0466386 0.0809901 1 2 0 
10 1 0.356949 0.0523743 0.0922506 0 0 0 
12 1 0.360764 0.0453233 0.0909608 0 0 0 
13 1 0.366935 0.0451281 0.0903313 0 0 0 
11 1 0.363072 0.0506025 0.0932184 0 0 0 
175 1 0.431368 0.0624516 0.0632286 0 0 0 
174 1 0.437287 0.0652027 0.0626405 0 0 0 
173 1 0.436814 0.0625234 0.0684733 0 0 0 
148 1 0.44373 0.0490574 0.0850094 0 0 0 
147 1 0.440189 0.0436548 0.0860235 0 0 0 
145 1 0.447591 0.0430606 0.0870946 0 0 0 
146 1 0.444601 0.0426527 0.0811864 0 0 0 
172 1 0.436294 0.069355 0.0688873 0 0 0 
149 1 0.439444 0.0504519 0.0892361 0 0 0 
151 2 0.446951 0.0601741 0.0895391 0 0 0 
150 1 0.444359 0.0545304 0.0896261 0 0 0 
124 1 0.470923 0.0470891 0.0780425 0 0 0 
125 2 0.476232 0.0494751 0.0800465 0 0 0 
6921 5 0.487205 0.0415516 0.0869109 1 -2 -3 
126 2 0.482122 0.0510315 0.0819453 0 0 0 
127 2 0.482781 0.0468597 0.0871759 0 0 0 
131 1 0.481952 0.0388795 0.0941841 0 0 0 
129 1 0.486078 0.04315 0.0974156 0 0 0 
128 2 0.482402 0.0457132 0.0932539 0 0 0 
8591 6 0.477962 0.0579203 0.108516 -2 1 2 
5729 6 0.971779 0.0466186 0.0168726 2 3 -2 
8658 6 0.155179 0.0809223 0.0866559 0 -7 -1 
171 2 0.438724 0.07335 0.0646948 0 0 0 
155 2 0.452971 0.071987 0.081633 0 0 0 
154 1 0.453322 0.0714151 0.0879566 0 0 0 
152 1 0.450037 0.0650788 0.0921061 0 0 0 
7809 5 0.45312 0.083121 0.066915 -4 5 -3 
156 1 0.456361 0.0753315 0.0772473 0 0 0 
157 1 0.457025 0.0791602 0.0718836 0 0 0 
153 1 0.455907 0.0676003 0.0925233 0 0 0 
158 1 0.451842 0.080811 0.0755822 0 0 0 
160 1 0.454481 0.0844061 0.0817682 0 0 0 
161 1 0.460817 0.082561 0.0811367 0 0 0 
159 1 0.456461 0.0853188 0.0756756 0 0 0 
162 1 0.460262 0.088756 0.0817926 0 0 0 
163 1 0.463514 0.0875537 0.0764712 0 0 0 
8436 6 0.114471 0.118773 0.106989 3 4 4 
5194 6 0.364682 0.09832 0.116054 -1 1 4 
267 1 0.404158 0.142173 0.100397 0 0 0 
266 1 0.398599 0.140839 0.10354 0 0 0 
6528 5 0.561623 0.100137 0.0787438 0 -3 0 
234 1 0.353616 0.159952 0.0757155 0 0 0 
236 1 0.34872 0.157652 0.0806664 0 0 0 
227 1 0.35755 0.141746 0.070378 0 0 0 
229 1 0.361171 0.147588 0.0723826 0 0 0 
233 1 0.352137 0.157523 0.0697052 0 0 0 
242 1 0.355352 0.154746 0.0933679 0 0 0 
238 1 0.345307 0.161622 0.086017 0 0 0 
237 1 0.348291 0.164298 0.0810104 0 0 0 
240 1 0.348948 0.15793 0.0906497 0 0 0 
239 1 0.351042 0.163392 0.0881989 0 0 0 
241 1 0.3538 0.156109 0.0871294 0 0 0 
243 1 0.357285 0.149807 0.0900919 0 0 0 
244 1 0.36211 0.153975 0.090777 0 0 0 
245 1 0.362449 0.153282 0.0845816 0 0 0 
249 1 0.372918 0.142415 0.0897926 0 0 0 
248 1 0.372277 0.145591 0.0840125 0 0 0 
246 1 0.368568 0.152014 0.0863636 0 0 0 
250 1 0.375545 0.148068 0.0896418 0 0 0 
247 1 0.366389 0.146171 0.086175 0 0 0 
251 1 0.374938 0.146896 0.095564 0 0 0 
264 2 0.398797 0.145638 0.0921895 0 0 0 
253 1 0.381035 0.150763 0.0943436 0 0 0 
255 1 0.387284 0.152868 0.0904787 0 0 0 
273 1 0.410401 0.15672 0.0913657 0 0 0 
270 1 0.412979 0.146628 0.0860896 0 0 0 
269 1 0.410127 0.146529 0.0916071 0 0 0 
272 1 0.410384 0.153762 0.085827 0 0 0 
271 1 0.415495 0.151637 0.0891074 0 0 0 
2467 1 0.569662 0.172979 0.0739703 0 0 0 
2461 1 0.582663 0.17114 0.0880356 0 0 0 
2463 1 0.575638 0.171788 0.084697 0 0 0 
2462 1 0.581197 0.174466 0.0829369 0 0 0 
2465 1 0.570018 0.169599 0.0806406 0 0 0 
2464 1 0.573562 0.175373 0.0802618 0 0 0 
8472 5 0.82118 0.174813 0.110974 0 3 -1 
6742 6 0.993054 0.134147 0.100745 -1 2 1 
8212 6 0.314389 0.181297 0.0905852 1 -2 -2 
235 1 0.347061 0.159903 0.0750543 0 0 0 
252 1 0.374921 0.153113 0.0946497 0 0 0 
2470 1 0.569523 0.168355 0.0688277 0 0 0 
2460 1 0.587533 0.170989 0.0834687 0 0 0 
2468 1 0.563701 0.171026 0.0726461 0 0 0 
2466 1 0.56608 0.174478 0.0791016 0 0 0 
2459 1 0.588642 0.175184 0.0883045 0 0 0 
2458 1 0.593135 0.17131 0.088086 0 0 0 
2454 1 0.595294 0.173253 0.0992366 0 0 0 
2455 1 0.596524 0.178149 0.0955313 0 0 0 
2457 1 0.595495 0.177108 0.0883225 0 0 0 
2453 1 0.590574 0.174704 0.0950955 0 0 0 
2456 1 0.59874 0.173219 0.0925871 0 0 0 
2496 1 0.565385 0.211663 0.0682958 0 0 0 
2493 1 0.571249 0.212058 0.0628275 0 0 0 
2502 1 0.550503 0.215033 0.0775805 0 0 0 
2503 1 0.550425 0.215871 0.0836079 0 0 0 
2504 1 0.550313 0.209322 0.0830729 0 0 0 
2494 1 0.572396 0.208342 0.0678556 0 0 0 
2500 1 0.555028 0.220079 0.0743397 0 0 0 
2498 1 0.559405 0.214994 0.0725542 0 0 0 
2499 1 0.56144 0.220441 0.0751326 0 0 0 
2501 1 0.55636 0.216979 0.0796776 0 0 0 
2507 1 0.550955 0.214064 0.0934663 0 0 0 
2492 1 0.572423 0.206377 0.0604828 0 0 0 
2491 1 0.571597 0.210999 0.055605 0 0 0 
7207 6 0.700769 0.168105 0.127422 -1 4 1 
2508 1 0.545414 0.215152 0.0903164 0 0 0 
2510 1 0.543173 0.222361 0.0888145 0 0 0 
2512 1 0.546425 0.227886 0.0862092 0 0 0 
2514 1 0.546622 0.232305 0.079933 0 0 0 
2513 1 0.55067 0.227441 0.081651 0 0 0 
2509 1 0.549356 0.220442 0.0903467 0 0 0 
2511 1 0.545977 0.221923 0.0834528 0 0 0 
2518 1 0.54551 0.229726 0.0687783 0 0 0 
2517 1 0.551468 0.226826 0.0692366 0 0 0 
2515 1 0.546569 0.227513 0.075359 0 0 0 
2516 1 0.55087 0.231566 0.0737643 0 0 0 
2419 1 0.589226 0.245167 0.0970062 0 0 0 
2417 1 0.593237 0.251887 0.096819 0 0 0 
5436 5 0.970579 0.229486 0.0629722 5 1 -3 
6834 6 0.310258 0.247342 0.112924 -2 -3 4 
2003 2 0.384126 0.264363 0.0933013 0 0 0 
2002 2 0.380756 0.267677 0.0977694 0 0 0 
2004 2 0.388322 0.263426 0.0889253 0 0 0 
2007 2 0.398188 0.260563 0.0729062 0 0 0 
2006 2 0.394884 0.261551 0.077876 0 0 0 
2005 2 0.391373 0.26181 0.0833876 0 0 0 
6743 5 0.395271 0.274197 0.0467746 -2 -3 3 
2009 1 0.406214 0.259991 0.0643574 0 0 0 
2008 1 0.402177 0.257736 0.0687623 0 0 0 
2011 2 0.410358 0.259866 0.0762024 0 0 0 
2010 1 0.409067 0.260917 0.0700538 0 0 0 
2012 1 0.411957 0.254274 0.0788333 0 0 0 
2362 1 0.530387 0.27099 0.0851245 0 0 0 
2364 1 0.529079 0.263702 0.085458 0 0 0 
2536 1 0.548673 0.272638 0.0719304 0 0 0 
2366 1 0.53352 0.259878 0.0895344 0 0 0 
2368 1 0.535552 0.265584 0.0931049 0 0 0 
2555 1 0.56089 0.270895 0.0720214 0 0 0 
2554 1 0.562305 0.275788 0.0765976 0 0 0 
2557 1 0.568442 0.271725 0.0734543 0 0 0 
2563 1 0.588569 0.265902 0.069728 0 0 0 
2562 1 0.582978 0.261765 0.0696932 0 0 0 
2561 1 0.581472 0.268397 0.0692517 0 0 0 
2559 1 0.574907 0.27043 0.0716312 0 0 0 
2558 1 0.571648 0.26808 0.0769116 0 0 0 
2564 1 0.585168 0.265881 0.0751831 0 0 0 
5259 5 0.578385 0.26529 0.0809681 3 0 1 
2416 1 0.590131 0.254903 0.101774 0 0 0 
2599 1 0.576742 0.26778 0.0943069 0 0 0 
2600 1 0.57658 0.274502 0.0949548 0 0 0 
2565 1 0.591181 0.267683 0.0761922 0 0 0 
2567 1 0.591802 0.264188 0.0830927 0 0 0 
2573 1 0.596304 0.271645 0.0931802 0 0 0 
2569 1 0.595983 0.263092 0.0890605 0 0 0 
2415 1 0.595887 0.258064 0.100268 0 0 0 
7878 5 0.793761 0.278281 0.0677991 -2 2 4 
8663 6 0.854749 0.286506 0.0915555 -1 2 -3 
5306 6 0.190447 0.276653 0.0923535 1 -2 0 
1130 1 0.313164 0.288752 0.0827829 0 0 0 
1125 1 0.29813 0.290323 0.0895657 0 0 0 
1127 1 0.305609 0.288687 0.0879224 0 0 0 
1128 1 0.305918 0.288969 0.0817491 0 0 0 
1126 1 0.300415 0.285843 0.0858591 0 0 0 
1129 1 0.309481 0.283782 0.0836921 0 0 0 
1133 1 0.318513 0.292623 0.0908881 0 0 0 
1131 1 0.31306 0.287825 0.0891895 0 0 0 
1132 1 0.313253 0.294196 0.0874147 0 0 0 
2284 1 0.433092 0.289009 0.0708948 0 0 0 
2276 1 0.425769 0.295659 0.0911139 0 0 0 
2275 1 0.422758 0.300797 0.0936404 0 0 0 
7224 5 0.434095 0.295017 0.095933 -5 -3 0 
2283 1 0.434261 0.292892 0.0753678 0 0 0 
2282 1 0.429127 0.289373 0.0768135 0 0 0 
2278 1 0.431777 0.29829 0.0861692 0 0 0 
2280 1 0.427282 0.294307 0.0813806 0 0 0 
2277 1 0.425954 0.300125 0.0870685 0 0 0 
2279 1 0.42925 0.300645 0.0806309 0 0 0 
2281 1 0.427632 0.295954 0.0753539 0 0 0 
8740 5 0.449471 0.279647 0.0973094 -4 1 3 
2312 1 0.439342 0.289889 0.0976789 0 0 0 
2313 1 0.444301 0.285753 0.0965247 0 0 0 
2314 1 0.439052 0.282947 0.0954219 0 0 0 
2311 1 0.444267 0.292658 0.0957207 0 0 0 
2322 1 0.461594 0.282921 0.0874019 0 0 0 
2538 1 0.549512 0.27796 0.077543 0 0 0 
2537 1 0.544089 0.276459 0.0743843 0 0 0 
2553 1 0.561395 0.277956 0.0706672 0 0 0 
2540 1 0.548556 0.279205 0.0844573 0 0 0 
2541 1 0.546603 0.285214 0.085433 0 0 0 
2539 1 0.544038 0.2805 0.080279 0 0 0 
2542 1 0.547159 0.282055 0.0912241 0 0 0 
7484 5 0.552441 0.275789 0.0895559 -1 1 -1 
2543 1 0.55037 0.287543 0.0920122 0 0 0 
2551 1 0.56122 0.285665 0.0713229 0 0 0 
2552 1 0.557513 0.281156 0.0739405 0 0 0 
2556 1 0.563859 0.268929 0.0770577 0 0 0 
2598 1 0.582172 0.270564 0.0917045 0 0 0 
2597 1 0.5783 0.269686 0.0869931 0 0 0 
2596 1 0.582191 0.275049 0.0858448 0 0 0 
2595 1 0.576212 0.276495 0.0874893 0 0 0 
2594 1 0.57912 0.281709 0.0850639 0 0 0 
2566 1 0.587636 0.268902 0.0814704 0 0 0 
2571 1 0.602128 0.267253 0.0896497 0 0 0 
2568 1 0.591443 0.267864 0.0886365 0 0 0 
2592 1 0.580844 0.288247 0.088991 0 0 0 
2570 1 0.597437 0.268882 0.085089 0 0 0 
2590 1 0.587754 0.287997 0.0918263 0 0 0 
2591 1 0.584277 0.283055 0.0906958 0 0 0 
2593 1 0.57663 0.283889 0.0904517 0 0 0 
8259 5 0.598459 0.274928 0.10296 4 -1 1 
7215 6 0.947625 0.291001 0.0673995 1 -6 -3 
1134 1 0.313782 0.293814 0.0949797 0 0 0 
1135 1 0.317635 0.289232 0.0972789 0 0 0 
1137 1 0.324464 0.290671 0.0946944 0 0 0 
1136 1 0.320781 0.294395 0.0985416 0 0 0 
1138 1 0.32717 0.29169 0.10059 0 0 0 
2310 1 0.439567 0.292251 0.0912988 0 0 0 
2303 1 0.450181 0.302733 0.077073 0 0 0 
2309 1 0.443566 0.297517 0.0909872 0 0 0 
2307 1 0.450106 0.296663 0.0883649 0 0 0 
2308 1 0.445517 0.29258 0.0871019 0 0 0 
2306 1 0.447935 0.297308 0.0818966 0 0 0 
2305 1 0.449761 0.302854 0.0844464 0 0 0 
2304 1 0.444977 0.303656 0.0801091 0 0 0 
7404 5 0.621322 0.312167 0.0777548 -1 6 4 
6962 6 0.866102 0.298831 0.0541872 2 -2 -2 
1256 1 0.232434 0.333715 0.0938681 0 0 0 
8377 5 0.24992 0.336328 0.0794245 3 1 1 
1245 1 0.259309 0.340068 0.0793994 0 0 0 
1243 1 0.265871 0.343993 0.0796736 0 0 0 
1244 1 0.259707 0.34512 0.0833015 0 0 0 
1240 1 0.265777 0.332032 0.0827066 0 0 0 
1242 1 0.264652 0.339545 0.0842313 0 0 0 
1241 1 0.26687 0.336644 0.07891 0 0 0 
1239 1 0.271552 0.334375 0.0837547 0 0 0 
1251 1 0.245757 0.334895 0.0738003 0 0 0 
1236 1 0.274521 0.337563 0.091205 0 0 0 
1238 1 0.268448 0.335131 0.0888335 0 0 0 
1237 1 0.273766 0.331227 0.0896401 0 0 0 
7653 6 0.601306 0.377649 0.0984841 -5 -4 3 
6558 5 0.610005 0.331237 0.0951929 0 -2 -4 
5104 6 0.0421762 0.347867 0.130452 8 2 -4 
8700 5 0.119835 0.324962 0.0781007 0 0 -1 
1257 1 0.227695 0.331288 0.097255 0 0 0 
1249 1 0.248942 0.341256 0.0698137 0 0 0 
1248 1 0.248548 0.343309 0.0758199 0 0 0 
1246 1 0.253954 0.343043 0.0806793 0 0 0 