ITEM: TIMESTEP
20000000
ITEM: NUMBER OF ATOMS
9000
ITEM: BOX BOUNDS pp pp pp
-75 75
-75 75
-75 75
ITEM: ATOMS id type xs ys zs ix iy iz 
6864 6 0.159165 0.00668416 0.00953173 0 4 0 
5320 6 0.327188 0.996015 0.999583 2 2 -1 
5204 6 0.344891 0.0120696 0.0179307 2 1 1 
7288 5 0.321677 0.00321633 0.0345033 2 3 -2 
8338 5 0.531329 0.99875 0.0755312 5 -4 1 
6683 6 0.635135 0.030264 0.0199305 1 1 5 
7959 6 0.16884 0.0804659 0.0137937 4 4 0 
6629 6 0.495326 0.0495232 0.98559 0 -4 0 
8761 5 0.765291 0.0579596 0.00128477 -5 -1 -3 
5309 6 0.795251 0.0766497 0.0125082 2 -1 -4 
6156 5 0.848199 0.0996149 0.0277343 1 1 1 
6060 5 0.298964 0.124164 0.0376024 0 1 0 
5945 6 0.318262 0.0945703 0.00315324 1 -2 2 
8146 5 0.306312 0.140927 0.976234 2 -2 0 
6784 6 0.467314 0.161291 0.972664 -5 3 0 
8769 6 0.101814 0.144679 0.99086 -1 -1 -1 
7189 5 0.846008 0.222201 0.969481 -6 2 -5 
7470 5 0.994396 0.155692 0.00327623 7 3 1 
8844 5 0.38496 0.199795 0.0241823 -2 1 -1 
8519 6 0.768024 0.217613 0.0138968 1 -1 2 
8899 5 0.260539 0.251979 0.995048 3 -8 3 
5276 5 0.266985 0.248928 0.981513 -4 -6 -1 
7081 5 0.461274 0.344097 0.0299595 0 -5 3 
5431 6 0.501694 0.312514 0.00250717 -3 -2 4 
5381 6 0.867987 0.314213 0.00886361 3 -2 -2 
7114 5 0.963188 0.316454 0.999725 1 -1 -1 
6447 5 0.57177 0.379627 0.994862 -1 4 -1 
8828 6 0.0201633 0.411836 0.989257 3 -2 1 
6728 5 0.593117 0.396318 0.962528 -3 6 -2 
6869 6 0.669105 0.377075 0.0222418 -1 0 1 
6574 5 0.082534 0.442136 0.0327378 -1 2 3 
7500 6 0.248707 0.400373 0.987651 -3 -2 -5 
5174 5 0.526844 0.42301 0.982375 0 2 -1 
8020 6 0.362093 0.423794 0.0160027 7 -6 -1 
5322 5 0.518309 0.485759 0.0819156 1 -1 0 
7732 5 0.0401973 0.457172 0.0216221 -3 2 -2 
5589 6 0.182766 0.499551 0.0432925 1 -1 2 
7220 5 0.096092 0.615331 0.00908039 1 -3 4 
8634 6 0.828484 0.621065 0.966743 0 -5 -2 
5882 5 0.870558 0.59812 0.0103731 2 2 2 
5134 6 0.370967 0.63431 0.994436 -1 -1 3 
5042 6 0.00355069 0.688715 0.0105349 1 0 1 
8567 6 0.217482 0.665501 0.0396074 3 5 -3 
7851 6 0.861582 0.66356 0.991298 -2 0 -1 
5424 6 0.954458 0.655356 0.0462339 3 -3 0 
5737 5 0.442318 0.726679 0.997686 -5 -2 -1 
8189 5 0.113682 0.700593 0.0144506 0 1 -1 
8152 5 0.795336 0.678418 0.0192912 2 0 1 
6253 5 0.229048 0.809752 0.0435185 1 -2 -6 
8755 5 0.364441 0.77725 0.0590665 -2 1 6 
8031 6 0.703583 0.814529 0.982609 0 -1 0 
5036 6 0.091281 0.807016 0.00353487 1 -1 1 
8495 6 0.77944 0.795444 0.954937 2 -1 0 
7136 6 0.220635 0.843006 0.0369072 3 3 2 
8721 6 0.281089 0.855709 0.023346 1 -1 2 
6079 6 0.362106 0.874623 0.00413431 -2 2 3 
5385 6 0.744271 0.860446 0.0411878 0 2 -1 
7901 6 0.337382 0.892057 0.00433408 -6 3 0 
6841 6 0.415739 0.908122 0.000754252 -1 -5 0 
8940 6 0.411566 0.91573 0.000349327 -4 -2 3 
7007 5 0.729401 0.91049 0.00739319 -2 1 -3 
6035 6 0.397573 0.935441 0.997772 0 0 1 
6138 6 0.895869 0.920081 0.00773109 3 1 0 
6866 6 0.762085 0.958119 0.99134 2 4 0 
7633 6 0.0429015 0.968808 0.0283414 1 -3 -5 
5884 6 0.260507 0.995297 0.992117 2 -3 4 
8974 6 0.507518 0.986966 0.994035 -4 2 -2 
7057 5 0.518002 0.034831 0.0193876 -1 2 0 
8883 6 0.610255 0.968485 0.97009 1 -2 -1 
8279 6 0.799092 0.00325347 0.00732629 -1 4 -2 
7525 5 0.544931 0.0275188 0.0286801 -3 0 0 
8219 5 0.687699 0.0247898 0.055713 1 -2 1 
5270 6 0.81709 0.0929509 0.0320495 2 -1 1 
6592 5 0.842672 0.0409247 0.0281058 -1 1 8 
7094 6 0.867383 0.113805 0.0475768 -4 2 0 
8479 6 0.352207 0.118921 0.0549839 -7 8 4 
8722 6 0.776395 0.168351 0.034616 -3 1 -1 
6917 6 0.290753 0.187239 0.0497431 0 1 0 
7213 6 0.682299 0.168484 0.00371567 -2 2 4 
7078 5 0.877151 0.17795 0.0163836 -2 -12 -4 
8763 5 0.84328 0.230124 0.0485229 1 -1 1 
7289 6 0.0187541 0.261535 0.052002 2 -3 -3 
5242 6 0.260757 0.265964 0.0384524 1 2 1 
8583 5 0.553303 0.198881 0.035983 -2 1 4 
5273 5 0.791047 0.241628 0.0160324 -4 3 0 
7611 5 0.987944 0.24539 0.0278949 4 2 -1 
8342 6 0.395352 0.246908 0.0150738 0 5 0 
8041 6 0.428908 0.309805 0.999273 -5 2 -1 
8460 6 0.04423 0.30638 0.0433569 6 3 -4 
8838 6 0.616538 0.308154 0.0456527 -1 2 4 
6565 6 0.847198 0.344624 0.0374333 -1 5 4 
8334 6 0.322661 0.335855 0.0231663 4 3 4 
5899 6 0.499832 0.308369 0.0588132 4 3 0 
7714 6 0.030694 0.348 0.0483572 1 -4 -1 
5383 5 0.634756 0.355386 0.0771693 0 3 0 
8961 5 0.0467928 0.374545 0.0323718 1 4 -1 
8497 6 0.526731 0.387829 0.0323611 1 1 -1 
7915 5 0.752314 0.392454 0.0224039 2 -2 -3 
5581 5 0.777471 0.395361 0.0189774 -3 -1 -2 
7875 6 0.0533355 0.404978 0.0742269 -2 -2 -1 
6056 6 0.199296 0.408544 0.0276813 3 2 2 
8580 5 0.510027 0.388057 0.0171466 2 2 -1 
6487 5 0.147098 0.433353 0.0752964 0 0 2 
6119 6 0.31038 0.439854 0.0326982 1 1 1 
8120 6 0.455437 0.429922 0.0669584 -1 2 -2 
8628 6 0.785023 0.411761 0.0701631 0 -3 -1 
5782 6 0.967989 0.400194 0.0268517 2 6 -4 
5662 5 0.626905 0.453568 0.0564023 -3 -2 4 
5115 6 0.0150168 0.452524 0.0377653 -3 -3 4 
6193 6 0.288416 0.440959 0.0309832 -4 2 3 
7841 5 0.83549 0.478925 0.0159017 -1 0 0 
5329 5 0.848875 0.45672 0.0464521 -5 -1 5 
8913 6 0.561094 0.524439 0.00417235 0 0 1 
7971 6 0.213809 0.490477 0.0225017 -2 -2 -4 
5925 6 0.244141 0.516451 0.026633 3 -4 -3 
8901 5 0.252279 0.540952 0.0269942 -2 8 2 
5648 6 0.0599835 0.583969 0.0560056 -4 0 -1 
5740 6 0.211043 0.605244 0.0225468 -2 -4 1 
8333 6 0.139232 0.653476 0.0650589 -1 1 4 
5063 6 0.577568 0.627987 0.0241604 1 -1 -1 
6435 6 0.441903 0.67236 0.0377179 1 1 3 
7223 5 0.410314 0.664097 0.0707224 3 3 2 
7363 5 0.241726 0.668947 0.0378735 -6 -2 1 
5829 5 0.580329 0.718627 0.0448134 -2 -2 -2 
5419 6 0.976221 0.741185 0.0442023 1 -1 3 
7216 6 0.00797769 0.770962 0.0308527 1 -1 -5 
7257 6 0.147582 0.738291 0.0088742 4 -6 0 
8069 6 0.839139 0.775388 0.038847 3 -2 -2 
8025 6 0.980723 0.775964 0.0346633 -4 3 7 
8541 5 0.88249 0.820418 0.0158013 3 -2 0 
5297 6 0.00954221 0.779307 0.0131727 -3 0 4 
7731 6 0.128332 0.81593 0.051828 1 -3 0 
7218 5 0.335038 0.897805 0.0202725 -2 -3 3 
8878 5 0.662924 0.863347 0.0266671 2 -6 -6 
7899 6 0.954678 0.83425 0.00285796 -6 -1 -1 
6837 6 0.056617 0.918572 0.0200184 1 -2 3 
7729 6 0.091869 0.884206 0.058657 3 -6 -2 
8980 6 0.678349 0.8935 0.0290761 1 -1 2 
6351 5 0.0853457 0.918534 0.0297526 6 -5 -3 
5022 6 0.190892 0.958314 0.0465222 1 0 -2 
7275 6 0.342902 0.0204015 0.0636284 -1 3 3 
8278 5 0.922062 0.999571 0.0314568 3 -3 -1 
7566 5 0.42451 0.00963021 0.043266 0 4 5 
5979 5 0.450049 0.995128 0.0501756 2 2 0 
5883 6 0.596225 0.0290306 0.0572417 -2 3 4 
8853 5 0.814874 0.0214457 0.0327865 0 -1 6 
7315 6 0.964774 0.999401 0.0588392 2 -2 -1 
5231 6 0.285397 0.0210835 0.0230787 -2 -1 -1 
8042 6 0.509233 0.0281605 0.0143888 2 3 -2 
8501 5 0.000157363 0.031572 0.0331994 -3 -7 4 
7839 5 0.580417 0.0850824 0.0943795 -2 4 1 
5815 5 0.741519 0.0411071 0.0941632 1 0 -2 
7680 6 0.901958 0.0626067 0.0655973 1 6 5 
6985 5 0.0479546 0.0515235 0.0617848 -3 6 3 
7910 6 0.637314 0.0457558 0.107286 -4 -3 -1 
8341 6 0.623084 0.0991436 0.0714304 -3 2 6 
6604 6 0.026576 0.112659 0.035163 0 1 -2 
6050 6 0.0803537 0.135223 0.0625235 3 2 -1 
6275 5 0.918217 0.107168 0.0590103 2 1 -2 
8796 6 0.0323841 0.145004 0.0620271 3 -4 -3 
8772 5 0.257185 0.127515 0.00941926 0 -3 1 
7059 6 0.329462 0.102941 0.0751329 5 1 -4 
6139 5 0.342493 0.17852 0.0751847 0 3 0 
8846 6 0.284609 0.167687 0.0893783 3 -1 3 
6001 6 0.993156 0.220677 0.044104 1 1 5 
6230 5 0.16453 0.193867 0.0482762 0 0 -1 
7958 6 0.433258 0.187738 0.0679866 1 2 2 
7828 5 0.752402 0.197755 0.0500375 2 2 -1 
8264 6 0.784317 0.179148 0.0719568 -1 0 -2 
8038 5 0.868861 0.178819 0.0735409 0 1 -4 
6749 6 0.0533767 0.227683 0.0538058 -1 -2 0 
8605 5 0.129659 0.228645 0.0758982 -2 2 1 
6030 5 0.384284 0.219894 0.0439372 -4 -3 2 
8890 5 0.850296 0.224424 0.0425642 -2 1 7 
6131 5 0.0269833 0.250723 0.0372862 0 1 -1 
5205 5 0.455699 0.269186 0.111376 4 1 2 
6471 5 0.747921 0.239676 0.0847355 -1 1 -5 
5597 6 0.0481571 0.280731 0.039581 -6 1 0 
6183 5 0.176619 0.271738 0.0688669 0 1 0 
6617 6 0.0777082 0.32249 0.061457 -1 5 0 
8453 6 0.420211 0.290204 0.0641288 5 -4 3 
7064 5 0.809067 0.318099 0.0816582 -3 0 1 
6992 6 0.519617 0.368265 0.0707239 5 -1 2 
5449 6 0.738268 0.386589 0.0588088 -1 -2 0 
6831 5 0.819586 0.380216 0.053166 -3 -2 3 
5191 5 0.475399 0.31162 0.0568854 0 -5 4 
5023 6 0.561655 0.373775 0.0525467 5 -5 0 
8504 6 0.969277 0.337511 0.0597578 -1 -4 1 
6829 5 0.00213994 0.396723 0.0878179 -2 0 -2 
5610 5 0.0469117 0.403795 0.0355492 3 2 4 
6076 5 0.757893 0.41539 0.025188 4 5 -1 
6041 5 0.706079 0.422215 0.0706519 1 1 0 
8636 6 0.894701 0.401048 0.083303 1 2 -2 
5729 6 0.165783 0.455283 0.0772091 4 2 5 
8265 5 0.348482 0.442652 0.0693856 0 0 -2 
6225 5 0.0214269 0.441523 0.0798021 5 0 1 
6766 5 0.130079 0.437748 0.0689313 -1 -1 1 
6338 6 0.369624 0.48228 0.0390566 -3 -2 2 
6752 6 0.378179 0.509943 0.0412589 -3 1 6 
8094 5 0.838564 0.460602 0.0615526 -1 -3 -1 
5225 6 0.136019 0.51955 0.0920103 0 4 1 
6549 6 0.232291 0.512583 0.0701774 4 -2 0 
6780 6 0.612381 0.504981 0.014887 1 0 2 
8631 6 0.312084 0.564433 0.0699381 6 -2 -4 
7212 5 0.423918 0.549472 0.0597298 -2 9 4 
5526 5 0.559865 0.535872 0.0853808 0 2 -1 
8850 5 0.618663 0.56059 0.0549905 4 -3 3 
5010 6 0.811508 0.545418 0.0477626 0 7 2 
8454 6 0.0210809 0.572167 0.0534764 1 0 -1 
8108 5 0.613234 0.595548 0.0281584 1 -1 -1 
6300 6 0.954447 0.608742 0.0593836 4 1 2 
5959 6 0.228402 0.637385 0.0828177 -5 -3 -3 
5356 6 0.378455 0.61928 0.0277583 -3 2 0 
6073 5 0.364612 0.660476 0.0622388 1 6 2 
5612 6 0.799898 0.692285 0.0400617 1 1 3 
7332 6 0.27987 0.682713 0.081184 1 2 2 
5463 6 0.329957 0.689332 0.0544903 4 1 2 
5695 5 0.896825 0.673036 0.0278031 -1 1 3 
7790 6 0.157132 0.702019 0.039422 1 2 -1 
8431 5 0.445774 0.738541 0.0667189 -1 -3 1 
8790 6 0.691926 0.71148 0.0425503 3 -7 -1 
8140 5 0.933879 0.713266 0.0593395 2 -3 -1 
7207 5 0.0450969 0.73104 0.0393445 2 0 0 
8319 5 0.124328 0.735294 0.0789064 2 2 4 
7974 5 0.801295 0.74678 0.0429962 1 7 4 
6199 5 0.344603 0.775866 0.0708722 3 4 3 
8578 5 0.444288 0.732341 0.0967675 2 -5 -1 
5131 6 0.582167 0.753043 0.0730495 -3 3 0 
5889 5 0.150722 0.775397 0.0321342 1 -7 1 
7267 6 0.34535 0.786999 0.0561651 1 4 1 
8072 5 0.390025 0.803956 0.982456 4 1 -2 
8215 5 0.409155 0.751697 0.00690684 1 -2 0 
7333 6 0.354678 0.82809 0.00609449 6 1 1 
5479 5 0.729808 0.806338 0.0279898 2 3 -5 
5632 6 0.863692 0.774385 0.0407602 2 1 5 
7625 6 0.118086 0.823395 0.0653006 3 -8 -1 
6463 5 0.679252 0.80706 0.0542164 -8 -2 1 
7178 5 0.32647 0.841793 0.0617113 2 2 6 
7872 6 0.56245 0.84533 0.110477 -2 0 -6 
5592 5 0.899031 0.884602 0.0764547 -3 1 -6 
5178 6 0.00159721 0.882921 0.0892378 0 -1 1 
7805 5 0.465185 0.885173 0.0544583 -6 2 0 
8681 5 0.844545 0.910993 0.0790268 5 -1 1 
7955 5 0.893435 0.934214 0.0252939 3 1 4 
7171 6 0.679255 0.887657 0.0558141 4 2 -2 
6562 6 0.503851 0.912115 0.00342197 1 -2 1 
7071 6 0.642298 0.917161 0.112002 -6 2 0 
8197 6 0.0361644 0.948322 0.0469627 3 -4 1 
6451 5 0.0400641 0.917453 0.0860824 1 1 0 
8928 5 0.366507 0.96345 0.0714172 0 -6 4 
8619 5 0.647777 0.949242 0.0405017 1 3 1 
7294 5 0.961011 0.98871 0.0590383 -5 -2 -1 
5957 6 0.288201 0.985541 0.0584702 0 2 5 
7176 6 0.573793 0.0274826 0.0962728 1 -4 2 
8040 6 0.974354 0.0296356 0.0467289 -1 5 3 
8026 5 0.174484 0.0778136 0.0422796 0 -8 2 
7723 6 0.25908 0.0928664 0.0644619 3 3 0 
8762 5 0.691166 0.0420882 0.0858089 -4 -2 -4 
7526 6 0.755402 0.0648839 0.0797488 2 2 -2 
5183 6 0.292876 0.0491204 0.104066 -1 2 -3 
6102 5 0.957095 0.112275 0.0558074 -2 -2 -1 
6005 5 0.440208 0.116784 0.0794989 2 5 4 
8908 6 0.775733 0.118357 0.094748 -1 4 1 
8798 6 0.200902 0.165254 0.0835838 -5 -2 2 
6844 5 0.886866 0.136447 0.0475853 4 5 -1 
6990 6 0.865193 0.106639 0.122505 6 1 0 
7160 5 0.319917 0.142408 0.124212 2 4 0 
8390 6 0.326873 0.151544 0.108569 -1 -2 -1 
8467 5 0.543447 0.162407 0.0556193 -2 2 -1 
5522 5 0.680454 0.157497 0.0857057 1 1 2 
8862 5 0.684719 0.145991 0.0969497 1 3 -1 
6503 6 0.777219 0.155385 0.0873763 2 0 -4 
8093 5 0.0715231 0.197617 0.0939574 5 8 -1 
8005 5 0.334626 0.148048 0.0889139 2 -2 -1 
8794 6 0.466513 0.172045 0.0671441 -1 -2 -2 
5602 6 0.654829 0.216318 0.140723 1 2 -5 
8845 5 0.720766 0.220456 0.0564938 -2 -2 1 
6042 5 0.885067 0.211665 0.0892642 4 2 7 
8179 5 0.395324 0.208656 0.0883408 4 1 -4 
6283 5 0.661505 0.230409 0.0955564 2 -2 -2 
7456 6 0.717463 0.223588 0.0921301 -3 7 -3 
7454 5 0.771041 0.201018 0.0667503 1 -3 7 
8153 5 0.964577 0.197075 0.101707 4 2 -3 
7663 5 0.27213 0.239648 0.0803753 -6 -3 2 
7961 6 0.564269 0.256461 0.0645816 0 -1 6 
6409 6 0.483213 0.267983 0.086016 -1 0 -3 
5287 6 0.822086 0.256069 0.0685021 -5 4 0 
7190 6 0.471711 0.26307 0.0976632 0 -3 3 
6373 5 0.685552 0.292867 0.0664488 0 1 0 
6511 6 0.758875 0.351616 0.104959 2 -2 4 
6757 6 0.798404 0.308396 0.0405246 -2 -3 2 
6915 5 1.00021 0.310265 0.110434 -5 -2 -2 
6237 5 0.0271006 0.301068 0.050418 2 2 1 
8934 5 0.23191 0.373363 0.0825156 1 -5 2 
7101 6 0.475559 0.314909 0.109427 0 -1 1 
8397 5 0.37728 0.345414 0.0514636 3 -2 1 
7896 5 0.531557 0.379932 0.0558872 3 1 3 
8859 5 0.607186 0.367257 0.116861 -2 -1 1 
5488 6 0.495003 0.40649 0.0797358 0 1 3 
8595 5 0.00586854 0.444535 0.104525 -5 7 2 
7804 6 0.940287 0.426845 0.0475859 1 0 2 
6043 6 0.00988728 0.436743 0.080133 1 1 3 
8922 6 0.0126937 0.418528 0.0734174 1 0 -1 
8802 5 0.313501 0.404848 0.098014 -4 3 0 
6593 5 0.82851 0.490029 0.0985608 -5 0 1 
6627 6 0.995453 0.421582 0.0751633 0 -4 -2 
8403 6 0.166954 0.494384 0.0855044 -1 0 -1 
5809 5 0.241999 0.532346 0.0644891 0 -1 3 
7801 6 0.428095 0.540543 0.0781653 -6 6 -1 
7074 6 0.570444 0.502653 0.0538916 -4 1 2 
7246 5 0.764705 0.515273 0.077184 -2 2 4 
8843 6 0.755564 0.512302 0.0717047 -1 -1 2 
5164 6 0.90598 0.511698 0.0489729 3 4 0 
5898 5 0.389988 0.535076 0.110529 -4 0 -1 
5061 6 0.92424 0.505772 0.0836428 1 2 3 
8262 5 0.963149 0.533157 0.113325 1 4 1 
5464 6 0.502021 0.589689 0.080415 7 0 -1 
5748 6 0.514751 0.613942 0.0840187 1 1 -1 
7448 6 0.366133 0.604553 0.0892826 3 2 0 
6390 6 0.344269 0.6039 0.107508 1 -1 2 
7282 6 0.532393 0.586976 0.086142 -3 -2 1 
6979 6 0.545972 0.60111 0.0594558 -4 -2 1 
5705 5 0.890798 0.636012 0.0726368 -8 -2 1 
6312 5 0.698387 0.614706 0.0506674 -3 -1 -1 
7518 6 0.258269 0.660249 0.102214 2 4 0 
6084 6 0.347616 0.658569 0.0353649 1 0 -1 
5459 6 0.512452 0.662231 0.0669997 1 5 -3 
5753 6 0.788607 0.666501 0.0758462 -2 1 2 
5410 6 0.0573303 0.664213 0.065769 0 2 3 
7861 5 0.930588 0.698041 0.070021 4 0 2 
7877 6 0.138799 0.649151 0.0713947 -4 -2 4 
8891 6 0.906204 0.704264 0.0929781 -7 3 1 
8638 5 0.98725 0.706367 0.0690599 -2 -2 3 
8512 6 0.129148 0.749705 0.0371897 1 7 0 
6634 5 0.18346 0.716672 0.0810116 1 -2 3 
8577 5 0.945444 0.693047 0.084827 -1 2 6 
7239 6 0.162152 0.743907 0.122826 -7 -1 7 
5912 6 0.205187 0.705427 0.0802494 1 -4 -1 
5160 6 0.643614 0.742462 0.104762 0 0 5 
6194 6 0.717558 0.736888 0.0824534 -4 6 3 
5054 5 0.283342 0.766304 0.0721647 1 -2 0 
6125 6 0.653667 0.783322 0.0764913 1 0 2 
8429 5 0.0380765 0.807429 0.10548 1 0 -3 
5367 5 0.494725 0.842323 0.0610998 7 0 0 
5772 5 0.73036 0.800905 0.0829366 4 -4 4 
6376 5 0.22711 0.794111 0.108304 3 6 4 
6360 6 0.393113 0.89277 0.0735181 0 -1 -4 
5440 6 0.461849 0.870943 0.0629505 -3 2 4 
5984 5 0.515574 0.891112 0.0413348 4 -6 2 
7854 6 0.714617 0.877416 0.081691 1 1 3 
5904 5 0.674156 0.900228 0.0260583 0 -1 0 
5076 5 0.733087 0.877232 0.0907888 2 -2 -2 
7075 6 0.997274 0.953906 0.104397 3 0 0 
6970 6 0.310765 0.921476 0.110773 -2 1 2 
6646 6 0.311053 0.940057 0.0804418 -1 2 2 
8644 5 0.574531 0.892822 0.0992034 0 1 3 
8494 6 0.688735 0.917097 0.0543011 1 -3 2 
6609 6 0.92623 0.976975 0.0742301 2 -3 -2 
6616 6 0.89297 0.987787 0.0702376 6 2 1 
6679 5 0.922103 0.016119 0.102603 -3 -7 -3 
5333 5 0.183499 0.0380872 0.102485 -5 -4 0 
8915 5 0.942753 0.0117715 0.0704621 2 0 5 
6713 6 0.281962 0.0212826 0.103155 -1 1 3 
8082 5 0.479804 0.075288 0.127209 0 0 0 
8070 5 0.755875 0.0548278 0.112451 2 4 0 
7406 6 0.995462 0.0296497 0.0661667 4 0 3 
7869 5 0.977955 0.036119 0.107009 4 1 3 
7076 5 0.363424 0.131218 0.0971989 5 3 1 
7031 5 0.865618 0.126246 0.100766 4 1 -1 
8225 6 0.0340837 0.15086 0.125562 6 4 -1 
6421 6 0.432862 0.217864 0.0975603 1 -3 -3 
7835 5 0.687189 0.162211 0.101603 4 2 4 
7106 6 0.234403 0.200187 0.140525 -1 7 1 
6509 5 0.476271 0.191054 0.116275 -2 2 -4 
6460 6 0.532363 0.254026 0.0935694 -2 -3 1 
8785 6 0.881123 0.160557 0.094735 -1 2 4 
6513 6 0.566045 0.223193 0.0949929 -4 -2 2 
7369 5 0.226345 0.327091 0.116009 1 0 -1 
6651 6 0.758941 0.3076 0.115125 -3 4 1 
6095 6 0.293873 0.35865 0.0827009 2 0 -2 
6339 6 0.193412 0.353123 0.124136 0 1 1 
7668 6 0.361002 0.34069 0.159452 2 -4 -3 
6354 5 0.765587 0.347429 0.117816 -3 6 3 
7345 5 0.152896 0.392709 0.0783508 0 -1 -1 
5709 6 0.185437 0.420845 0.0990166 1 0 1 
7550 6 0.345364 0.427122 0.103573 -1 3 -4 
8863 6 0.352727 0.460502 0.120992 -6 -2 -2 
6790 5 0.362659 0.48363 0.0986885 -1 0 0 
6306 6 0.43179 0.431517 0.0990597 -2 -1 0 
8966 6 0.528099 0.437575 0.119833 -1 0 5 
7586 5 0.22908 0.498161 0.105687 0 -3 -2 
5944 5 0.30483 0.539253 0.0978083 0 1 -1 
7427 6 0.948714 0.515957 0.115615 -2 -3 -4 
6922 6 0.926744 0.541815 0.136845 -4 -3 1 
8226 6 0.584049 0.582453 0.1177 2 1 -1 
6057 5 0.585685 0.516584 0.0798259 7 1 0 
6367 6 0.71424 0.544263 0.0853596 0 1 -3 
6704 6 0.800933 0.570368 0.102088 -3 2 5 
8730 6 0.539045 0.627609 0.0821398 -1 2 -4 
5941 5 0.991497 0.604097 0.134513 0 -3 4 
8705 6 0.0595795 0.658419 0.0812009 1 3 3 
5590 6 0.163948 0.697633 0.123352 0 2 -1 
5858 6 0.0992945 0.733652 0.104783 3 -4 4 
5491 5 0.479996 0.727733 0.123732 3 -3 3 
6905 6 0.943669 0.786021 0.110827 -2 5 -1 
8074 6 0.331204 0.820155 0.108849 0 1 4 
8128 6 0.646786 0.770913 0.1175 -2 -3 -3 
6661 5 0.113478 0.803915 0.0848071 0 0 -3 
5635 6 0.284897 0.831688 0.0998279 1 -2 0 
5011 5 0.00885031 0.787408 0.130341 -1 4 -1 
5009 6 0.103147 0.873626 0.108683 -2 3 1 
8073 5 0.360817 0.855033 0.0966995 -2 1 -2 
6187 6 0.282765 0.872257 0.0772204 -3 -5 -3 
5053 6 0.615405 0.921607 0.104371 0 3 0 
5376 6 0.110182 0.952753 0.0893466 2 -1 1 
6091 5 0.586287 0.90779 0.135556 0 -1 0 
8999 6 0.865868 0.914158 0.106943 1 1 1 
5369 5 0.936311 0.893121 0.112657 3 0 4 
5785 5 0.949495 0.948338 0.121774 3 4 4 
5445 6 0.481633 0.927627 0.0834696 0 -4 4 
5338 6 0.662574 0.912534 0.0948559 1 2 -1 
7091 5 0.887244 0.928553 0.0991455 0 -1 0 
6951 6 0.967805 0.947736 0.137622 -1 -5 0 
6062 6 0.153777 0.955429 0.134324 -2 -5 3 
7508 6 0.885025 0.0121296 0.0970573 -4 -1 3 
8592 5 0.976065 0.96718 0.125179 -1 1 -3 
8194 6 0.841976 0.986848 0.117556 1 -4 -1 
6417 6 0.413882 0.0330086 0.120198 -4 7 -1 
6838 5 0.543639 0.0415853 0.117988 1 0 2 
6712 5 0.0186166 0.0199028 0.136049 6 5 2 
8016 5 0.0872053 0.0460757 0.114909 -2 -2 1 
6104 6 0.915302 0.00848431 0.111058 0 6 -4 
6252 6 0.0796652 0.0683471 0.118959 0 1 2 
5026 6 0.694304 0.0621195 0.125379 3 6 -5 
5083 5 0.880597 0.063791 0.15851 5 2 1 
7888 6 0.364328 0.115757 0.0903718 2 -1 2 
7177 6 0.535047 0.11798 0.143466 -4 0 3 
7453 5 0.65316 0.118539 0.153138 1 0 2 
6722 6 0.298974 0.188187 0.115408 2 -1 -2 
8629 5 0.431073 0.180159 0.139429 0 1 -2 
6719 6 0.429713 0.134865 0.141218 0 1 0 
8176 6 0.453444 0.182577 0.123786 2 -2 -4 
8427 5 0.342601 0.213156 0.139913 0 1 -1 
7164 6 0.468449 0.232572 0.101918 5 -3 4 
7411 5 0.890035 0.200427 0.113579 0 -2 2 
8823 6 0.00389356 0.222761 0.120889 2 -2 3 
8589 6 0.261956 0.225542 0.144897 1 0 -2 
5549 6 0.830865 0.254677 0.104756 1 4 2 
7485 5 0.241975 0.309471 0.141754 -2 1 6 
6145 6 0.399965 0.299478 0.110467 4 1 3 
8529 6 0.539954 0.30874 0.130055 -1 5 -1 
7930 6 0.102074 0.348682 0.111488 3 -1 -5 
5571 6 0.333622 0.304176 0.134173 0 -2 -3 
7471 6 0.55455 0.386883 0.143354 -2 3 1 
8719 5 0.76985 0.434173 0.11155 0 4 9 
5668 6 0.174639 0.367568 0.11959 -6 0 -3 
7590 6 0.767214 0.354127 0.14899 3 -5 -3 
7979 6 0.5686 0.441217 0.14337 -4 5 1 
5854 5 0.597084 0.399421 0.141237 -2 -2 0 
5417 5 0.927606 0.409612 0.124278 0 2 7 
8309 6 0.307431 0.472821 0.138454 3 -3 5 
8799 5 0.680626 0.446166 0.0929057 -1 3 2 
7397 6 0.0221239 0.458161 0.0977042 2 -2 5 
7676 6 0.987347 0.44697 0.0989737 -1 2 1 
8725 6 0.233504 0.510747 0.139401 4 7 -1 
6159 5 0.782755 0.516716 0.148037 0 -1 7 
7341 5 0.809382 0.520683 0.0870712 4 1 0 
8360 5 0.0372354 0.500039 0.13839 0 2 -3 
6799 5 0.546494 0.480619 0.13114 -2 7 3 
5587 6 0.766366 0.486983 0.129771 0 -1 2 
6816 5 0.814879 0.504756 0.0996054 1 -1 4 
5733 6 0.330673 0.580087 0.0859745 -5 2 -1 
5149 6 0.548335 0.553953 0.11154 -2 3 2 
8900 6 0.0997232 0.614957 0.121434 -4 -1 -2 
6162 5 0.382709 0.614305 0.155836 -2 -2 -1 
7069 5 0.162576 0.631161 0.118174 -3 0 4 
8800 6 0.923873 0.625407 0.105522 4 6 6 
5506 6 0.629025 0.582361 0.108106 -3 -2 1 
7457 5 0.575115 0.667312 0.131491 0 -2 3 
7996 5 0.70677 0.66092 0.118384 -9 -1 4 
6686 6 0.669888 0.646158 0.121096 -2 -8 1 
6716 5 0.233551 0.734755 0.143367 0 1 -1 
6742 6 0.0224811 0.720548 0.105706 0 -1 5 
7690 6 0.372899 0.705698 0.141721 -1 2 -1 
5935 6 0.821003 0.729986 0.121081 0 0 5 
6123 6 0.806501 0.727949 0.0970651 -3 -3 2 
7023 6 0.173045 0.780618 0.151206 2 1 1 
5810 6 0.369037 0.723382 0.165432 6 -3 4 
7309 6 0.560736 0.755431 0.0980382 1 2 2 
6216 5 0.623614 0.763136 0.125375 -3 0 1 
6170 6 0.965447 0.786431 0.095513 3 1 -5 
6559 5 0.978182 0.773219 0.171146 2 0 2 
5703 6 0.228334 0.78571 0.124758 0 -3 1 
8205 5 0.307751 0.772572 0.160109 -3 -1 -1 
6247 6 0.00838249 0.826962 0.0837795 2 0 2 
5316 5 0.666896 0.858938 0.150851 3 2 -2 
5803 6 0.00381636 0.829791 0.0961614 3 1 3 
8452 6 0.459791 0.873937 0.154576 -3 6 3 
6160 5 0.988257 0.909059 0.124712 -3 -2 1 
5294 6 0.69681 0.921962 0.103325 5 1 5 
8164 6 0.429854 0.947883 0.0925447 -3 3 -2 
5877 6 0.655549 0.941075 0.118893 -6 -1 0 
6452 6 0.404507 0.980485 0.126234 2 1 -1 
6492 5 0.0972471 0.999332 0.107262 0 3 1 
7982 6 0.379002 0.972567 0.11963 3 1 2 
8545 5 0.277369 0.00330976 0.120042 3 4 -1 
7726 5 0.423557 0.966114 0.181483 -1 0 -3 
5350 5 0.560719 0.980888 0.136998 -4 2 3 
7155 6 0.814902 0.0141252 0.191746 -7 -3 -1 
8888 6 0.996871 0.0228969 0.160898 -2 2 -2 
6836 5 0.205635 0.0493731 0.168864 -1 -1 -2 
6867 5 0.338419 0.0678033 0.186152 2 -2 0 
8917 6 0.288819 0.0878836 0.158824 1 -2 0 
7004 6 0.886129 0.0660396 0.182846 -6 0 -2 
6731 5 0.215941 0.127941 0.16634 4 -2 3 
7226 5 0.450998 0.128635 0.134305 0 4 1 
8679 5 0.911396 0.123133 0.188015 1 1 3 
5954 6 0.316284 0.165952 0.179715 -1 -1 -4 
8253 6 0.139099 0.181474 0.134427 4 0 -3 
8008 5 0.382872 0.239286 0.134501 -1 -1 1 
8410 6 0.541349 0.227107 0.117219 0 5 3 
6172 6 0.655003 0.215877 0.191686 -6 7 -3 
6526 6 0.193746 0.302451 0.10853 -2 2 1 
5502 6 0.470741 0.265632 0.163392 4 -2 -1 
6122 6 0.466781 0.241185 0.167733 3 -1 -3 
5868 6 0.165605 0.33692 0.140605 4 -1 1 
5033 5 0.312607 0.318024 0.119711 -3 -3 -6 
6605 5 0.387459 0.325991 0.112779 1 -2 4 
5300 6 0.554316 0.305834 0.157556 1 5 7 
7144 6 0.659674 0.338007 0.153781 0 3 2 
8981 6 0.902648 0.373366 0.122677 2 6 5 
8059 6 0.530547 0.363648 0.14731 1 0 3 
5079 5 0.577284 0.360928 0.156821 -5 3 -1 
7879 6 0.750284 0.361051 0.120647 2 0 1 
5643 6 0.95045 0.325891 0.187141 -4 -5 1 
7402 5 0.11356 0.381616 0.163918 -1 1 4 
5584 5 0.202472 0.342528 0.132838 1 -2 -2 
7964 5 0.252181 0.354233 0.130261 6 -4 2 
7053 6 0.268934 0.401893 0.133668 6 -1 4 
8071 5 0.422883 0.442729 0.14791 0 1 0 
8022 6 0.646208 0.381783 0.179532 -2 2 -2 
8461 6 0.817113 0.386042 0.147967 4 7 -2 
7141 5 0.12161 0.451496 0.147705 6 0 -3 
5387 5 0.931641 0.417356 0.168402 3 -1 -5 
8518 5 0.021359 0.454407 0.167991 -1 -3 -1 
8991 6 0.0742801 0.505044 0.146358 -6 -5 1 
8726 5 0.220032 0.491294 0.147214 3 -2 -1 
7617 6 0.487699 0.493223 0.175873 -1 1 -1 
7638 6 0.697911 0.469382 0.154369 2 -5 3 
5230 5 0.517058 0.503003 0.155969 0 0 7 
6355 6 0.972453 0.487911 0.145013 -2 -1 0 
6966 6 0.603419 0.552218 0.171543 -1 -1 1 
7337 5 0.579112 0.586997 0.15345 1 0 2 
6313 6 0.882654 0.529423 0.162325 1 -5 1 
6378 6 0.340462 0.55241 0.152833 3 6 -1 
6381 5 0.804239 0.556131 0.125964 -2 -3 1 
6485 6 0.267283 0.586057 0.131522 0 1 5 
6932 5 0.523511 0.596628 0.101642 3 4 -1 
5910 6 0.808979 0.580518 0.122603 -5 -2 4 
8307 5 0.835622 0.576808 0.119371 1 1 1 
8099 6 0.952196 0.572144 0.151171 -1 -2 -3 
8507 6 0.286312 0.654826 0.140288 -1 3 4 
6077 6 0.249327 0.599063 0.14615 4 3 3 
6512 5 0.787697 0.599276 0.176211 -3 -4 -1 
5546 5 0.926685 0.599771 0.127522 -1 0 0 
5606 5 0.32854 0.639202 0.13944 -4 -5 2 
7183 6 0.355131 0.624978 0.152501 0 4 1 
7860 5 0.658131 0.619917 0.166725 0 -3 2 
7695 6 0.205805 0.661791 0.130568 -4 0 2 
7704 5 0.455594 0.624795 0.165781 1 2 2 
7911 5 0.470305 0.660914 0.136065 -4 -3 0 
5879 5 0.971953 0.66749 0.175041 1 0 3 
7589 6 0.97921 0.730656 0.192325 2 1 5 
6315 5 0.0806691 0.74315 0.151384 -2 2 -6 
8217 6 0.70982 0.774893 0.14444 1 -3 2 
5348 6 0.769464 0.763385 0.117055 3 -3 -2 
6499 6 0.12455 0.776408 0.149932 5 1 -2 
8000 6 0.419687 0.747219 0.162729 0 -1 0 
5195 6 0.419418 0.797151 0.130145 -1 0 0 
5559 6 0.825327 0.785997 0.133582 -3 -3 -4 
6464 5 0.0462284 0.830873 0.167644 4 8 0 
5983 6 0.129008 0.817848 0.145844 3 -1 3 
7334 6 0.194288 0.836158 0.144186 3 4 5 
6229 6 0.434583 0.893079 0.135297 2 -4 -1 
5039 5 0.447003 0.880716 0.126951 4 1 0 
6290 5 0.942839 0.940537 0.178896 0 -3 1 
7040 6 0.644112 0.92206 0.174949 3 -3 3 
6107 5 0.077388 0.939268 0.145273 -3 -3 -3 
6615 6 0.306766 0.921334 0.155729 2 0 -2 
8358 6 0.36153 0.893368 0.122246 -2 1 -1 
5779 5 0.82903 0.94799 0.16402 -4 1 -4 
8665 5 0.137365 0.998736 0.113219 -1 1 -1 
8037 6 0.261175 0.996765 0.163593 -2 1 0 
6947 6 0.332338 0.0368534 0.194876 0 5 -1 
8492 6 0.0260465 0.00414231 0.141808 -1 -6 1 
8572 5 0.00287016 0.0706909 0.154383 -2 -2 0 
7957 5 0.2078 0.0754434 0.19921 0 2 -2 
6993 6 0.627663 0.0675539 0.166346 0 3 0 
8061 6 0.999481 0.117645 0.149122 -2 7 -1 
8404 5 0.61791 0.159704 0.157339 -1 7 6 
5771 6 0.354501 0.161227 0.140022 1 1 -2 
7635 6 0.687063 0.16294 0.194738 -3 1 -1 
8123 5 0.726526 0.177136 0.148813 -2 -1 -4 
7316 5 0.663953 0.156375 0.187842 -3 -4 0 
6826 6 0.740734 0.209218 0.17959 2 3 0 
7495 6 0.04035 0.180765 0.197119 3 -1 -3 
8703 5 0.300754 0.205306 0.219903 -4 -2 0 
5565 6 0.370423 0.216202 0.156491 4 1 0 
7259 5 0.123951 0.181576 0.174976 -1 0 -2 
5055 5 0.2026 0.211881 0.193066 -1 -1 -1 
8616 6 0.256684 0.205553 0.161953 3 -3 3 
6924 6 0.527832 0.227254 0.173543 -3 -3 -1 
6046 6 0.855272 0.184408 0.161114 3 1 2 
5712 6 0.868971 0.229805 0.169046 -2 -1 -3 
7215 6 0.409264 0.250964 0.188347 1 -1 -1 
5177 6 0.559107 0.248936 0.154117 1 1 -1 
5315 5 0.701828 0.272652 0.180862 -4 -3 0 
7255 6 0.828785 0.244777 0.147454 1 2 5 
6404 6 0.0340329 0.27607 0.159599 0 4 -1 
7898 5 0.087755 0.373077 0.21014 0 5 -1 
5692 5 0.584702 0.322859 0.136623 1 -1 0 
8437 5 0.616509 0.306601 0.181948 4 -2 3 
8014 5 0.642796 0.359851 0.176628 3 -2 1 
8724 6 0.429476 0.319143 0.19613 -4 2 2 
6039 6 0.508293 0.355539 0.160509 0 3 -2 
6065 6 0.126906 0.37265 0.150893 0 -1 -2 
5344 6 0.0376461 0.436189 0.152015 1 -2 -4 
6031 5 0.620091 0.379831 0.18073 0 3 -1 
5839 6 0.697043 0.387175 0.174917 -1 2 -3 
6601 6 0.357482 0.443814 0.163485 0 1 1 
7148 6 0.0572914 0.440706 0.194089 0 0 3 
8057 5 0.210657 0.461324 0.165737 -5 -4 9 
6934 6 0.565988 0.435948 0.151894 0 -3 1 
5324 5 0.525983 0.52138 0.188421 -3 -4 1 
6268 6 0.639436 0.478141 0.163582 -5 -1 -2 
7235 5 0.752992 0.508579 0.16509 0 -4 -1 
5843 6 0.862001 0.495098 0.146978 -1 -4 1 
5593 6 0.534634 0.508632 0.207993 2 5 2 
8401 6 0.066932 0.524657 0.172664 3 -1 -1 
8965 6 0.950086 0.560236 0.176746 1 -1 4 
8839 5 0.565616 0.538815 0.158335 -3 6 5 
7192 5 0.899076 0.619307 0.151893 -1 0 -1 
8737 6 0.0469131 0.623113 0.204959 1 -2 10 
7361 5 0.277777 0.601983 0.156694 -4 2 2 
6186 6 0.606743 0.605886 0.21315 0 0 -1 
8204 5 0.317238 0.62486 0.131457 2 4 -5 
8201 5 0.570843 0.623067 0.193879 0 0 -1 
6346 6 0.260418 0.620494 0.175711 1 2 0 
7103 6 0.163254 0.694586 0.134506 -2 1 1 
6996 5 0.28753 0.68234 0.162103 -1 -2 -2 
5897 6 0.0350578 0.703035 0.202395 3 1 -3 
7506 5 0.0502339 0.704741 0.159265 -1 -3 3 
6013 6 0.820784 0.716642 0.159183 4 5 2 
5831 6 0.0655509 0.72793 0.179566 -1 2 -1 
7522 6 0.743868 0.731118 0.173177 2 -1 1 
8854 6 0.772145 0.725196 0.204441 0 -3 0 
8015 6 0.134733 0.817505 0.164704 4 -2 -3 
5949 5 0.354917 0.826002 0.18315 2 0 -1 
8686 6 0.956007 0.790074 0.189926 8 -2 1 
6684 6 0.249818 0.837365 0.177391 0 1 -2 
7784 5 0.573425 0.837458 0.174054 -4 -1 -5 
6341 6 0.562731 0.859697 0.201069 3 0 0 
8565 5 0.356689 0.87109 0.158354 -2 3 4 
8893 5 0.673935 0.869842 0.175699 1 1 0 
8393 5 0.839409 0.827693 0.170964 4 4 4 
7822 5 0.969277 0.884873 0.205549 4 2 1 
5990 5 0.618169 0.863375 0.17301 -3 3 3 
6203 6 0.14648 0.892867 0.14063 -3 0 -2 
6887 6 0.151491 0.942793 0.146447 2 0 0 
5594 6 0.379348 0.959458 0.139545 0 -1 3 
8472 6 0.436959 0.9216 0.181357 3 -2 -1 
6439 5 0.589714 0.921848 0.159651 1 0 -4 
5327 5 0.79411 0.935497 0.16624 4 1 8 
6645 5 0.337797 0.0275684 0.195602 -1 -2 -1 
8275 5 0.530189 0.985571 0.170212 -1 1 -1 
6825 6 0.915121 0.985328 0.193214 2 -4 1 
8855 5 0.943151 0.0218014 0.182942 5 0 3 
7529 6 0.27184 0.0213372 0.196277 -2 2 1 
7667 6 0.490342 0.0457563 0.180862 3 -5 5 
5045 5 0.0687052 0.0925316 0.210326 2 -2 -3 
8024 5 0.770916 0.0852215 0.242579 -2 -1 0 
8996 5 0.858438 0.10035 0.210371 -4 2 -3 
7724 6 0.116899 0.0752527 0.19817 3 1 4 
5250 5 0.608366 0.100649 0.204519 2 -4 2 
8684 5 0.625749 0.124424 0.143204 3 0 -1 
8813 5 0.623427 0.149752 0.191196 3 2 -3 
7274 6 0.970337 0.134637 0.167872 0 2 -2 
5103 5 0.257756 0.114714 0.206712 0 4 3 
7871 6 0.719621 0.169679 0.192409 2 3 -1 
7000 5 0.31352 0.151619 0.214281 -1 -4 0 
8314 5 0.358255 0.213651 0.201579 1 0 2 
7043 6 0.950114 0.17559 0.21269 -5 4 4 
5784 6 0.166281 0.222509 0.212658 -1 -2 1 
8442 5 0.778657 0.197479 0.188891 2 5 1 
7528 5 0.238678 0.196768 0.191932 -3 2 2 
8641 6 0.571649 0.248775 0.183941 -3 5 0 
6621 5 0.242416 0.273408 0.17832 -1 1 -2 
6594 5 0.665738 0.281156 0.19224 -4 0 4 
5087 6 0.912706 0.309315 0.210083 2 -2 -1 
8476 5 0.937462 0.318507 0.210554 0 2 -1 