ITEM: TIMESTEP
20000000
ITEM: NUMBER OF ATOMS
9000
ITEM: BOX BOUNDS pp pp pp
-75 75
-75 75
-75 75
ITEM: ATOMS id type xs ys zs ix iy iz 
7860 6 0.594288 0.040487 0.0440943 1 0 2 
8674 5 0.79825 0.0060245 0.994955 -1 2 -3 
7113 6 0.163846 0.0302912 0.977714 -3 5 -4 
6122 6 0.918735 0.0265087 0.99342 1 3 -2 
5176 6 0.0820981 0.0259812 0.047004 -2 3 -4 
6068 5 0.442696 0.038497 0.981984 -3 -1 -6 
7649 6 0.538267 0.06663 0.0380911 0 1 1 
8330 5 0.894868 0.0368989 0.00830716 -2 0 -2 
7445 6 0.992234 0.0845277 -0.000654629 -1 4 1 
6327 5 0.869954 0.0652449 0.987215 2 4 -2 
6097 5 0.749413 0.0411617 0.00525953 0 0 0 
7840 6 0.356598 0.12763 0.0236947 2 5 -5 
5707 5 0.853997 0.132895 0.0279616 0 -1 6 
8658 5 0.883025 0.143634 0.963958 2 -4 -1 
8012 5 0.709529 0.2471 0.00965479 0 -1 1 
8341 6 0.0749996 0.218973 0.0334403 1 -5 0 
8368 5 0.161956 0.196919 0.995492 -3 0 -4 
8813 5 0.381911 0.241571 0.980419 -2 -2 1 
6952 6 0.85001 0.254227 0.988101 -2 -3 2 
5207 5 0.979222 0.252181 0.993983 -4 -7 0 
5020 6 0.0252833 0.273728 0.034134 4 4 -1 
6793 5 0.218355 0.265977 0.000127296 2 1 1 
7466 6 0.14718 0.320719 0.0315575 -2 -1 -1 
8635 5 0.380301 0.266772 0.0359988 1 -1 -4 
6103 5 0.92809 0.319222 0.00330671 0 0 -2 
5838 5 0.631728 0.320174 0.996936 4 2 0 
8596 6 0.375965 0.356147 0.998918 -3 2 -1 
5453 5 0.577423 0.303261 0.0228004 1 -1 5 
5023 5 0.203575 0.375119 0.982672 -3 1 1 
8179 5 0.339219 0.394322 0.0429231 -2 -2 5 
8487 6 0.916869 0.337185 0.0116327 3 -2 1 
6370 6 0.954602 0.3576 0.00681259 -1 -4 1 
8866 5 0.135997 0.371604 0.00752993 2 -2 -1 
8500 5 0.343679 0.376926 0.00282113 6 -3 3 
5871 5 0.780967 0.383763 0.012221 2 1 -3 
7885 5 0.0457818 0.412792 0.00578438 0 1 -2 
5004 5 0.228142 0.410591 0.0189314 2 2 0 
8607 5 0.529919 0.452492 0.98324 3 -1 -2 
5990 5 0.344263 0.502027 0.988025 2 1 0 
7806 6 0.917337 0.474307 0.0302202 -1 -1 -3 
6909 6 0.803524 0.476355 0.0569818 3 -2 -1 
6454 5 0.00392618 0.519128 0.970167 -2 0 -3 
5798 6 0.250268 0.508718 0.00825334 5 -5 0 
6290 5 0.740474 0.509101 0.00196197 2 3 0 
5611 6 0.786915 0.513283 0.0367828 3 3 4 
5609 6 0.984973 0.540358 0.0366265 -4 2 0 
5439 6 0.525716 0.513153 0.981113 4 0 -2 
6271 6 0.639412 0.556659 0.025311 1 -8 3 
6135 6 0.0597953 0.631805 0.0441321 -1 0 -3 
7339 6 0.760915 0.668186 0.0098217 0 -2 1 
5208 5 0.17739 0.648856 0.0377559 1 -4 3 
7523 6 0.901874 0.686008 0.97297 -1 1 0 
7787 6 0.465491 0.763906 0.986932 1 -2 -2 
8808 6 0.780639 0.728683 0.0320346 1 -1 -4 
8583 6 0.840423 0.798196 0.993411 -6 0 -2 
7387 6 0.820943 0.816192 0.994775 2 -5 -1 
5029 6 0.935214 0.754462 0.992671 -3 -2 1 
8033 6 0.532128 0.790209 0.0113613 0 5 3 
6682 6 0.647147 0.750412 0.0047912 -1 -1 3 
6210 5 0.781351 0.780511 0.0616552 -2 3 8 
8611 6 0.983784 0.829859 0.00887829 -4 2 5 
8197 6 0.661659 0.846276 0.00646562 6 1 0 
8847 6 0.204611 0.843513 0.0180776 -2 -1 1 
8972 6 0.30482 0.867068 0.0337956 4 -2 5 
7769 6 0.587309 0.906068 0.0515804 1 3 -2 
5641 5 0.635443 0.829834 0.0352149 -4 -6 4 
8748 5 0.741063 0.906458 0.0433429 -1 -1 0 
8333 6 0.765655 0.86942 0.056007 0 -5 2 
7699 5 0.385555 0.897187 0.00774069 0 3 1 
7278 5 0.705337 0.881963 0.00702102 -1 -1 -7 
5064 5 0.214659 0.899922 0.975545 -1 -3 -1 
7003 5 0.677697 0.863533 0.0284244 1 0 3 
6312 5 0.768779 0.896645 0.995405 -1 7 -5 
5572 5 0.0973531 0.882774 0.0306345 1 -3 -3 
8760 6 0.12734 0.910143 0.0194214 -3 1 1 
5614 5 0.640018 0.96736 0.978524 -1 -1 -2 
7049 5 0.89152 0.965095 0.00944386 1 1 -1 
8683 5 0.0133386 0.94947 0.015564 2 2 3 
6843 6 0.427342 0.967651 0.0183657 -5 -1 2 
6892 6 0.67505 0.0137921 0.0505922 -2 2 -7 
6093 6 0.702566 0.988605 0.0433243 -3 3 -1 
7074 5 0.225181 0.030329 0.0425023 0 1 -3 
5721 6 0.0461156 0.0349396 0.0556488 0 4 3 
5205 5 0.398747 0.0411017 0.0229285 -1 0 -1 
7589 5 0.460842 0.0257274 0.0441077 5 -2 1 
8406 6 0.177138 0.0318228 0.0414817 0 -2 -1 
6689 6 0.673383 0.0201685 0.0477985 -1 -4 0 
8752 6 0.210022 0.108711 0.0555232 0 7 -1 
6345 6 0.523066 0.124437 0.0577759 1 7 0 
6435 5 0.307779 0.140942 0.0679167 -3 -1 -1 
8715 6 0.0779893 0.135075 0.0516269 0 3 -3 
6911 6 0.435097 0.132798 0.0446066 2 3 3 
8743 5 0.625599 0.170989 0.04568 -3 -2 -1 
7418 6 0.796485 0.190813 0.0253563 1 0 2 
7942 5 0.286625 0.315792 0.0439025 2 2 4 
8555 5 0.395166 0.279299 0.0168028 -1 0 0 
8874 6 0.512361 0.252761 0.0571752 0 6 1 
7846 5 0.887928 0.296665 0.00713537 4 -3 4 
7464 5 0.391199 0.345216 0.0476177 -2 5 1 
8080 6 0.360929 0.288412 0.00606024 -1 1 -1 
6967 6 0.000444161 0.331757 0.0494692 -4 -1 3 
7122 6 0.99565 0.35913 0.985832 -1 -1 -2 
7685 6 0.991985 0.310862 0.0296085 0 1 -1 
6092 5 0.630984 0.336102 0.0127891 -2 2 0 
5625 5 0.819361 0.377941 0.0420784 4 0 -2 
5658 5 0.824771 0.384387 0.0552618 -4 0 3 
8537 6 0.480222 0.437304 0.0780135 2 4 -5 
5102 6 0.841582 0.408464 0.068801 -5 -2 -1 
5819 6 0.608583 0.455396 0.0271773 3 -2 3 
7020 6 0.68528 0.454909 0.0518159 1 1 1 
5666 6 0.924178 0.425893 0.0350156 -6 2 2 
6836 5 0.0659807 0.473181 0.00727501 7 0 2 
7079 6 0.364167 0.477652 0.0770526 1 2 1 
5532 6 0.802591 0.444702 0.0274338 -2 -3 3 
5688 6 0.376771 0.458321 0.0010949 0 11 2 
8558 5 0.718458 0.523115 0.0566281 4 1 1 
8593 5 0.919087 0.513598 0.98703 1 2 3 
5504 5 0.180279 0.529313 0.0493493 1 2 -2 
7619 6 0.232529 0.541062 0.0239109 4 2 1 
6151 5 0.0627339 0.568521 0.00372982 -5 0 1 
5692 5 0.342454 0.562118 0.0639902 1 -1 -1 
5247 6 0.860858 0.552873 0.0229075 0 1 0 
6173 6 0.953483 0.556855 0.0126933 1 7 4 
6633 5 0.146257 0.532282 0.989617 -2 -5 1 
5909 5 0.412698 0.565638 0.0604457 -7 1 3 
6005 5 0.809507 0.60019 0.981741 4 2 -3 
7317 5 0.85497 0.553419 0.0438741 4 2 -2 
7599 6 0.633011 0.608231 0.021997 4 3 -1 
6303 6 0.807274 0.602727 0.990636 1 -2 -3 
8755 5 0.8208 0.639118 0.0562442 3 -1 0 
5824 6 0.946316 0.664891 0.991165 -1 -1 -2 
6517 6 0.0355303 0.547134 0.0671784 0 3 -2 
5830 5 0.0338218 0.62202 0.00580908 -2 -2 5 
8116 6 0.360467 0.664648 0.0489989 -1 -1 3 
5200 6 0.596522 0.633672 0.0233065 -3 -1 5 
8754 6 0.707472 0.674408 0.0374881 -4 -3 -3 
6700 5 0.866609 0.64078 0.0274143 -6 3 -4 
6408 6 0.881214 0.656283 0.0493885 1 -1 -2 
7305 6 0.976587 0.650797 0.0437381 1 -2 -1 
8394 6 0.292004 0.701217 0.0543181 -1 0 2 
8578 6 0.457635 0.602522 0.0521816 -2 0 -3 
5546 6 0.584416 0.660991 0.00922129 -1 0 0 
6095 5 0.637438 0.71685 0.0645813 4 3 6 
8086 6 0.905407 0.671519 0.053495 2 0 -3 
7995 5 0.907235 0.627617 0.019984 3 1 -3 
7002 5 0.57228 0.703489 0.0155346 1 2 6 
8991 5 0.977148 0.686177 0.0360585 -3 5 0 
5335 6 0.125862 0.701944 0.0260004 -8 4 -3 
5183 5 0.135332 0.716208 0.0236078 1 -3 1 
7211 6 0.637321 0.745136 0.0691657 -1 -1 0 
6693 5 0.114681 0.785237 0.0654577 0 0 7 
5120 6 0.514645 0.772003 0.0316265 2 -5 4 
8753 6 0.185618 0.791128 0.000907882 -1 0 0 
6470 6 0.749998 0.804449 0.0296479 0 -1 -4 
8202 6 0.209619 0.818284 0.0262454 1 -1 1 
8485 6 0.327085 0.785832 0.0509356 2 -4 -1 
6262 5 0.0106791 0.802552 0.054508 -2 -2 -1 
7968 6 0.0525787 0.792476 0.00976935 1 -2 -1 
8075 5 0.352321 0.830097 0.00540599 1 -1 3 
7242 5 0.440428 0.836141 0.0362263 -2 4 -4 
5586 6 0.603562 0.838922 0.0279667 -3 -2 -1 
7549 6 0.858963 0.819365 0.0312921 -4 -5 1 
7528 6 0.18414 0.845915 0.0283712 -1 4 -1 
7998 5 0.561223 0.895989 0.0490777 4 7 3 
7243 6 0.74899 0.845721 0.0464494 1 4 3 
6778 6 0.0264229 0.909183 0.999057 -3 0 2 
5394 5 0.323695 0.927732 0.0264247 4 0 0 
7487 5 0.3404 0.915734 0.0057018 2 5 -7 
6659 5 0.669998 0.927836 0.0665785 0 0 -3 
6774 6 0.851088 0.944766 0.0552297 0 3 6 
8790 6 0.494591 0.939043 0.0457156 4 -1 3 
8920 5 0.649111 0.983581 0.0155157 -3 -2 1 
7481 6 0.0806135 0.974626 0.0657702 -1 -2 2 
5459 6 0.10778 0.0603305 0.0612093 0 1 3 
5918 5 0.675016 0.97071 0.0229341 1 -3 0 
7605 5 0.117292 0.0359603 0.0705931 0 2 3 
5992 6 0.188133 0.0547441 0.0836304 4 3 1 
6170 5 0.581557 0.0880407 0.0357306 6 0 1 
6444 6 0.859961 0.0802038 0.077015 0 0 4 
6019 5 0.105516 0.105229 0.0424848 2 2 4 
5119 5 0.662065 0.115162 0.0591308 4 5 4 
6619 6 0.951719 0.141741 0.033671 -3 -1 1 
8931 5 0.982734 0.153129 0.0598041 3 -3 4 
6310 5 0.470301 0.179039 0.0465321 4 0 2 
6973 6 0.531205 0.194713 0.0539839 1 3 3 
5031 6 0.582541 0.224696 0.0595123 3 -1 -3 
7833 6 0.138536 0.231404 0.0658128 4 1 2 
7913 5 0.511452 0.203181 0.0720239 3 -4 0 
6981 5 0.668917 0.236283 0.0334069 -5 3 0 
7677 6 0.885089 0.270809 0.025993 -6 3 6 
7215 5 0.475425 0.263564 0.0441087 -2 3 2 
8288 6 0.666957 0.282164 0.0489166 1 -6 1 
8347 6 0.72277 0.263673 0.0795328 3 3 4 
7258 5 0.687548 0.299318 0.0636197 1 1 -1 
6687 6 0.943036 0.261064 0.0706134 -5 -2 3 
7165 6 0.061686 0.299338 0.0400152 1 3 -4 
5483 5 0.360994 0.307886 0.0722266 -1 2 -2 
6962 5 0.61718 0.28747 0.0426431 4 1 2 
5002 6 0.714377 0.349504 0.0805543 1 2 0 
6665 5 0.986001 0.354939 0.0190132 -4 3 0 
8831 5 0.542002 0.348047 0.0332314 -3 -2 -2 
6076 6 0.530001 0.388615 0.0205557 5 -4 1 
7853 6 0.663168 0.414472 0.0834725 -2 -6 -4 
6818 5 0.81688 0.439416 0.0682842 4 -3 6 
8619 6 0.180181 0.427068 0.0286432 5 0 1 
6254 6 0.381463 0.431802 0.0952529 -1 3 2 
8313 5 0.538905 0.470045 0.0690975 2 1 -3 
5152 5 0.0347948 0.507261 0.0835173 2 0 -3 
5171 5 0.880786 0.457992 0.0704317 -5 1 3 
7838 5 0.915847 0.511925 0.0397485 -1 -1 -3 
5705 6 0.753064 0.59346 0.0386184 4 1 0 
7078 5 0.165591 0.524215 0.0600174 -4 -1 -3 
5563 5 0.045415 0.560226 0.0351227 1 -2 -1 
5369 5 0.759395 0.566612 0.0474941 0 2 0 
6995 5 0.97833 0.577403 0.0555163 -1 1 -2 
5549 6 0.403268 0.590267 0.0533127 3 -3 0 
6907 6 0.451929 0.619823 0.0774031 1 -1 -4 
7849 5 0.797346 0.634565 0.0519458 -3 -1 -2 
7707 5 0.895988 0.599737 0.0646647 -2 0 1 
8644 5 0.00202194 0.636482 0.0559694 -1 -1 0 
7816 5 0.324351 0.663162 0.0527106 -3 -1 5 
8608 6 0.437636 0.662222 0.0754169 -3 -6 -7 
5011 5 0.515977 0.656866 0.0586374 0 -2 0 
5150 5 0.338 0.670817 0.0595486 -2 -1 5 
8622 5 0.775746 0.64739 0.0359678 1 -4 0 
7656 5 0.103987 0.705214 0.0723704 1 -2 0 
5182 5 0.497655 0.691268 0.101518 4 -1 3 
6471 6 0.687566 0.70274 0.0696992 1 -3 2 
5014 6 0.809565 0.677309 0.0297582 -3 0 -1 
5624 6 0.367929 0.688611 0.0682981 -5 2 3 
5788 5 0.68032 0.718876 0.0308783 4 -1 -1 
8111 5 0.797821 0.727085 0.0455124 3 0 3 
7456 6 0.00664171 0.759691 0.0846802 1 2 6 
7742 6 0.290461 0.758253 0.0674151 2 -3 -2 
6033 6 0.45288 0.750372 0.0363586 1 2 0 
5715 5 0.808152 0.750915 0.0125135 1 -6 -2 
5477 5 0.505107 0.7933 0.0594405 1 -2 0 
8114 5 0.348663 0.807816 0.0903457 -6 0 2 
5602 6 0.493702 0.770632 0.056838 4 -2 -3 
5410 5 0.32145 0.835747 0.0513663 -3 2 2 
7132 5 0.434652 0.847767 0.0625513 4 0 0 
7424 5 0.648722 0.821469 0.0750612 -2 -10 -2 
8248 5 0.691736 0.81302 0.0579266 -1 -3 2 
7026 6 0.130899 0.870666 0.0281466 -1 -1 2 
5450 5 0.152235 0.843957 0.0595369 2 0 2 
6315 5 0.30839 0.8858 0.0563396 1 1 3 
5822 6 0.647134 0.862392 0.11698 -4 -1 -1 
5038 6 0.0120614 0.880746 0.0493725 0 3 0 
7636 5 0.501565 0.877398 0.0335206 0 -1 0 
6318 5 0.640646 0.938381 0.0529732 3 -2 5 
6645 6 0.981846 0.00103104 0.0897739 3 -3 4 
6867 5 0.401574 0.944561 0.0136419 2 -1 -1 
8554 5 0.354886 0.976272 0.0444609 5 -3 0 
7635 6 0.783008 0.0187253 0.0793721 1 0 -1 
5008 6 0.505195 0.0337003 0.11569 -2 2 2 
6141 5 0.0188035 0.0717254 0.068138 -1 5 1 
7966 5 0.0851405 0.109817 0.0698711 0 1 4 
7993 6 0.0706121 0.0576885 0.0960289 1 -5 -2 
8732 6 0.13519 0.089038 0.0456652 -3 -3 3 
5416 5 0.569938 0.0879324 0.0875556 2 0 7 
7023 5 0.886799 0.0770611 0.0733784 -5 -1 4 
7284 6 0.0361836 0.10839 0.0739782 4 -3 0 
8282 5 0.633675 0.109689 0.0912556 2 -2 -3 
5500 6 0.705876 0.135802 0.0999316 -4 -1 3 
5834 6 0.215946 0.122972 0.0866967 4 -1 5 
7152 5 0.44524 0.139371 0.138537 -1 0 0 
6209 6 0.764219 0.148583 0.0417548 0 -4 -3 
5517 6 0.411039 0.183254 0.0601726 -1 -1 5 
6758 5 0.490158 0.172932 0.0279624 0 5 -3 
6696 5 0.778943 0.184648 0.106604 0 -2 -7 
8869 6 0.849838 0.179672 0.08387 -3 4 -1 
7070 6 0.219266 0.199215 0.0632726 1 -1 -3 
5583 6 0.700326 0.162999 0.104648 -1 0 0 
6849 6 0.0874612 0.22436 0.0735319 4 -1 1 
6323 6 0.682378 0.217814 0.053573 2 3 3 
6571 6 0.88038 0.202377 0.0679499 0 1 4 
5467 6 0.500324 0.225512 0.118651 -4 4 -3 
5337 6 0.951259 0.234155 0.0974252 0 5 -4 
8036 5 0.68837 0.246916 0.0749109 -2 -2 2 
5530 5 0.889365 0.275561 0.0911398 0 4 -4 
6101 5 0.166375 0.28561 0.0580804 -4 3 -3 
8512 6 0.578105 0.292968 0.0866411 0 0 -3 
5425 5 0.648138 0.270393 0.0889714 -1 2 -1 
8834 5 0.795631 0.283458 0.0787607 -2 3 1 
6598 5 0.0308805 0.286038 0.0637227 1 1 4 
8172 6 0.409429 0.321567 0.113356 -2 4 4 
6685 6 0.61881 0.342268 0.0766931 -2 -3 3 
8785 5 0.711364 0.28664 0.0802613 -1 3 0 
5118 6 0.0238756 0.320101 0.0711853 -1 2 0 
7160 6 0.119565 0.369072 0.0718297 -3 5 -2 
6641 6 0.405879 0.361281 0.089553 0 -6 -1 
7670 5 0.25768 0.347935 0.101491 -1 1 4 
7712 5 0.597414 0.374305 0.0754333 1 -1 0 
8571 5 0.879461 0.378989 0.123152 0 1 1 
6013 5 0.90506 0.341943 0.0224556 -2 0 -2 
5049 6 0.197193 0.399489 0.115693 -3 1 2 
7210 5 0.958891 0.381545 0.0766136 3 -2 -1 
5062 6 0.25431 0.409242 0.0871038 4 4 -4 
5226 6 0.457306 0.420231 0.0736785 3 4 -1 
5893 5 0.84403 0.428117 0.0774963 0 -1 0 
6046 6 0.936195 0.417662 0.129341 0 1 2 
6156 5 0.00372551 0.473895 0.0676537 4 2 0 
7578 5 0.229062 0.448489 0.0855844 -1 0 -2 
8992 5 0.606738 0.417331 0.0983157 2 -1 4 
5041 6 0.725319 0.45349 0.0652662 -7 2 -2 
6648 5 0.0726032 0.518463 0.0685318 5 -1 6 
8449 5 0.707982 0.470282 0.0929442 0 1 0 
6757 5 0.889794 0.492933 0.0733777 -1 -2 -1 
7884 5 0.927485 0.513223 0.114237 1 4 1 
8234 5 0.992057 0.499617 0.0999512 -1 -2 1 
8056 6 0.105364 0.513414 0.0581648 -1 2 -5 
6667 5 0.373748 0.512129 0.0873381 -4 -1 2 
6604 6 0.255903 0.53723 0.106189 1 3 0 
7432 6 0.641994 0.521722 0.0639241 -3 4 -1 
7546 5 0.0963899 0.553373 0.102738 3 0 -1 
6874 5 0.134286 0.57322 0.0710938 2 5 -2 
5922 5 0.187643 0.620673 0.0959423 -5 0 5 
6938 5 0.174024 0.585436 0.0760609 3 -7 1 
8629 5 0.278109 0.565248 0.0618425 1 3 1 
6807 5 0.023351 0.646822 0.0343013 -1 1 3 
8903 5 0.779505 0.647113 0.0208436 0 1 0 
6284 6 0.609736 0.635312 0.0511172 2 4 2 
8050 5 0.173147 0.629507 0.0653212 2 -6 4 
7793 6 0.778973 0.672042 0.0505691 1 5 0 
5452 6 0.0596279 0.754781 0.0922502 1 3 -2 
5856 6 0.332669 0.725993 0.0899853 -2 3 3 
7082 6 0.774445 0.775643 0.0347905 -3 1 -1 
5996 5 0.855419 0.785057 0.0535854 1 -2 -1 
7714 5 0.921238 0.750074 0.0727527 -5 0 -2 
8876 6 0.905464 0.737802 0.062498 -2 -2 -3 
6755 6 0.0226143 0.744668 0.0738962 -1 5 2 
5805 6 0.819775 0.77165 0.104892 1 -4 2 
5840 6 0.598479 0.792622 0.0611016 -1 -2 -2 
8374 6 0.72996 0.766839 0.125219 1 4 1 
8696 6 0.861595 0.810391 0.0952248 -4 0 2 
8148 5 0.159382 0.838072 0.072978 -1 -3 6 
6690 6 0.392507 0.825325 0.0541287 -2 -1 -2 
8648 5 0.555003 0.869904 0.0793898 5 -2 1 
7981 6 0.676877 0.856847 0.0860093 -3 4 2 
6054 5 0.649195 0.904137 0.0638149 -2 -3 -4 
6079 6 0.785421 0.825812 0.0816073 -1 -1 -2 
8113 5 0.899309 0.899376 0.117578 -2 0 3 
5490 6 0.275311 0.924025 0.106668 -1 -2 2 
5644 6 0.616457 0.948763 0.0867948 -1 0 6 
6256 6 0.0729261 0.963882 0.0539684 2 -6 -3 
6880 5 0.142793 0.977931 0.0654987 3 1 -2 
8144 6 0.123405 0.0706607 0.108845 -2 1 0 
6565 5 0.115853 0.059649 0.143042 0 -1 4 
5868 5 0.533671 0.0917115 0.109609 -2 1 -5 
6628 6 0.729706 0.13342 0.111588 -5 4 1 
7116 5 0.784809 0.06222 0.123324 4 2 -5 
6788 5 0.880216 0.090149 0.104361 -1 0 0 
5032 6 0.310896 0.110024 0.0870855 4 -3 -4 
5231 6 0.635584 0.0971007 0.138143 5 2 -3 
5298 5 0.844895 0.115344 0.0577373 2 5 2 
7015 5 1.00158 0.151179 0.0920102 -5 -6 0 
8361 5 0.748367 0.118432 0.105481 -3 0 3 
6498 6 0.931479 0.090914 0.114238 -1 0 2 
8227 5 0.789655 0.144376 0.11197 1 -3 -3 
8150 6 0.138415 0.165912 0.0916892 -1 -3 1 
7484 5 0.429318 0.215223 0.115008 3 3 -3 
8064 6 0.378279 0.224905 0.114986 1 0 4 
7657 5 0.344669 0.206048 0.0823799 -3 5 -2 
6042 6 0.0751935 0.233879 0.068121 -2 -2 -4 
6786 5 0.379254 0.231691 0.0984049 -2 3 0 
7061 5 0.455848 0.234792 0.115306 2 2 -4 
5725 5 0.856572 0.232589 0.0674452 6 -4 0 
7110 6 0.102614 0.278653 0.110552 1 -2 2 
7834 5 0.297247 0.303646 0.082411 1 -5 -2 
7532 5 0.557268 0.333655 0.0787156 1 2 2 
5250 5 0.625132 0.27376 0.0888944 -1 -1 -3 
8257 6 0.653387 0.34085 0.104801 -1 -4 2 
6495 6 0.746901 0.279822 0.103878 0 0 3 
8655 5 0.793667 0.357884 0.0788919 1 4 2 
5059 5 0.585581 0.351222 0.128004 -1 8 6 
5541 6 0.534214 0.357974 0.0729697 -3 2 -2 
8423 6 0.704365 0.365204 0.135934 -2 -3 3 
8393 5 0.892868 0.39514 0.114239 -3 -6 -3 
6083 6 0.382454 0.383021 0.0956735 -3 -1 -1 
8552 6 0.612834 0.42799 0.101401 -5 -2 2 
7683 6 0.875297 0.423797 0.0664332 0 4 -2 
8255 6 0.613924 0.48514 0.0639772 3 3 5 
8323 5 0.847145 0.461648 0.121045 2 -4 1 
5941 5 0.647334 0.522284 0.0722783 -2 -1 -2 
5496 6 0.749509 0.509241 0.150657 7 2 1 
6129 5 0.822775 0.531068 0.118333 -1 5 -3 
7734 5 0.943429 0.523681 0.0949393 -3 0 -2 
8990 5 0.00286201 0.599888 0.106964 2 3 2 
5786 5 0.965819 0.575401 0.0869986 -2 3 0 
5864 5 0.25057 0.585656 0.144037 -2 -4 -4 
6465 5 0.273917 0.555133 0.111499 3 4 0 
7552 6 0.499353 0.590692 0.0990025 -4 2 -1 
5753 5 0.710164 0.563191 0.119254 -2 -4 -1 
6109 6 0.864414 0.606132 0.0827871 2 3 -4 
5198 6 0.25107 0.562811 0.0655733 3 -1 -2 
6357 6 0.395035 0.59031 0.111254 -1 -3 0 
5945 6 0.379993 0.590328 0.0871256 -6 1 1 
8885 5 0.489531 0.602302 0.128212 0 0 -4 
8286 5 0.726086 0.609443 0.0920394 2 0 1 
8714 6 0.721812 0.676167 0.0916865 -4 -2 -1 
8138 6 0.737533 0.644191 0.110527 -3 -1 -7 
8018 5 0.537392 0.642529 0.125389 -1 -4 0 
8184 5 0.622707 0.6214 0.118423 4 0 3 
6453 6 0.910577 0.650064 0.0801497 0 -2 0 
5052 5 0.941882 0.639556 0.135502 3 -1 -1 
6574 6 0.0520416 0.668377 0.0987526 -1 3 -2 
8948 6 0.100469 0.677505 0.0804891 -3 -5 2 
5173 5 0.443834 0.6901 0.0803368 1 -2 6 
6595 5 0.414513 0.736593 0.118114 0 -1 0 
7400 5 0.95042 0.705427 0.0778794 -5 1 2 
8999 5 0.995189 0.690707 0.125449 -2 -2 0 
7099 6 0.119351 0.728106 0.125563 -5 -3 -1 
6516 5 0.730963 0.750113 0.0902195 -3 -1 1 
6726 5 0.5342 0.796179 0.0933632 2 0 0 
7584 5 0.968395 0.71499 0.0802345 3 3 0 
6937 6 0.785071 0.787344 0.111265 3 1 1 
7650 6 0.482661 0.807342 0.0814155 4 2 2 
6287 5 0.135539 0.811515 0.0795092 3 0 2 
7162 5 0.501432 0.876563 0.0684356 -4 1 4 
7133 6 0.365033 0.856345 0.117601 0 0 0 
7598 6 0.596846 0.880188 0.0922288 -3 -2 1 
6305 6 0.119168 0.922426 0.135762 1 -1 5 
6935 5 0.494778 0.917978 0.129791 -5 -1 0 
8375 6 0.925919 0.859874 0.0820978 -4 -2 -8 
5134 6 0.203147 0.931762 0.117295 -2 -4 1 
8573 6 0.801948 0.947018 0.107179 -6 -1 -4 
8998 5 0.323242 0.988515 0.0626652 1 2 -2 
8929 6 0.387573 0.970967 0.100579 -2 3 0 
8208 6 0.15813 0.0186797 0.134711 -2 0 3 
5344 6 0.289939 0.985289 0.115661 -3 -1 1 
7139 6 0.370223 0.977646 0.150731 1 -2 0 
8740 5 0.245165 0.0168228 0.113074 0 -1 -2 
5734 5 0.712348 0.0114205 0.119397 0 3 1 
6556 6 0.602266 0.0542911 0.135071 5 -5 6 
7085 5 0.585715 0.117452 0.11156 1 -2 4 
8815 6 0.879319 0.0843888 0.134685 0 0 4 
6770 6 0.0287941 0.1306 0.138244 -4 -2 2 
8182 5 0.156839 0.110675 0.137699 3 5 -2 
8581 6 0.687364 0.0912049 0.123439 -6 -2 3 
6175 5 0.19474 0.13618 0.110774 2 3 -2 
5036 6 0.630993 0.15943 0.149202 -1 3 -5 
8773 6 0.80221 0.185433 0.123054 2 4 -1 
7014 5 0.820943 0.177213 0.140405 0 2 -6 
8180 6 0.718377 0.21607 0.117225 1 -2 1 
7101 6 0.935681 0.19873 0.0984466 4 -4 -2 
5223 6 0.510612 0.215526 0.163319 1 2 -2 
6480 5 0.548314 0.237589 0.135554 -1 -3 2 
8950 6 0.720135 0.236263 0.14739 3 -1 2 
5378 5 0.892209 0.219075 0.100165 3 0 2 
8864 6 0.032708 0.262226 0.0987932 11 4 2 
6152 5 0.0965297 0.247353 0.132182 -1 -1 3 
6250 6 0.139572 0.25859 0.146566 0 -1 -4 
7391 5 0.333686 0.270787 0.128633 -4 1 2 
8514 5 0.429392 0.263816 0.0935879 0 3 -2 
7285 5 0.672995 0.236384 0.127752 -4 1 5 
8168 5 0.0285675 0.290943 0.132725 4 0 -1 
5620 6 0.0298567 0.289404 0.145222 -1 5 -1 
5931 5 0.248178 0.254882 0.11061 -3 1 6 
6780 6 0.608434 0.264981 0.153977 -6 -1 0 
7514 6 0.590539 0.276441 0.158951 2 0 -5 
8867 5 0.273003 0.311971 0.10672 -1 3 -1 
7135 5 0.91799 0.35046 0.138016 -2 -3 -1 
5365 5 0.283236 0.312438 0.0933016 0 -1 -1 
7841 6 0.380351 0.309371 0.104745 5 -5 1 
6712 6 0.539279 0.313205 0.153218 1 3 -3 
8799 6 0.799786 0.339873 0.112665 -1 -5 0 
7016 6 0.0672076 0.351296 0.140885 -1 -1 1 
6695 6 0.514338 0.346165 0.158632 1 0 3 
6169 5 0.744442 0.363182 0.118005 1 -3 -4 
8919 5 0.86051 0.314198 0.123333 -3 2 -1 
8803 6 0.829262 0.375746 0.134193 3 2 4 
6734 6 0.85292 0.358 0.132731 0 0 4 
6749 6 0.921752 0.376187 0.102745 1 -1 2 
8421 5 0.254071 0.402569 0.136699 -2 4 -1 
8408 6 0.455242 0.390904 0.121054 -6 4 -1 
8266 5 0.118037 0.401757 0.158754 -5 0 0 
7553 6 0.466548 0.392332 0.134737 0 -1 4 
7419 5 0.738183 0.397486 0.153632 0 1 1 
7725 6 0.705181 0.404197 0.108624 -1 -6 -3 
5589 6 0.751881 0.381395 0.088431 -3 -2 -2 
5027 5 0.995781 0.378541 0.0958196 6 3 0 
7329 5 0.227507 0.435946 0.111987 1 -4 -2 
6362 6 0.655089 0.432805 0.130506 -3 0 2 
7276 5 0.839339 0.419652 0.128331 -3 -1 3 
6519 6 0.335757 0.475368 0.124315 -1 0 2 
8099 6 0.352911 0.446578 0.148945 1 -3 4 
6197 5 0.412247 0.413061 0.147109 0 3 -2 
7583 5 0.858419 0.467042 0.102043 -2 2 4 
7766 5 0.653485 0.475949 0.15583 -2 -5 3 
5722 6 0.137224 0.484285 0.138774 1 1 4 
7355 5 0.365097 0.554875 0.16561 -1 3 -8 
8775 6 0.341692 0.553354 0.121177 0 3 2 
7580 5 0.0766624 0.569907 0.136973 -1 2 5 
5632 5 0.476064 0.516805 0.10555 -3 -3 6 
7228 5 0.491495 0.584106 0.148406 -3 3 2 
6125 5 0.191658 0.645536 0.101558 2 2 1 
8414 6 0.321314 0.614439 0.0767018 -1 -5 -6 
7076 6 0.59901 0.575592 0.124439 4 -4 2 
6404 6 0.699424 0.566564 0.126959 -2 -4 0 
8566 6 0.986385 0.580383 0.104007 2 4 -5 
6717 5 0.561284 0.610366 0.12717 3 -1 3 
5131 5 0.0792215 0.682552 0.144663 5 0 -1 
7887 5 0.490016 0.698933 0.141518 2 2 -3 
6618 6 0.594547 0.700582 0.118561 4 0 0 
6736 6 0.662042 0.692608 0.137719 -3 -3 5 
8411 6 0.303639 0.745313 0.111042 3 2 4 
9000 6 0.0874831 0.739446 0.119284 3 1 1 
5272 6 0.469502 0.801475 0.133679 -2 -7 -1 
8716 6 0.981167 0.813451 0.13295 -6 3 -1 
8559 5 0.507449 0.79505 0.10524 0 2 3 
8995 6 0.373611 0.873718 0.0973221 3 -4 -1 
6723 6 0.56708 0.807283 0.134062 -2 5 1 
6936 5 0.909858 0.857248 0.135048 -1 2 3 
8938 5 0.288055 0.874846 0.1142 0 1 -5 
8973 6 0.418902 0.862965 0.103132 -1 -2 -4 
8870 6 0.458256 0.902016 0.116154 4 1 4 
7983 6 0.665735 0.880257 0.151649 6 -3 3 
5915 5 0.372928 0.922544 0.107592 -2 -2 -1 
6117 5 0.701185 0.881279 0.167762 -6 0 3 
8068 5 0.820462 0.970158 0.110712 -2 2 -2 
5436 5 0.48913 0.96189 0.113559 2 -4 -1 
6072 5 0.070152 0.98832 0.107828 6 -5 -1 
6179 6 0.147421 0.984661 0.163896 3 4 -3 
5818 6 0.734479 -0.000174244 0.0718068 -1 -2 -2 
5516 6 0.98616 0.969037 0.142871 3 1 -5 
5151 5 0.395815 0.0318375 0.161431 -3 -1 -3 
8549 6 0.282909 0.030707 0.183441 -6 4 -1 
7835 6 0.308759 0.0333195 0.13989 1 0 -1 
8191 6 0.00898764 0.0588001 0.169151 -6 -1 2 
6096 6 0.546271 0.0752463 0.162176 -4 -1 1 
7842 6 0.549555 0.0442879 0.110872 3 1 1 
5605 6 0.745164 0.0802955 0.109208 2 0 -3 
7364 6 0.459981 0.082648 0.174827 -4 -6 -6 
5509 6 0.630389 0.105333 0.160055 3 6 3 
6091 6 0.345976 0.127377 0.166125 -2 2 5 
7671 5 0.342349 0.115306 0.145047 5 2 0 
8838 5 0.597857 0.109923 0.16454 1 -2 -3 
6438 6 0.330428 0.119754 0.19712 -6 -2 -1 
7627 6 0.0863478 0.149875 0.153282 -3 -3 1 
7005 6 0.549716 0.137655 0.122753 2 0 -3 
8355 6 0.796633 0.175999 0.133497 5 5 0 
7290 6 0.564823 0.187779 0.148761 0 -2 2 
5408 6 0.383946 0.183735 0.165365 -1 -1 -2 
8677 6 0.0508001 0.253713 0.0874016 0 -5 -4 
5627 6 0.158662 0.236344 0.161175 0 0 0 
7107 6 0.992633 0.229172 0.145442 -4 1 -4 
6661 6 0.129578 0.246714 0.137006 0 3 4 
7717 5 0.281018 0.288388 0.190218 0 2 -2 
8821 5 0.364061 0.303515 0.148873 1 2 0 
5691 6 0.845369 0.282405 0.17487 -2 2 4 
7403 6 0.380951 0.305207 0.1261 2 6 1 
5779 6 0.761875 0.335098 0.150765 4 -1 3 
5117 5 0.431818 0.338485 0.195543 0 3 2 
6951 5 0.700203 0.35476 0.166177 3 0 -5 
8685 6 0.0677828 0.404724 0.166465 1 2 -3 
8798 6 0.647772 0.430815 0.135827 2 2 4 
6131 6 0.710368 0.418209 0.158052 0 0 2 
7177 6 0.729503 0.396805 0.152168 0 2 6 
6558 5 0.473028 0.505907 0.151681 -1 4 4 
6006 5 0.251596 0.501705 0.147527 3 1 2 
5955 5 0.673708 0.52272 0.172707 -2 -3 0 
5598 5 0.796117 0.516053 0.175705 -2 0 -3 
5060 6 0.129801 0.468592 0.116452 5 0 -2 
7595 6 0.720236 0.489344 0.16941 -3 -4 3 
6986 5 0.0585922 0.531544 0.127555 2 -4 -2 
7453 6 0.501495 0.549866 0.126478 -2 -3 1 
7166 5 0.58627 0.561247 0.118857 3 1 -2 
8964 5 0.947449 0.541343 0.157802 -3 4 -4 
5737 6 0.0716455 0.546147 0.16159 -1 0 0 
7205 6 0.542231 0.570796 0.183157 -3 -5 -4 
6779 6 0.537717 0.611788 0.148165 1 -1 1 
7984 6 0.696707 0.571668 0.160733 0 4 1 
5315 6 0.946575 0.577157 0.165675 -1 0 0 
5612 5 0.184459 0.620937 0.147939 1 -3 4 
8115 6 0.179886 0.604597 0.167257 0 -1 0 
7688 6 0.341574 0.567301 0.160609 3 -2 1 
5108 5 0.269838 0.633509 0.143371 -2 1 3 
7796 6 0.78758 0.71391 0.111096 3 0 0 
7768 5 0.922016 0.6506 0.15861 0 -2 -2 
5242 5 0.0360785 0.687179 0.116264 3 3 -2 
7607 5 0.185996 0.70117 0.123377 3 -1 1 
8545 6 0.714993 0.679764 0.127425 2 -3 1 
6612 5 0.983339 0.744093 0.162573 3 -4 3 
6399 6 0.38866 0.698936 0.135122 -2 1 1 
6903 6 0.833065 0.752513 0.143169 5 -2 1 
8175 5 0.882477 0.743793 0.153626 -3 -3 0 
7974 5 0.441439 0.810666 0.160251 -2 1 2 
5738 5 0.0647861 0.767111 0.124384 0 5 4 
5901 6 0.488291 0.760048 0.153867 0 1 -4 
7182 6 0.510477 0.814554 0.120593 -4 -4 2 
6845 5 0.714307 0.859553 0.140286 -5 -4 2 
8397 5 0.765185 0.81649 0.113043 -8 0 0 
6620 5 0.887053 0.841124 0.164015 0 0 -4 
5122 6 0.710133 0.912088 0.160855 -2 1 -5 
7761 6 0.331151 0.893607 0.152411 2 -5 1 
6573 6 0.89139 0.914947 0.170609 -5 0 0 
7606 5 0.655659 0.981726 0.125576 0 -3 -3 
8067 6 0.744254 0.970625 0.173828 3 -1 3 
8711 5 0.814593 0.969326 0.148864 2 1 1 
8709 6 0.143567 0.0332569 0.142105 -2 -3 -1 
5899 5 0.282597 0.0716965 0.164602 4 -3 -4 
7287 5 0.76302 0.989666 0.168428 6 2 2 
7470 5 0.307664 0.02851 0.180208 5 -3 2 
5907 6 0.348251 0.0472423 0.130945 1 1 4 
6285 6 0.594794 0.0322342 0.169603 -2 0 7 
7611 5 0.583768 0.0175433 0.157944 -5 -4 5 
5680 6 0.861431 0.0794786 0.189392 -3 0 -4 
6515 6 0.255692 0.0836275 0.168625 -6 -3 3 
5492 6 0.29544 0.132157 0.145024 -1 -1 4 
7604 6 0.380473 0.0778397 0.180269 5 0 -5 
7673 6 0.493246 0.103212 0.161375 0 -2 -1 
8662 5 0.30305 0.179819 0.147732 3 3 -5 
6989 6 0.984847 0.125597 0.136 -3 0 1 
8524 6 0.1059 0.181265 0.166747 -2 1 0 
7423 5 0.162482 0.159539 0.183979 5 -6 1 
8267 5 0.586309 0.206912 0.186209 -2 -3 -2 
5481 5 0.288564 0.201297 0.179566 2 0 2 
5106 6 0.733239 0.166698 0.180739 -2 -1 3 
7686 5 0.0936695 0.189163 0.191425 3 1 6 
7592 6 0.618744 0.193533 0.151883 3 3 2 
5714 5 0.743573 0.237772 0.200299 4 -1 1 
6694 6 0.343933 0.290298 0.168128 0 -4 2 
5712 5 0.708532 0.250343 0.127983 3 4 -1 
6502 5 0.178119 0.345241 0.169392 3 -3 -2 
8269 5 0.55208 0.267741 0.151889 4 -2 -2 
5007 5 0.694014 0.332692 0.178736 -1 4 0 
5128 6 0.83965 0.308995 0.191581 1 6 1 
5804 5 0.076477 0.348925 0.133438 -3 -3 -2 
7397 5 0.250515 0.36459 0.150219 1 -2 -6 
8071 6 0.44488 0.328109 0.159743 0 0 -3 
6584 5 0.597401 0.381285 0.138775 4 -2 -2 
8327 6 0.865374 0.364161 0.167039 0 0 -3 
5723 5 0.958396 0.387367 0.160711 -2 1 0 
8342 5 0.200762 0.376525 0.16111 1 -2 3 
7172 5 0.70592 0.408282 0.1497 -6 2 2 
6961 5 0.0305384 0.458271 0.149124 4 -3 -1 
8880 6 0.826569 0.42497 0.160323 0 0 2 
7401 6 0.75485 0.433215 0.162674 -4 -1 3 
6406 6 1.00063 0.470086 0.1775 4 -4 -1 
8205 5 0.301649 0.523141 0.190221 -5 -6 -3 
6910 6 0.966718 0.517337 0.181583 -1 -3 5 
8697 6 0.401365 0.528655 0.152123 -2 2 -1 
8700 6 0.178211 0.558271 0.150716 0 3 2 
8741 6 0.304648 0.575541 0.186542 1 -1 -4 
8787 5 0.679847 0.562713 0.147114 -2 -3 2 
6879 5 0.732008 0.600182 0.190956 -1 -4 2 
6417 6 0.659087 0.593031 0.164586 -2 4 4 
6794 6 0.982233 0.650907 0.167179 -4 -4 -1 
7088 5 0.0309771 0.630037 0.19906 -1 0 -1 
8007 5 0.368045 0.666149 0.103949 -3 0 -2 
8825 5 0.553112 0.60132 0.18824 1 -3 -3 
6929 6 0.750045 0.59913 0.155892 4 -3 -4 
6002 6 0.921849 0.620658 0.16876 1 1 -5 
5585 6 0.0121605 0.654561 0.172018 -3 4 2 
5143 5 0.392076 0.645223 0.188255 -2 -1 4 
5896 5 0.968569 0.674887 0.138549 0 -2 4 
7330 6 0.119904 0.681315 0.156862 2 -4 -3 
7956 5 0.0523465 0.724283 0.165279 0 1 0 
6299 6 0.238249 0.680433 0.184643 -3 0 0 
7221 5 0.247484 0.716922 0.17929 -1 1 1 
5574 5 0.955252 0.695943 0.167163 -2 -4 0 
6798 5 0.211039 0.71984 0.177784 0 3 -3 
6710 5 0.329397 0.771294 0.194889 2 3 -1 
7953 5 0.670821 0.784741 0.203526 -2 5 -4 
6865 5 0.127314 0.766908 0.116427 -6 0 7 
7642 6 0.290152 0.752387 0.218156 4 3 -4 
5742 5 0.659986 0.758103 0.176199 -1 -3 1 
6172 6 0.911475 0.775168 0.129483 -3 2 0 
6215 6 0.625382 0.777625 0.165281 7 -5 -3 
5386 5 0.754152 0.859484 0.148285 4 4 -1 
7217 6 0.962781 0.781036 0.172733 4 -4 -3 
6464 5 0.497918 0.888964 0.17452 2 -8 0 
5063 6 0.340564 0.886437 0.190665 1 -2 3 
5269 6 0.731469 0.880659 0.148999 -1 -2 0 
8240 5 0.349491 0.932587 0.15225 -1 1 1 
6627 6 0.426566 0.0295877 0.177105 -4 6 5 
6971 6 0.520334 0.97431 0.212104 1 -2 3 
8933 5 0.433915 0.049498 0.181086 4 3 3 
6484 6 0.482405 0.0413184 0.203222 -1 -1 -2 
5429 6 0.873903 0.0117046 0.19925 -2 -1 -3 
7220 5 0.498129 0.0672018 0.202822 -1 -1 -1 
7075 5 0.727494 0.0348122 0.18626 0 3 0 
5892 5 0.0138651 0.0974223 0.185945 -2 -1 3 
6920 5 0.446203 0.10095 0.179362 -1 1 -1 
5966 5 0.345099 0.0942858 0.189149 -1 1 1 
7369 5 0.409075 0.123667 0.16381 -1 -2 0 
6559 5 0.871018 0.156111 0.192624 -3 -2 -1 
8905 5 0.546426 0.108689 0.184671 -1 -1 -2 
5683 5 0.313031 0.166705 0.212759 2 2 -2 
7200 6 0.371841 0.150445 0.233557 0 -3 -3 
5591 6 0.540514 0.160082 0.172292 -4 5 3 
8351 6 0.463542 0.196352 0.227297 5 0 2 
8620 5 0.598024 0.206841 0.205307 1 0 3 
7356 6 0.0138409 0.216019 0.142957 -4 1 2 
6856 6 0.774256 0.24165 0.189909 4 5 3 
5165 5 0.0287929 0.263329 0.178784 -1 0 -2 
6353 6 0.0911735 0.236366 0.184408 3 2 -1 
5307 5 0.688799 0.236094 0.185892 5 -3 -1 
5935 5 0.350477 0.351013 0.180173 -3 0 0 