ITEM: TIMESTEP
20000000
ITEM: NUMBER OF ATOMS
9000
ITEM: BOX BOUNDS pp pp pp
-75 75
-75 75
-75 75
ITEM: ATOMS id type xs ys zs ix iy iz 
5019 5 0.204308 0.000813105 0.0045142 -2 5 3 
6678 6 0.45284 0.011433 -0.000319959 -3 -2 1 
7900 5 0.667815 0.0172756 1.00131 -2 0 -3 
7233 5 0.757376 0.986939 0.995395 2 0 6 
7729 6 0.77349 0.0252909 0.0247182 -3 -3 1 
5362 6 0.233529 0.0217466 0.0186882 -5 4 0 
6350 5 0.968443 0.0500219 0.0176285 -1 5 -3 
6250 6 0.489616 0.0925738 0.97043 1 5 -2 
6279 6 0.781754 0.109298 0.0154731 -2 2 0 
7010 5 0.789204 0.104948 0.0171073 4 6 -2 
8342 6 0.460205 0.152449 0.022352 6 0 3 
6422 5 0.513465 0.119925 0.0366644 0 4 0 
7827 6 -0.000888339 0.145723 0.0339236 -3 0 4 
5422 6 0.976193 0.16387 0.0300391 -1 4 -1 
7287 5 0.352604 0.189137 0.0434417 -7 -2 1 
7593 6 0.479303 0.188946 0.0161691 -3 -2 1 
5358 5 0.330074 0.232399 0.00716882 3 1 5 
6659 5 0.137909 0.230761 0.00261508 3 -2 2 
8325 6 0.255532 0.237685 0.0252448 3 -4 3 
6319 5 0.49237 0.309896 0.0236437 -6 1 7 
6975 5 0.568733 0.288619 0.997673 1 6 -1 
5254 6 0.588121 0.240031 0.978897 3 3 -6 
7929 6 0.667973 0.233556 0.0142711 -4 0 1 
7350 5 0.0767662 0.240006 0.0284987 -3 2 -2 
6991 6 0.168746 0.27674 0.0308801 -4 -1 0 
5109 5 0.261866 0.297522 0.993841 -3 -1 0 
5364 5 0.514915 0.261466 0.0690579 3 4 -5 
6473 5 0.304116 0.295652 0.02106 0 -2 5 
8587 6 0.683539 0.277582 0.0198029 -1 -1 1 
8136 5 0.815713 0.304704 0.030137 0 2 -2 
5598 6 0.861921 0.311006 0.97964 0 -2 0 
6951 6 0.0451289 0.345608 0.980603 0 4 -3 
5589 6 0.516149 0.33533 0.00811192 -4 2 -3 
6424 6 0.782752 0.349979 0.0319199 3 -2 0 
6041 5 0.284329 0.355233 0.0147392 1 2 1 
6302 6 0.0646184 0.3798 1.00174 -3 7 -1 
5257 5 0.389137 0.410204 0.0203923 0 1 2 
6561 5 0.0284302 0.424105 0.990798 4 -3 1 
8759 5 0.280074 0.411645 0.996205 6 5 -1 
8453 6 0.788422 0.445498 0.0282744 -3 1 0 
6670 6 0.789332 0.393206 0.02044 0 1 0 
7220 6 0.900301 0.384907 0.993113 2 -3 1 
8711 6 0.732994 0.402244 0.0200554 0 0 1 
8067 6 0.773514 0.428867 0.949264 2 -3 4 
6955 5 0.913521 0.468801 0.993262 2 -1 4 
8511 5 0.537759 0.472119 0.994433 5 -1 3 
7031 5 0.643604 0.444939 0.000193941 -3 -5 -1 
7304 5 0.778864 0.485098 0.00933195 -4 1 0 
8433 6 0.0539317 0.524343 0.997311 4 2 2 
6229 6 0.772428 0.5169 0.988986 2 -2 1 
6232 6 0.0558245 0.571384 0.0160726 6 -1 8 
6981 5 0.362867 0.554538 0.0207097 -4 4 1 
7605 6 0.564313 0.608048 0.0266846 6 -1 1 
5427 6 0.151931 0.590994 0.990639 6 -2 6 
5313 6 0.411549 0.629902 0.992968 1 0 4 
6207 5 0.49706 0.623749 0.0217153 -2 -2 4 
8996 5 0.462996 0.653589 0.0078989 -3 1 4 
5711 6 0.469281 0.647885 0.0232528 2 -4 0 
6321 6 0.479657 0.681876 0.0156778 -1 0 1 
7901 5 0.688735 0.683876 0.0166956 2 1 3 
6072 6 0.0744087 0.7141 0.975019 3 -1 3 
6530 6 0.145411 0.703961 0.0249785 2 2 -5 
5564 6 0.216966 0.714488 0.0428269 1 2 4 
5044 5 0.238238 0.682539 0.99416 2 -3 3 
8421 6 0.36285 0.748066 0.973062 3 0 -3 
7561 6 0.473276 0.710101 1.00065 4 -3 -9 
8208 6 0.609583 0.715494 0.0370634 2 0 3 
5697 5 0.206884 0.761795 0.0216786 -1 -2 6 
8567 5 0.343979 0.74698 0.0456949 2 -3 -1 
7693 6 0.101487 0.763091 0.982163 -2 2 -3 
8441 5 0.502469 0.734641 0.0168195 -1 -2 1 
6932 5 0.781584 0.71895 0.994632 1 1 -5 
8641 6 0.851639 0.771731 0.983301 -2 1 0 
7073 5 0.19006 0.795437 0.0443471 -6 2 7 
8703 6 0.632105 0.790701 0.0292335 -3 3 7 
6824 6 0.486117 0.810326 0.0406999 5 -1 -1 
8630 5 0.863037 0.772733 0.00439938 -5 -6 -3 
7246 6 0.361034 0.824955 0.00479202 0 3 -1 
7162 6 0.859646 0.812955 0.0426206 -5 5 0 
7052 5 0.980922 0.855735 0.00725399 -1 -5 -3 
8054 6 0.698943 0.887548 0.987871 -2 3 0 
6828 6 0.539123 0.901119 0.975936 -2 3 1 
5945 5 0.804273 0.888829 0.0187512 -3 -1 -1 
6075 6 0.212462 0.906523 0.0131425 -3 -2 -4 
6518 5 0.766122 0.929142 0.0221279 -1 -4 -1 
6338 6 0.989762 0.91437 0.0584507 -4 1 -2 
6971 5 0.179443 0.955921 0.0256157 1 -1 -1 
8394 6 0.596315 0.0191138 0.040793 3 4 -1 
7545 6 0.830594 0.992668 0.0249616 -3 -3 0 
7250 6 0.809766 0.0247892 0.00438596 0 1 0 
7542 6 0.0341907 0.0725419 0.0317987 0 2 -4 
6846 6 0.0766522 0.0779907 0.0436378 5 -1 2 
7993 6 0.619347 0.0616762 0.0443247 -3 1 2 
6024 5 0.934314 0.0437336 0.0755296 -5 -3 2 
6944 6 0.922989 0.068007 0.0849516 -2 0 1 
7159 6 0.159561 0.122609 0.0562001 2 -1 4 
8392 6 0.497676 0.159274 0.000151132 1 -2 0 
6594 5 0.850351 0.105659 0.0445762 1 1 -3 
8866 6 0.271411 0.166158 0.0394048 6 -1 -2 
5887 5 0.48829 0.151898 0.0119469 0 5 2 
8004 6 0.0468126 0.177158 0.045174 0 1 -1 
5826 6 0.132512 0.189046 0.0289204 3 2 1 
7572 6 0.601157 0.178422 0.0169954 1 -8 -3 
8461 5 0.186295 0.20789 0.0367429 3 -1 3 
6109 6 0.93077 0.242285 0.0498974 0 -1 -2 
7856 5 0.583333 0.238707 0.0295651 3 3 -1 
7700 5 0.755844 0.206723 0.0239605 -2 -4 -2 
6576 5 0.0581291 0.279063 0.081355 0 -2 4 
6566 5 0.56972 0.205122 0.0264965 2 0 1 
8389 5 0.556116 0.264981 0.994518 3 -1 -1 
7757 6 0.795782 0.27595 0.0768904 5 0 1 
8216 5 0.275892 0.313557 0.0461471 1 -2 -8 
6299 6 0.336434 0.293469 0.985208 -5 -5 -1 
6187 6 0.714564 0.311695 0.0133079 -2 -3 7 
7570 6 0.824898 0.307256 0.0160128 2 -4 1 
7116 6 0.129263 0.339782 0.015836 4 0 2 
6480 6 0.51651 0.334161 0.0573609 0 -2 -1 
5648 6 0.646237 0.30917 0.0684045 -2 1 -1 
5982 6 0.83422 0.308838 0.0270882 -2 -5 5 
7232 6 0.913144 0.320694 0.00653206 -1 2 2 
6335 6 0.152635 0.341658 0.0595347 1 -4 3 
7065 6 0.201327 0.380973 0.043363 1 3 5 
5545 5 0.227794 0.391553 0.99583 3 -1 3 
8044 5 0.384917 0.376903 0.0504428 3 0 6 
7687 6 0.40515 0.37589 0.0129273 -2 1 0 
7529 6 0.554268 0.363557 0.0256729 -2 -1 4 
7778 6 0.625979 0.401704 0.0118535 -2 -1 3 
7571 5 0.977311 0.373447 0.03182 -1 2 -2 
7761 6 0.111948 0.341021 0.0864051 0 1 2 
5925 5 0.208037 0.388813 0.0352272 3 3 -1 
8020 6 0.798246 0.373899 0.00203896 0 2 5 
5627 6 0.239684 0.399301 0.0553782 0 4 1 
6098 5 0.54679 0.409324 0.0364071 3 -3 3 
5727 6 0.128062 0.46278 0.0256476 -5 0 0 
5197 6 0.744108 0.435382 0.0361 -2 -3 3 
5397 6 0.878297 0.456782 0.0266179 -3 -2 7 
8503 6 0.0445973 0.468695 0.0496644 1 -1 9 
8232 5 0.306576 0.443079 0.0676603 -4 -3 3 
5521 6 0.171109 0.456286 0.0654203 8 -2 -3 
8171 6 0.377832 0.485928 0.980236 -4 1 -2 
5096 6 0.454378 0.494805 0.986081 0 2 -1 
7981 5 0.916319 0.518204 0.0352675 1 -2 3 
7577 5 0.0931316 0.53594 0.0427042 0 2 0 
7913 5 0.113531 0.552854 0.0232419 5 -3 -3 
7848 6 0.0249311 0.567429 0.0138372 0 2 -1 
7589 6 0.128457 0.568861 0.0330771 4 -4 3 
5700 6 0.297464 0.564493 0.0534465 4 -3 4 
8374 5 0.861316 0.54426 0.0583043 -2 -4 -2 
6554 6 0.986245 0.521881 0.996353 4 3 -1 
5960 5 0.296931 0.572009 0.041103 -2 1 4 
7514 6 0.471814 0.550679 0.0157798 -4 4 2 
8574 5 0.241083 0.624527 0.0145627 5 0 3 
7436 6 0.236153 0.587221 0.00341619 -1 2 3 
7776 6 0.383699 0.603972 0.0264805 0 0 1 
8189 5 0.71206 0.572098 0.00937394 2 3 0 
6953 6 0.705753 0.586391 0.0387918 2 0 -1 
5763 5 0.715115 0.630488 0.0595888 0 -2 3 
8650 5 0.0800028 0.660991 0.0329392 7 1 5 
5017 6 0.120293 0.693138 0.0523627 -8 -2 0 
8300 5 0.222622 0.602482 0.0321937 2 -3 0 
5043 5 0.692574 0.617987 0.0576282 1 -1 0 
8953 6 0.777638 0.623299 0.00466027 0 1 0 
5767 5 0.825619 0.607703 0.0372879 -4 2 -1 
8816 5 0.261109 0.610831 0.0072351 5 5 -1 
6503 6 0.837728 0.648681 0.0405858 -6 -2 2 
8437 6 0.97551 0.684396 0.0325384 -3 2 1 
7620 6 0.131168 0.665654 0.0232581 0 -7 2 
5492 5 0.314478 0.674891 0.0425449 6 1 -1 
8273 6 0.0721135 0.766156 0.0548637 -1 -2 1 
6528 6 0.720433 0.756705 0.0794356 0 -2 -2 
8427 6 0.0463223 0.727649 0.0235407 -1 1 -2 
7914 5 0.259179 0.777854 0.0672938 4 1 3 
5471 6 0.911465 0.802207 0.0982335 -4 2 2 
6565 6 0.210212 0.802107 0.0569106 -6 1 0 
6479 5 0.645364 0.821793 0.0563628 -4 -2 0 
7966 6 0.840472 0.847636 0.999271 -6 -3 -1 
6527 6 0.116435 0.838034 0.0171724 -1 0 1 
7477 5 0.312143 0.812298 0.0541566 3 -2 1 
7435 6 0.460497 0.827273 0.0512701 -1 0 3 
5804 6 0.598677 0.818515 0.0351637 3 3 3 
8957 5 0.123914 0.797944 0.0477211 0 0 -2 
6400 6 0.6719 0.884253 0.0105902 1 0 -4 
6564 5 0.743242 0.888456 0.00362212 -1 -3 -2 
5226 5 0.941006 0.87828 0.0342911 2 0 -6 
7885 5 0.22209 0.964427 0.99035 4 3 -3 
8116 5 0.21748 0.948361 0.0425376 -1 1 5 
6982 6 0.0793096 0.984799 0.0342188 -4 -2 -3 
8422 5 0.368527 0.00553883 0.0139975 -1 6 6 
5544 5 0.531432 0.984563 0.0319193 0 2 -4 
6764 5 0.7279 0.928451 0.0428023 0 1 6 
5035 5 0.878927 0.952778 0.0449449 -5 1 -1 
8578 5 0.508522 0.0177887 0.0823635 3 4 -3 
7004 5 0.545693 0.0266558 0.0485089 -4 -2 1 
6119 6 0.346081 0.0384558 0.0710184 1 0 2 
7595 5 0.546557 0.0467038 0.0337298 0 3 -2 
5217 5 0.589714 0.0360801 0.0638119 -4 3 -2 
6246 6 0.948588 0.0926571 0.0353174 -3 6 5 
5192 5 0.346195 0.0710376 0.0926842 -2 -2 2 
6104 6 0.407485 0.0640048 0.0529289 3 2 0 
6706 5 0.856925 0.0611016 0.0355426 1 1 1 
6481 6 0.525263 0.115118 0.0601767 2 -1 -1 
7243 5 0.144072 0.131179 0.0330726 0 5 2 
7948 5 0.782473 0.149157 0.0433614 -3 0 -2 
8825 5 0.0615238 0.19821 0.0642164 1 1 -2 
8962 5 0.117579 0.179529 0.0909351 -1 -4 -2 
7541 5 0.333794 0.182099 0.0592968 0 1 0 
8081 6 0.880109 0.136398 0.096695 2 -4 7 
5609 5 0.688806 0.185026 0.0817557 -4 -1 2 
6440 5 0.968229 0.173753 0.0667848 -1 -2 5 
5584 5 0.243994 0.180376 0.0501645 1 -2 3 
7356 5 0.270465 0.250283 0.058244 -1 3 1 
5236 5 0.349164 0.251593 0.051575 1 -5 -1 
7380 5 0.85095 0.257378 0.0389983 -1 2 -8 
8950 5 0.0332647 0.311596 0.059564 2 -7 2 
5484 5 0.628812 0.286606 0.0478822 -4 -2 2 
7227 5 0.152341 0.29851 0.087808 -2 -1 5 
6007 6 0.271863 0.312304 0.0404576 4 2 2 
6389 5 0.912635 0.339897 0.0482911 -2 -2 -1 
5658 6 0.124288 0.359798 0.0388653 1 -1 4 
8100 6 0.217606 0.33111 0.0723817 2 0 5 
6487 5 0.552173 0.339371 0.0205824 -3 7 -6 
5990 6 0.682405 0.324239 0.0309473 2 -2 3 
6862 6 0.23007 0.347805 0.0761928 0 1 1 
6959 6 0.40317 0.360853 0.0486566 0 1 3 
6411 5 0.766429 0.334863 0.0549542 -5 1 2 
6821 6 0.729186 0.416283 0.0270475 4 -7 2 
8896 5 0.780981 0.375415 0.0253725 -1 3 1 
5377 6 0.874106 0.382859 0.0797379 1 -6 -2 
6339 5 0.280142 0.395268 0.0331971 2 -4 3 
6642 5 0.349013 0.405754 0.0623442 5 0 -3 
8255 6 0.210849 0.400742 0.0592507 6 -1 -2 
6979 5 0.587076 0.434873 0.0678633 4 -2 4 
6355 5 0.576044 0.488433 0.0715968 -1 -1 0 
6251 6 0.0578106 0.502501 0.0422937 -2 -3 0 
6525 6 0.257019 0.480665 0.076358 -3 3 -1 
5857 6 0.428629 0.494587 0.0842681 1 -2 2 
8823 5 0.576104 0.456266 0.0896737 2 1 -1 
7661 6 0.120972 0.515206 0.0557183 5 0 -1 
5808 6 0.335658 0.52109 0.0739044 1 3 -3 
8701 5 0.667595 0.50305 0.0544832 -1 3 -3 
8539 6 0.746353 0.504506 0.076009 5 3 0 
6513 6 0.950127 0.521601 0.0329882 4 3 0 
5307 6 0.103066 0.507067 0.0754911 -3 2 -2 
8559 6 0.768656 0.516851 0.0298605 0 3 2 
6756 6 0.379471 0.56356 0.0682766 2 -2 5 
8489 6 0.405225 0.550474 0.0928792 -2 0 1 
7360 5 0.698925 0.569184 0.0406364 -1 -2 5 
7609 6 0.920647 0.563638 0.0291757 0 1 5 
7300 5 0.0624122 0.624987 0.07089 3 -3 1 
6725 5 0.679163 0.635268 0.00709381 -1 0 -2 
7075 6 0.936479 0.585451 0.0579231 -3 0 -2 
8698 5 0.912905 0.613974 0.0374693 -2 3 3 
5633 6 0.731814 0.678409 0.0579731 0 -1 -4 
8144 5 0.801944 0.637879 0.053909 6 2 1 
6771 6 0.293792 0.66772 0.0394391 2 -7 -2 
6781 6 0.426464 0.648156 0.0352428 -3 -1 -3 
6421 6 0.969834 0.672261 0.0477336 4 -6 2 
8536 5 0.187944 0.715911 0.0530278 6 -3 -6 
7117 5 0.249082 0.696306 0.0586181 1 0 -4 
7461 6 0.250992 0.682276 0.0686435 -3 1 -5 
5535 6 0.254513 0.687254 0.0929954 1 -6 2 
5409 6 0.267121 0.701792 0.0934124 1 -2 3 
5125 5 0.469361 0.732651 0.0806267 -8 -5 1 
6129 5 0.770981 0.739394 0.0684109 4 2 2 
8909 5 0.939848 0.76441 0.0519372 4 1 -1 
8534 5 0.177322 0.815097 0.0390998 -4 4 -2 
7722 6 0.571666 0.783166 0.0404024 -3 4 -1 
5293 6 0.129022 0.797198 0.0407148 -3 0 -3 
7720 6 0.354782 0.806586 0.02193 0 2 -7 
5078 6 0.350705 0.866542 0.0567202 0 -2 -1 
6140 5 0.906603 0.823375 0.0910595 3 4 -1 
8881 6 0.156024 0.883571 0.0725162 0 -2 1 
6067 6 0.172992 0.860982 0.0406079 -2 4 0 
8379 6 0.32988 0.866081 0.0758149 -4 -1 3 
7978 6 0.0517233 0.87251 0.0348223 -7 6 4 
5081 6 0.218937 0.891592 0.0640415 -1 -1 2 
6315 5 0.829444 0.928086 0.0816016 0 0 -1 
8484 5 0.334007 0.904395 0.0864983 -1 1 -2 
6939 6 0.992705 0.986094 0.0528694 2 -2 0 
6542 5 0.550187 0.927589 0.0466539 0 0 -1 
6327 6 0.653972 0.941592 0.0461935 -1 -6 5 
7144 5 0.784593 0.954869 0.0225083 1 -5 0 
8435 6 0.868915 0.960623 0.0492347 1 5 -1 
8620 6 0.233674 0.91836 0.0805647 -3 6 -2 
6263 6 0.328222 0.0135488 0.0488491 0 5 1 
7918 5 0.38667 0.965199 0.0615756 1 -1 1 
8900 6 0.558915 0.980396 0.10416 -5 -6 2 
7471 5 0.823983 0.977881 0.0480967 2 6 -4 
6408 6 0.476562 0.971426 0.0263886 0 1 3 
5917 5 0.825167 0.988978 0.0671541 -1 0 -2 
8051 6 0.904213 1.0016 0.0580921 -3 -2 2 
6693 6 0.990197 0.0465884 0.102467 1 3 -1 
6610 6 0.0783631 0.051239 0.0781876 -2 -3 0 
7068 5 0.579666 0.0594561 0.0995146 1 -1 -3 
7874 5 0.74201 0.0412629 0.0910408 1 -1 5 
8652 6 0.0759766 0.0875568 0.0727672 5 4 -3 
5672 5 0.215083 0.0474403 0.115767 1 2 4 
5714 5 0.948463 0.0505366 0.0863592 0 1 1 
7640 5 0.0947156 0.102679 0.0851952 -1 1 -1 
6034 5 0.194283 0.0890875 0.0982338 2 -1 0 
6643 5 0.395857 0.0794393 0.0555315 -2 -2 -3 
6023 6 0.904227 0.0648991 0.0709433 -8 5 1 
7134 6 0.146579 0.0884996 0.111913 2 -2 -3 
8274 5 0.408273 0.0898124 0.121047 -3 3 1 
5758 6 0.729572 0.0856546 0.12385 1 0 1 
5750 5 0.815487 0.121953 0.051059 2 -6 4 
7862 6 0.935141 0.103199 0.0925342 -4 2 -2 
8378 6 0.0541038 0.122983 0.0974784 0 0 5 
7186 5 0.134911 0.186469 0.0374466 2 -2 3 
7150 5 0.293691 0.123855 0.0827778 -1 2 -1 
7152 6 0.393492 0.148701 0.0732671 -1 8 -2 
8905 6 0.525272 0.107649 0.065907 -2 8 3 
8673 6 0.96253 0.145615 0.0994321 6 -1 0 
5963 6 0.290639 0.162526 0.0340381 1 5 2 
8223 6 0.317079 0.206262 0.0533443 1 2 -2 
5952 6 0.431337 0.183069 0.0844404 4 1 3 
5394 6 0.545412 0.237704 0.0964632 -2 4 1 
6665 5 0.200792 0.247059 0.0885823 -4 4 2 
8527 5 0.444979 0.226424 0.079383 -3 0 1 
6208 5 0.500343 0.236147 0.0803704 0 -4 0 
5456 5 0.609648 0.236316 0.0946528 2 -7 1 
5671 6 0.360071 0.23979 0.0882432 -8 -1 5 
8515 6 0.0451073 0.281938 0.0930702 3 -2 -2 
5296 6 0.413097 0.293603 0.0874938 1 7 6 
6960 6 0.823781 0.310193 0.0686888 2 0 -2 
6986 6 0.422385 0.371016 0.0854905 1 -1 4 
6615 6 0.460792 0.35983 0.0949349 -2 -2 -1 
6666 6 0.976753 0.338536 0.0513855 -5 -6 4 
7521 6 0.166953 0.400329 0.0515156 2 -2 2 
7975 6 0.984274 0.378042 0.109213 0 2 -1 
6184 6 0.996349 0.383849 0.0423382 -2 -1 2 
8826 5 0.153666 0.380553 0.0655229 -3 2 0 
8488 6 0.300628 0.383299 0.0775597 1 0 -3 
6902 6 0.602455 0.372264 0.0693866 2 5 1 
7177 5 0.379857 0.425548 0.0887926 0 -1 1 
5690 6 0.447563 0.480774 0.0795401 0 -1 -1 
7071 6 0.441565 0.432063 0.0250433 -1 2 -1 
8824 5 0.906658 0.52146 0.0721572 5 1 -1 
6329 5 0.257542 0.468802 0.0629994 1 -2 -1 
6413 6 0.289647 0.502578 0.0744849 1 -3 1 
6753 6 0.316339 0.499647 0.0676506 0 0 -4 
5108 5 0.36763 0.544792 0.106057 3 3 1 
5206 6 0.409545 0.580508 0.0621192 -2 2 5 
7828 6 0.839523 0.538857 0.0855649 2 5 4 
6239 6 0.953693 0.527521 0.0831833 2 -3 1 
5888 5 0.18034 0.548785 0.0711848 5 -4 5 
8367 5 0.181908 0.533826 0.125995 -1 -3 1 
5819 5 0.516969 0.568064 0.0608673 -2 1 3 
6772 6 0.65723 0.564588 0.0643269 -1 -1 2 
5219 5 0.730843 0.593241 0.115731 -2 -1 -4 
6056 5 0.747396 0.602507 0.0822933 -3 -1 5 
5419 6 0.921125 0.621036 0.105361 2 0 -2 
7448 5 0.105125 0.627305 0.0945733 -2 0 -3 
7996 6 0.639863 0.68106 0.0835753 0 -6 2 
6050 6 0.0474506 0.650929 0.0647114 -2 -2 3 
5376 5 0.453479 0.63106 0.0520842 -2 3 -1 
7334 5 0.402162 0.703724 0.0823365 -3 -1 5 
6523 6 0.649716 0.686888 0.0889287 -4 -2 -1 
6868 6 0.0705158 0.732831 0.0479625 6 -2 -2 
6384 6 0.146646 0.659871 0.0567756 -6 2 3 
6769 5 0.713221 0.724809 0.0673261 -5 -1 3 
7173 6 0.703624 0.69018 0.079387 -4 -4 -6 
7824 6 0.407621 0.738042 0.110654 -4 -2 -3 
7406 5 0.786228 0.727609 0.0794487 2 -3 4 
7001 5 0.67871 0.725004 0.0789009 3 -4 -4 
5375 6 0.888329 0.762065 0.0721613 5 0 1 
8508 6 0.209966 0.801209 0.111249 -3 -7 -2 
5582 6 0.510087 0.818698 0.0934056 -4 -5 -2 
6081 5 0.190044 0.87875 0.066145 -7 0 6 
6806 6 0.884593 0.849914 0.0637856 2 -3 -3 
7777 5 0.0767458 0.857668 0.0811321 -1 2 -2 
6720 6 0.737888 0.866045 0.0616493 1 -1 -3 
7941 6 0.959491 0.907289 0.0796936 4 3 2 
7865 6 0.201572 0.887964 0.0590405 3 -4 -3 
5359 5 0.778614 0.917034 0.103605 0 3 -3 
5534 6 0.436332 0.925461 0.0916926 1 4 1 
6376 5 0.622794 0.950853 0.065043 2 1 1 
8845 6 0.69752 0.962281 0.0580012 -3 -1 1 
6201 6 0.871732 0.915518 0.00675609 -1 0 10 
8411 6 0.368834 0.93535 0.0835033 -1 -7 -2 
8134 6 0.478949 0.98831 0.0499651 -1 -2 0 
6636 5 0.751063 0.965617 0.0835836 0 7 4 
7248 6 0.975021 0.0533713 0.0881116 2 -2 3 
6588 5 0.641947 0.0821925 0.119996 -2 3 6 
8403 5 0.257633 0.0829985 0.107695 3 3 -3 
6166 5 0.714035 0.155149 0.14024 4 0 2 
8420 5 0.307792 0.18124 0.0892393 0 4 0 
8110 5 0.933318 0.236623 0.0955062 -1 -2 -5 
6757 5 0.309312 0.233329 0.152971 0 -5 0 
8501 5 0.553228 0.232422 0.115902 -5 1 5 
6664 6 0.477049 0.272299 0.110205 -1 0 -5 
7920 5 0.651 0.274897 0.135731 1 3 3 
5756 6 0.0212052 0.325368 0.0883219 2 1 -2 
6030 6 0.712128 0.336715 0.106758 1 2 0 
6895 6 0.302969 0.348393 0.103911 5 5 2 
5554 5 0.505555 0.305495 0.0778224 -1 -2 -1 
5090 6 0.439037 0.384523 0.114977 -4 3 1 
8275 5 0.895638 0.400091 0.110625 -1 -3 6 
5146 6 0.947055 0.364097 0.116972 -4 1 0 
5504 6 0.361878 0.376886 0.102456 2 0 -2 
5837 5 0.758393 0.419631 0.0827676 1 -3 -1 
5907 6 0.128514 0.45136 0.074209 3 3 5 
6943 5 0.17573 0.46469 0.118342 3 4 -1 
5936 5 0.438045 0.446093 0.107129 -1 1 0 
6694 6 0.0310354 0.477573 0.0871532 5 0 -1 
8091 5 0.23576 0.490324 0.108785 1 -1 1 
8085 6 0.51558 0.493419 0.0817901 5 -2 3 
7394 6 0.697438 0.473014 0.0851849 2 -2 -4 
8916 6 0.168999 0.557751 0.0548321 4 4 3 
7005 6 0.553036 0.595392 0.0775718 -2 -1 2 
8056 6 0.782622 0.556831 0.116371 -3 2 0 
6337 5 0.644426 0.576535 0.0845528 -4 3 0 
7178 6 0.469328 0.614984 0.121383 2 -3 -2 
5196 5 0.214851 0.603346 0.0997746 0 -5 2 
7879 5 0.272369 0.66621 0.138207 8 0 2 
7242 5 0.646483 0.654619 0.0600217 -4 0 -2 
6833 5 0.0602866 0.716476 0.111816 -6 4 -6 
8780 5 0.274364 0.698131 0.0930377 -2 -2 -2 
6592 5 0.897273 0.723447 0.0771316 2 -2 -6 
8579 6 0.656429 0.713682 0.109108 4 -1 0 
7616 5 0.345406 0.786978 0.130214 2 -1 -2 
8619 6 0.70052 0.785922 0.0697867 -2 -3 2 
6027 6 0.541451 0.767985 0.0904308 -4 1 1 
6170 6 0.20733 0.771833 0.0620141 5 -2 0 
5956 5 0.483548 0.826945 0.0984136 -2 -4 -1 
7634 6 0.648685 0.808744 0.0891811 -4 3 -3 
5677 5 0.973972 0.819813 0.14441 -3 5 0 
8519 6 0.208432 0.819786 0.135702 -2 -1 4 
6547 5 0.571803 0.824277 0.0515854 6 1 -4 
8042 5 0.00189818 0.828455 0.0904265 0 -3 7 
5243 5 0.0716351 0.840028 0.113949 3 1 -6 
8187 6 0.339169 0.831339 0.108318 3 4 7 
7770 5 0.605808 0.827205 0.117125 -3 -7 5 
5894 5 0.179812 0.866687 0.109096 1 1 2 
6660 6 0.738356 0.881175 0.0869186 -4 -4 1 
8471 6 0.933783 0.873796 0.0975277 3 3 -2 
7352 5 0.102092 0.921429 0.132009 1 2 1 
7235 5 0.618968 0.909013 0.112281 1 6 -4 
6559 6 0.0448138 0.931074 0.123745 -1 2 -1 
5291 6 0.093675 0.937691 0.11955 -2 0 -2 
5180 5 0.362272 0.924201 0.0878519 0 1 1 
8573 6 0.577027 0.953314 0.110704 -4 -3 -3 
5214 5 0.812358 0.900868 0.0968311 2 0 -1 
5443 6 0.95978 0.929857 0.104118 3 -1 2 
5460 6 0.1986 0.943276 0.0641931 0 -2 -2 
5144 6 0.206961 0.958195 0.0827894 2 5 4 
5323 5 0.269779 0.940741 0.100633 2 -7 -1 
5774 5 0.541269 0.993874 0.0964471 -2 3 2 
7183 6 0.815227 0.979892 0.0845043 2 -1 3 
7680 6 0.362874 0.00848095 0.120772 -4 2 0 
6568 6 0.532696 0.0405811 0.13404 5 -5 6 
6968 6 0.260172 0.0160544 0.0859543 0 1 0 
8646 6 0.417783 -0.00134149 0.147499 -5 -1 1 
8120 5 0.568421 0.0502082 0.156308 -1 -2 -1 
6609 5 0.330332 0.0318138 0.126373 -1 2 2 
7947 6 0.979111 0.0532137 0.121002 3 -4 0 
7933 6 0.218755 0.0625726 0.113543 -1 1 -1 
8802 5 0.84803 0.054246 0.112172 -3 1 4 
8895 5 0.634945 0.120705 0.165872 0 -4 2 
7800 6 0.742078 0.161477 0.0912073 0 -2 7 
8075 6 0.202327 0.140102 0.153382 -2 2 -2 
6242 6 0.595095 0.161754 0.122855 -3 -6 -4 
5029 6 0.337029 0.178334 0.134293 -4 4 1 
6967 6 0.350455 0.172372 0.10407 -1 -4 7 
7820 5 0.548061 0.15278 0.138215 1 0 0 
8926 5 0.64479 0.183591 0.142881 -5 1 -4 
6737 5 0.787018 0.159136 0.168089 3 2 -2 
6255 6 0.179425 0.243964 0.106488 -5 -1 10 
7657 6 0.56733 0.194774 0.113387 -5 5 1 
6468 5 0.94643 0.142221 0.0962964 -1 -1 1 
8806 6 0.0675774 0.198461 0.139416 5 -5 2 
6043 5 0.717361 0.235143 0.129909 -5 -5 -1 
6182 6 0.917134 0.203208 0.120405 4 2 1 
5665 5 0.908361 0.26368 0.125605 -2 0 -3 
7779 5 0.0620802 0.227035 0.123084 0 2 -2 
8720 6 0.0906478 0.260133 0.145441 -5 -2 3 
5616 6 0.011644 0.283195 0.155215 0 2 -6 
7746 6 0.632817 0.333219 0.119138 2 1 3 
7802 5 0.071776 0.353227 0.204194 1 -3 -3 
6864 6 0.0884049 0.325531 0.122164 5 2 0 
8308 6 0.655369 0.323301 0.0897519 1 3 -1 
8132 6 0.65665 0.316351 0.131709 6 1 -2 
7262 5 0.939183 0.289124 0.132752 -1 -4 -2 
6198 6 0.91885 0.348712 0.15332 4 7 0 
5581 6 0.142042 0.355074 0.0959945 -3 5 0 
6175 5 0.783771 0.342473 0.104986 1 2 1 
7557 6 0.136324 0.37237 0.143676 1 1 3 
6220 5 0.350689 0.424047 0.114462 1 -8 5 
5218 6 0.364615 0.399483 0.12154 -4 2 0 
8432 5 0.629916 0.436225 0.115406 -5 -2 -1 
7587 6 0.42194 0.469872 0.143942 1 -2 -3 
8747 5 0.214817 0.442234 0.127249 3 -2 -5 
8999 6 0.38451 0.523458 0.14406 3 2 -1 
6485 5 0.0803576 0.595674 0.090362 1 4 -4 
6061 6 0.765146 0.576932 0.102054 0 2 3 
5467 6 0.0545907 0.582312 0.109385 2 -1 7 
7030 6 0.297157 0.622937 0.100548 0 1 -1 
5673 6 0.495478 0.596373 0.104247 1 -5 -2 
5681 6 0.786872 0.653606 0.0933846 -5 3 -3 
5618 5 0.00856606 0.641908 0.117632 2 0 0 
8375 5 0.177849 0.661406 0.168322 0 0 -2 
7378 5 0.635943 0.635697 0.100831 1 -4 -3 
6205 5 0.226328 0.687466 0.114036 -1 2 5 
7314 5 0.788087 0.676236 0.150627 3 0 -1 
5580 5 0.970334 0.708616 0.124773 -3 -1 1 
5976 5 0.261456 0.749878 0.115757 3 3 -2 
7296 6 0.958875 0.739802 0.123552 -2 1 2 
7651 5 0.435412 0.776987 0.129283 -6 -3 2 
5477 5 0.721938 0.758272 0.118663 -5 0 3 
6286 5 0.770121 0.788407 0.0747232 2 0 0 
7919 6 0.821974 0.78162 0.145729 1 0 -1 
5425 5 0.959545 0.800013 0.101887 2 1 -1 
7102 6 0.149663 0.74039 0.15816 -4 -1 -4 
5659 5 0.780939 0.797205 0.106806 3 -6 3 
8064 5 0.106144 0.766357 0.166163 3 2 2 
8469 5 0.614325 0.793092 0.130954 2 3 2 
7275 5 0.435088 0.830959 0.0940968 -4 0 -1 
8123 5 0.567903 0.81657 0.127962 -4 0 -5 
6860 5 0.831625 0.841186 0.15264 -5 -4 -2 
6684 6 0.081087 0.915291 0.137528 4 0 -1 
5356 5 0.271759 0.847525 0.123168 2 0 2 
7241 6 0.0411019 0.875796 0.134744 1 -3 -2 
6101 6 0.445144 0.876299 0.164418 -3 2 1 
7467 5 0.278322 0.885264 0.103925 -2 2 -1 
5974 6 0.51047 0.876988 0.111653 0 -2 3 
7097 5 0.757944 0.892759 0.103102 0 -3 3 
8000 5 0.205883 0.903649 0.103812 -4 -3 -2 
5327 6 0.682194 0.892783 0.144569 -5 3 5 
6490 5 0.69736 0.891688 0.130364 -2 -2 0 
6342 5 0.472259 0.937934 0.123959 -1 -6 2 
7986 6 0.555642 0.973043 0.10465 0 -1 -4 
6293 5 0.10626 0.978651 0.133587 0 -2 1 
7826 6 0.559426 0.0341664 0.16806 -1 2 1 
7199 6 0.0536087 0.0297828 0.152469 2 3 0 
8240 6 0.102371 0.018801 0.122092 2 3 -1 
5734 6 0.703961 0.0255248 0.124138 1 5 -3 
7181 5 0.968661 0.121314 0.154224 -2 3 3 
8833 5 0.146118 0.0906573 0.151676 0 0 0 
8079 6 0.688414 0.0121641 0.124207 1 6 8 
7424 6 0.0363562 0.0770727 0.153455 -4 1 -3 
6582 6 0.203887 0.155426 0.176515 -1 1 1 
5966 6 0.272718 0.0768175 0.143149 -1 2 1 
8776 5 0.298734 0.131785 0.147215 -1 2 -2 
7487 5 0.32039 0.100978 0.131233 -1 0 -4 
6344 6 0.497709 0.086302 0.158976 2 3 0 
7132 6 0.480753 0.107343 0.153337 -4 -2 -4 
5497 5 0.981695 0.167177 0.12308 5 2 3 
8746 5 0.620818 0.13634 0.14843 3 0 4 
5286 5 0.902233 0.15499 0.154734 -2 3 3 
6185 5 0.661043 0.180845 0.139247 -5 -1 -4 
5811 6 0.694774 0.220651 0.14558 -2 0 -1 
8371 5 0.835617 0.183013 0.132191 0 5 2 
5450 6 0.105435 0.21441 0.160132 3 1 -2 
6869 5 0.220258 0.193625 0.130866 2 -1 3 
7267 5 0.630211 0.268107 0.124253 -1 1 0 
7835 6 0.937103 0.238309 0.173557 1 -2 -1 
8864 6 0.977496 0.253447 0.139967 4 3 2 
7575 6 0.278637 0.204755 0.113046 4 -4 0 
8608 6 0.457719 0.241963 0.211833 1 2 -3 
7142 5 0.73186 0.218191 0.154483 2 7 -5 
7223 5 0.92221 0.243551 0.136241 1 -2 1 
7643 6 0.9486 0.224917 0.131853 -1 2 2 
8344 6 0.289242 0.231436 0.156672 -2 -2 -1 
6008 6 0.457589 0.233532 0.140586 -1 -1 3 
8832 5 0.960518 0.270509 0.148864 3 1 4 
5543 5 0.177164 0.270677 0.125471 1 5 4 
8948 5 0.211264 0.36233 0.135201 6 5 4 
7861 6 0.35527 0.34226 0.121928 2 -4 0 
6429 5 0.442046 0.312264 0.12756 0 0 -1 
8554 6 0.109178 0.374958 0.166045 -1 1 -3 
7109 5 0.247727 0.373073 0.13693 -3 -1 1 
6852 6 0.287738 0.390631 0.15127 2 -4 -4 
7781 6 0.0368689 0.385003 0.154211 1 -2 0 
6256 5 0.305976 0.422924 0.165099 0 2 1 
8127 6 0.770804 0.427644 0.143013 -2 3 4 
8160 5 0.822017 0.406148 0.150924 0 -5 6 
5828 6 0.829945 0.455256 0.118824 -3 5 -6 
7411 5 0.0329171 0.464881 0.151451 1 3 3 
8834 6 0.192101 0.458759 0.158448 -5 -2 0 
6890 5 0.484396 0.446365 0.15697 -1 3 -1 
7214 6 0.769942 0.4713 0.176595 2 2 -1 
8814 5 0.242591 0.520721 0.157452 5 2 0 
8362 6 0.260343 0.4961 0.112634 -4 -1 2 
6289 6 0.568055 0.544513 0.113463 -1 4 6 
5824 6 0.899127 0.528221 0.174808 2 -1 -3 
5398 5 0.92237 0.506254 0.196069 -1 4 -1 
8708 5 0.469198 0.523521 0.151203 -3 6 5 
5216 6 0.573787 0.543341 0.139906 2 -4 2 
5385 5 0.897087 0.575619 0.140814 -4 3 -3 
6505 6 0.76729 0.55931 0.151278 -3 -3 -1 
6826 6 0.242868 0.593708 0.128468 -3 -2 1 
5980 5 0.248385 0.583575 0.118663 10 6 1 
8491 5 0.481084 0.600303 0.163172 1 0 0 
5265 6 0.754462 0.566295 0.137322 -1 1 5 
5591 6 0.873949 0.595212 0.136715 4 -1 2 
6020 6 0.937996 0.582209 0.180081 -2 -1 3 
7710 5 0.147815 0.60326 0.1504 2 -5 1 
8423 6 0.693835 0.585335 0.164642 -4 3 3 
8865 5 0.657076 0.614721 0.144229 6 1 -2 
5682 5 0.214807 0.617309 0.145176 -3 1 -1 
7909 5 0.354606 0.657005 0.142604 2 2 4 
7459 5 0.656585 0.628168 0.168445 2 4 -3 
8031 5 0.849012 0.696674 0.165642 -2 5 2 
7688 6 0.909695 0.676491 0.150331 -2 2 4 
5325 6 0.979051 0.674828 0.16499 -3 -1 -1 
8838 6 0.0961741 0.680411 0.165235 1 1 3 
5088 5 0.035877 0.724353 0.151227 0 1 -3 
5893 6 0.308086 0.760938 0.163169 3 -6 2 
7081 5 0.723342 0.702362 0.141458 1 -3 3 
8660 6 0.838501 0.740883 0.130534 1 -3 -1 
5680 5 0.87771 0.727792 0.15752 2 3 -2 
8454 6 0.0207183 0.78992 0.130912 -1 0 -3 
5782 6 0.78424 0.800234 0.149982 3 -2 -2 
6937 5 0.992311 0.741428 0.135431 -2 9 -3 
8956 5 0.92852 0.80744 0.167326 2 0 5 
8568 6 0.29272 0.847112 0.146022 1 -3 2 
6789 5 0.273034 0.822223 0.104138 1 -4 3 
6807 5 0.562681 0.869051 0.139059 -3 4 1 
5314 6 0.0801016 0.861956 0.140406 -1 -4 -3 
7960 6 0.23745 0.890686 0.126011 8 4 0 
5012 5 0.57107 0.850234 0.139507 -1 4 0 
8600 5 0.546842 0.873454 0.158356 0 5 1 
6449 5 0.000575857 0.88875 0.161796 0 1 0 
5435 5 0.615366 0.930276 0.12012 1 1 -4 
7377 6 0.849695 0.914575 0.148149 -1 -4 -1 
6012 6 0.187326 0.993748 0.114913 1 -2 -1 
8522 5 0.582027 0.973173 0.119815 4 4 4 
7712 5 0.628707 0.957009 0.143641 -1 -1 3 
8283 6 0.583447 0.975374 0.165563 1 0 -1 
5958 5 0.0792201 0.986916 0.14513 -2 0 0 
5418 6 0.112664 0.98355 0.192503 -2 2 3 
6199 6 0.289839 0.994303 0.160417 0 3 2 
5668 5 0.62083 0.0173946 0.188284 -2 1 8 
7041 6 0.358177 0.030614 0.187572 -1 5 -2 
8103 5 0.358872 0.0188512 0.149986 0 2 1 
5753 5 0.427493 0.0292288 0.198318 1 -1 5 
5337 5 0.78741 0.0521229 0.158812 -6 1 -4 
8485 5 0.152836 0.105389 0.177878 0 -2 -3 
6908 6 0.837904 0.133887 0.171094 1 5 -3 
5129 5 0.0220749 0.158453 0.186252 6 -3 1 
6570 5 0.823046 0.17546 0.194437 0 3 4 
5918 6 0.8215 0.158295 0.146256 -8 -1 -1 
6906 6 0.513332 0.173398 0.187336 0 2 1 
7742 6 0.646861 0.192658 0.15735 0 0 -4 
7555 6 0.224145 0.235653 0.149644 -1 1 -5 
8858 5 0.30768 0.208399 0.193547 4 1 0 
6797 6 0.454225 0.197961 0.159525 -2 1 1 
8951 6 0.603798 0.238587 0.182803 -1 -2 -4 
6470 5 0.580957 0.208554 0.148169 -4 -1 3 
7093 6 0.814396 0.238894 0.159002 -2 -1 -2 
8138 6 0.915407 0.210457 0.180907 0 2 3 
7747 5 0.959987 0.258568 0.146576 -2 -5 1 
6260 6 0.195918 0.299837 0.211818 5 -2 1 
5676 6 0.541164 0.27432 0.174002 4 -1 -2 
6259 6 0.794197 0.275482 0.174135 -3 0 4 
8147 6 0.657177 0.335125 0.168407 -2 1 -2 
6168 6 0.273124 0.345292 0.19047 2 -1 -4 
5316 5 0.228186 0.365652 0.164984 1 1 1 
8200 6 0.256702 0.363009 0.166875 -1 -3 -1 
8076 5 0.631962 0.385913 0.180753 -1 2 -8 
8106 5 0.196443 0.385412 0.177154 1 -1 -2 
8332 5 0.159418 0.477294 0.169917 3 0 0 
5124 6 0.175481 0.412593 0.200125 -2 -2 1 
8254 6 0.325031 0.430377 0.188482 -5 -4 4 
5863 6 0.646249 0.460933 0.15113 -1 -5 4 
5848 6 0.673828 0.438761 0.16911 -2 5 1 
7740 6 0.0314865 0.498841 0.135445 0 1 4 
8899 5 0.637706 0.506049 0.165831 1 0 3 
7415 6 0.784835 0.465918 0.177259 0 -2 -1 
8636 6 0.946916 0.441926 0.173559 -2 0 5 
7942 6 0.639435 0.500113 0.150729 -4 4 -2 
6464 5 0.223108 0.476474 0.152277 0 -4 -5 
5130 6 0.849334 0.52529 0.143081 1 2 -1 
7209 5 0.114745 0.520273 0.188993 0 -5 2 
6087 5 0.463076 0.547052 0.161297 1 0 -5 
5674 5 0.509545 0.590166 0.168644 2 0 4 
5102 6 0.576453 0.57526 0.136321 0 2 -1 
6859 5 0.909183 0.62958 0.176348 -6 5 -3 
7205 6 0.910487 0.58817 0.190429 -4 -1 3 
7456 6 0.86361 0.604507 0.184491 -3 1 -5 
7046 5 0.568296 0.628539 0.147894 1 -2 2 
5561 6 0.444658 0.667716 0.155254 -3 0 -3 
8355 5 0.967394 0.692566 0.175832 2 0 -3 
7204 6 0.0949818 0.770897 0.189212 2 -2 3 
7020 6 0.404423 0.73047 0.188845 1 -2 2 
7458 6 0.805783 0.747125 0.168437 0 1 -2 
8088 6 0.81932 0.747331 0.147484 0 2 -6 
6137 5 0.0836774 0.76605 0.143674 3 0 -2 
8080 6 0.241433 0.771067 0.164241 -2 -2 2 
7917 5 0.381262 0.816478 0.184847 1 3 7 
5189 5 0.556474 0.826364 0.153462 -3 -1 -3 
8350 6 0.291468 0.773117 0.169559 -1 7 -2 
5449 6 0.405184 0.830798 0.160423 2 -3 0 
7218 5 0.125607 0.806883 0.149722 3 -5 -5 
6161 6 0.290853 0.873235 0.197727 3 2 4 
8788 6 0.947129 0.823836 0.162405 1 -3 4 
5478 6 0.136911 0.855238 0.150926 3 -3 -7 
8907 6 0.421524 0.853173 0.153583 -5 2 -2 
5079 5 0.747381 0.870403 0.159204 2 6 3 