ITEM: TIMESTEP
20000000
ITEM: NUMBER OF ATOMS
9000
ITEM: BOX BOUNDS pp pp pp
-75 75
-75 75
-75 75
ITEM: ATOMS id type xs ys zs ix iy iz 
5956 6 0.785943 0.0250463 0.00511429 -1 2 3 
5516 5 0.196134 0.0789656 0.987175 -1 3 -1 
6834 6 0.436407 0.0344538 0.0225354 0 -1 -1 
8756 6 0.012502 0.0773084 0.999593 2 0 1 
6596 6 0.167768 0.0453767 0.0400639 -1 0 6 
8788 6 0.218382 0.103707 0.00834376 0 -1 6 
8494 5 0.50928 0.0473527 0.048035 -3 4 -1 
5320 6 0.374182 0.136339 0.97645 2 0 3 
8173 6 0.466751 0.142874 0.977362 -3 3 -3 
5276 6 0.909954 0.103491 0.0578623 1 3 2 
7052 5 0.721639 0.169913 0.0432206 -2 -2 3 
8887 6 0.175048 0.161093 0.966513 2 2 -3 
5850 5 0.611046 0.204397 0.00635925 0 1 0 
8042 6 0.759508 0.192076 0.962571 2 2 3 
6070 6 0.461992 0.237068 0.988143 1 3 0 
5374 5 0.763874 0.224946 0.961653 -1 -2 -1 
6030 5 0.891496 0.231315 0.998673 -4 -3 2 
6757 6 0.252085 0.284167 0.0554425 -2 0 2 
6640 5 0.369402 0.305832 0.0287856 1 0 -1 
8956 5 0.633291 0.267324 0.974679 -1 2 5 
7321 6 0.935095 0.276402 0.985881 2 10 -2 
8528 5 0.906719 0.208511 0.0616715 -1 -2 2 
8408 5 0.549637 0.294484 0.0352859 -3 -2 1 
8008 6 0.303898 0.331266 0.0132572 -2 -1 -1 
5197 5 0.718122 0.305309 0.0181947 3 0 2 
8338 5 0.742559 0.310249 0.00995405 -5 2 1 
5854 5 0.805025 0.335522 -9.96428e-05 7 -1 4 
5421 6 0.492827 0.387924 0.975744 -1 3 5 
7421 6 0.944459 0.327474 0.0173125 0 0 -4 
7348 5 0.561327 0.38871 0.0272211 0 -1 1 
6019 6 0.0508818 0.441007 0.992142 2 0 2 
7057 6 0.476461 0.44716 0.98984 -4 3 4 
8283 5 0.612765 0.452513 0.05848 -3 1 0 
7964 6 0.12231 0.459489 0.997266 -2 -3 3 
7329 5 0.662616 0.434482 0.0236793 -1 1 0 
8775 6 0.854261 0.46064 0.0418564 0 3 6 
8154 5 0.183364 0.46709 0.0256725 -2 1 -2 
8665 6 0.798434 0.47772 0.999823 -1 3 -5 
7205 6 0.636903 0.466476 0.0193108 1 1 3 
8535 5 0.790865 0.494557 0.994107 -4 0 -1 
7108 5 0.912129 0.470428 0.987584 2 -1 0 
5454 5 0.281593 0.577466 0.984414 -4 3 0 
6545 6 0.575439 0.607129 0.00590839 -3 -2 0 
8157 6 0.941997 0.560558 0.0212611 -4 -1 0 
7281 5 0.440382 0.594364 0.991506 -3 -4 0 
6836 6 0.322236 0.644253 0.0474528 -3 -1 -1 
6529 5 0.392528 0.73054 0.977114 3 -2 -2 
5539 5 0.535802 0.685824 0.0205325 3 -3 1 
6729 6 0.7478 0.643348 0.998063 5 -2 4 
5552 6 0.992 0.738846 0.987707 0 -1 -1 
7863 5 0.702436 0.722847 0.979293 -3 2 -3 
7792 5 0.287733 0.743535 0.0206181 1 0 2 
5507 5 0.421996 0.764224 0.00449538 -2 0 1 
8716 6 0.509446 0.73852 0.0336631 -2 -1 4 
7249 6 0.717969 0.748644 0.0224994 -2 1 2 
6818 6 0.673128 0.781976 0.0448202 3 5 0 
7034 6 0.288481 0.773928 0.0401371 1 -6 -4 
7120 5 0.319718 0.778266 0.0295628 -3 2 1 
6543 6 0.431466 0.826776 0.992847 2 -3 1 
7652 6 0.382162 0.817373 0.98296 5 0 2 
5744 5 0.673638 0.822012 0.0121662 1 -3 0 
8859 5 0.203815 0.888368 0.0364519 -2 1 3 
6924 5 0.322057 0.865169 0.0113646 0 5 4 
8329 5 0.984477 0.857736 0.0387517 1 -6 1 
6744 5 0.858024 0.91132 0.00185302 -2 -2 5 
8077 5 0.0767654 0.927981 0.00796136 -2 -2 1 
6296 5 0.530863 0.980406 0.00700819 1 -2 2 
8287 6 0.639405 0.946546 0.012249 -1 4 5 
6635 6 0.914672 0.943195 0.0131306 -2 4 6 
8180 5 0.586935 0.978741 0.0331137 -2 -2 1 
7339 5 0.369787 0.0274759 0.0526926 -2 0 2 
8922 5 0.775656 0.991609 0.0166952 -1 3 -1 
6855 5 0.840437 0.998899 0.0222005 -4 1 3 
5488 5 0.998731 0.963222 0.998475 -1 -3 -3 
7330 6 0.667088 0.00155379 0.0343707 3 -4 3 
5900 5 0.764142 0.0148609 0.0609011 -3 2 3 
6078 5 0.0214174 0.0379199 0.03311 -3 1 -1 
6989 6 0.74782 0.0948484 0.0768455 -4 0 3 
5250 5 0.818973 0.0305027 0.0914199 3 2 -1 
5757 5 0.845475 0.0794515 0.00681645 0 0 1 
8641 6 0.180854 0.122787 0.0256213 -2 0 -1 
8229 5 0.59527 0.0951709 0.0119068 -4 5 -8 
6564 6 0.0181777 0.135369 0.0533902 2 -1 0 
7037 6 0.205433 0.114053 0.0194884 2 -3 1 
7272 6 0.7962 0.165156 0.0746882 -1 -1 1 
8729 5 0.582586 0.183554 0.023883 -3 -1 0 
8892 6 0.841352 0.197797 0.0242956 -4 -4 -3 
7893 6 0.949506 0.208886 0.053724 -2 1 -3 
8392 5 0.107482 0.216205 0.0150945 2 4 -3 
5119 6 0.0260529 0.225312 0.0643873 3 -1 5 
5172 6 0.153655 0.258909 0.0364261 5 3 1 
8782 5 0.277047 0.281797 0.0618806 1 2 -1 
5050 6 0.171428 0.31967 0.0194565 1 4 -1 
6311 6 0.361722 0.301058 0.0304369 0 2 3 
7429 5 0.427537 0.315272 0.0180825 -1 2 2 
8644 6 0.340588 0.311537 0.0500192 2 5 1 
8896 6 0.421275 0.329833 0.0494706 0 -5 -1 
8734 5 0.47366 0.377444 0.00489164 1 4 2 
7473 5 0.533038 0.347994 0.0145067 4 -5 -4 
5305 5 0.120501 0.371823 0.0229652 0 2 6 
6434 6 0.236585 0.369552 0.0274565 4 -2 2 
5679 5 0.135389 0.415809 0.0496196 -2 0 2 
7243 5 0.16905 0.438063 0.987149 1 1 3 
5184 6 0.189568 0.424991 0.069767 -1 1 6 
6041 5 0.534511 0.438847 0.0257641 -3 3 -2 
6037 5 0.526162 0.423045 0.0632725 -2 1 -4 
6442 6 0.551933 0.404203 0.05852 0 -1 1 
8318 6 0.220132 0.470013 0.0206126 2 2 0 
8973 6 0.65619 0.462408 0.0553759 -1 -3 4 
8062 5 0.316968 0.463429 0.0306408 6 1 1 
6420 6 0.937315 0.472377 0.0214613 -3 -6 4 
6621 5 0.110036 0.484764 0.0274106 2 3 -3 
7019 5 0.526759 0.497783 0.0517334 -3 -1 -3 
5593 6 0.793971 0.466062 0.0286507 5 -4 1 
8643 5 0.268314 0.514837 0.0459966 2 2 2 
6947 5 0.509646 0.527146 0.0149834 3 -1 -5 
5813 6 0.307748 0.54996 0.00127091 3 -1 0 
8977 5 0.318217 0.540946 0.0392589 0 0 -3 
6016 5 0.569439 0.502958 0.996154 6 -1 -1 
8132 6 0.707155 0.510584 0.0824887 -5 -5 -1 
8560 5 0.796339 0.511097 0.0504599 -1 4 3 
5317 6 0.790988 0.554703 0.0526074 1 4 0 
7514 6 0.241087 0.559402 0.0203728 -1 -5 0 
8849 6 0.472144 0.601476 0.997601 3 0 -2 
7738 6 0.387852 0.581091 0.0131568 1 -2 5 
7560 5 0.439127 0.58247 0.0276834 4 -1 1 
7401 5 0.516264 0.601711 0.0194977 0 4 4 
6508 6 0.608074 0.624754 0.0161461 -6 1 0 
8321 5 0.692072 0.573025 0.00440636 -1 3 -3 
5673 5 0.710511 0.618028 0.0685223 -3 3 0 
5296 6 0.732787 0.603447 0.0613798 1 2 -4 
5730 5 0.165445 0.626962 0.0217048 1 -1 1 
5815 6 0.269635 0.639665 0.0553245 4 -4 -3 
5299 5 0.584672 0.646507 0.00376612 1 2 4 
8562 6 0.504142 0.680937 0.0184399 3 1 2 
8118 6 0.784114 0.716718 0.0310938 2 0 -3 
5795 5 0.841366 0.701148 0.0432987 1 -2 1 
8798 6 0.859131 0.724782 0.0654613 -5 -1 -2 
7433 5 0.0865284 0.711476 0.996218 8 4 -4 
6156 6 0.803395 0.746796 0.0323576 -3 3 -4 
7192 6 0.328171 0.742129 0.0707263 -1 2 0 
8978 6 0.949139 0.766226 0.0337822 -2 -1 2 
5075 6 0.60091 0.778638 0.0386314 -6 -5 5 
5103 6 0.755214 0.793133 0.0283556 0 1 4 
5793 5 0.789518 0.754192 0.0418735 0 -4 3 
5391 6 0.214855 0.761365 0.0439583 2 -1 0 
8943 6 0.450285 0.779255 0.0512441 2 -2 3 
8811 6 0.905645 0.82022 0.0439792 -4 0 -1 
6755 5 0.783959 0.814037 0.0371155 0 2 0 
5273 6 0.0115631 0.821862 0.051799 3 0 5 
6612 6 0.391443 0.877603 0.0696543 -2 -3 -1 
6746 6 0.448906 0.844962 0.022576 3 0 -5 
7755 6 0.69996 0.898035 0.0449849 0 -2 1 
7469 6 0.764614 0.872934 0.011747 -2 2 0 
6361 5 0.244688 0.945383 0.994939 5 -3 2 
6032 6 0.792536 0.918401 0.0477855 1 -2 2 
8843 6 0.571112 0.916069 0.0574464 2 5 -4 
7351 6 0.0292218 0.947313 0.0392082 -1 -8 3 
6629 5 0.822771 0.940455 0.0387454 1 3 -3 
5315 6 0.811627 0.91739 0.0390546 4 5 3 
6443 5 0.0677798 0.971348 0.0229777 -2 -2 -1 
6903 6 0.298069 0.970298 0.0262965 1 5 -1 
5994 6 0.652757 0.969935 0.0427589 -1 -1 -4 
8384 5 0.726607 0.940487 0.00513068 4 1 1 
6686 5 0.617469 0.00328799 0.0225772 4 -4 -4 
8404 5 0.0410145 0.0350916 0.0896639 -6 0 -3 
5949 6 0.714318 0.0107647 0.0427552 0 0 1 
6668 6 0.196685 0.0629047 0.0419678 -4 0 4 
7888 6 0.665987 0.100752 0.0706111 0 2 -6 
8575 6 0.898847 0.0585657 0.0164121 1 1 3 
6324 5 0.991396 0.0484816 0.0761069 -5 1 2 
6862 6 0.190602 0.0936441 0.0365879 -2 -4 -3 
5415 5 0.0500336 0.108814 0.0710625 1 3 2 
9000 5 0.428887 0.091432 0.042172 -2 -3 5 
5287 6 0.449868 0.0997876 0.0586132 3 2 -4 
7927 5 0.540797 0.138803 0.0606287 -4 0 1 
5398 5 0.861645 0.109595 0.0513457 -5 -1 -1 
7459 6 0.305613 0.12015 0.060305 1 -3 1 
7510 5 0.89819 0.167374 0.0578262 3 2 3 
5702 6 0.445956 0.153732 0.0536339 -1 2 -2 
7982 6 0.427978 0.171528 0.0549078 -4 0 5 
5048 6 0.348085 0.190103 0.0226106 3 0 -1 
8153 5 0.599116 0.187828 0.064009 -2 3 5 
7641 5 0.607447 0.227654 0.0671994 -2 -1 -2 
6308 6 0.898226 0.173153 0.0616401 -1 -2 0 
8201 5 0.919589 0.213131 0.0143282 -2 -1 3 
5964 6 0.982778 0.219956 0.0620953 3 3 4 
6877 5 0.111144 0.242947 0.0608488 1 0 2 
8545 5 0.270948 0.267172 0.0724333 -1 0 2 
7434 6 0.333043 0.218722 0.0553493 1 3 -4 
7239 5 0.47055 0.268145 0.0362467 2 -1 -2 
5948 6 0.518582 0.273749 0.0404028 -5 -1 0 
8140 6 0.559169 0.322403 0.0630437 -1 1 -3 
7593 5 0.672164 0.31741 0.0511129 -3 4 1 
8938 6 0.792998 0.292714 0.0402628 -4 -1 4 
5667 5 0.981268 0.313388 0.0585184 -5 -3 -4 
7566 5 0.0398471 0.312948 0.0517405 -6 1 -5 
8332 6 0.32925 0.318941 0.0323526 1 1 3 
8890 5 0.486195 0.328903 0.0239595 0 3 3 
5143 6 0.227779 0.371127 0.0705046 -4 1 -2 
6708 6 0.999073 0.394538 0.0453997 -3 -4 -4 
5091 5 0.0529779 0.43074 0.0487286 -3 6 -2 
6453 5 0.342666 0.416851 0.0835188 5 -4 -1 
6823 6 0.344502 0.393416 0.0619488 -4 1 2 
6998 5 0.478656 0.353564 0.0542967 -3 2 1 
8324 6 0.855689 0.406533 0.0957883 2 -3 1 
7551 6 0.139257 0.418986 0.0561153 1 2 2 
6326 6 0.413735 0.429441 0.05608 2 0 -1 
8147 6 0.512614 0.469606 0.0251519 3 -1 -2 
7591 5 0.893141 0.446488 0.0692188 -3 0 5 
5514 6 0.798798 0.474708 0.0784939 1 1 5 
6385 6 0.216479 0.481614 0.0559628 -3 1 7 
6867 6 0.694598 0.522226 0.0616083 -1 -2 -1 
8527 5 0.973801 0.505558 0.0735026 -7 1 -1 
6233 6 0.186656 0.497695 0.0419018 -3 -2 -2 
8682 5 0.191543 0.502933 0.0103186 2 -2 2 
8736 5 0.226529 0.495519 0.0521357 -2 -2 1 
7681 6 0.340839 0.51532 0.0761985 -6 3 0 
6887 5 0.752145 0.530159 0.0436065 3 2 -1 
8213 5 0.161525 0.516936 0.0607152 -5 3 -1 
8270 6 0.339758 0.504271 0.0551139 4 -4 1 
6314 5 0.870348 0.572587 0.0356664 2 -6 3 
6990 6 0.775545 0.57087 0.0645995 2 4 0 
5036 6 0.888169 0.58537 0.0473514 -1 -3 1 
6750 6 0.0129319 0.590929 0.0414972 0 -3 -2 
5723 6 0.728493 0.625417 0.0478719 -2 -4 -2 
7654 6 0.201337 0.632767 0.0779058 1 4 2 
7384 5 0.291103 0.637459 0.0661138 3 2 -3 
8603 6 0.146988 0.665002 0.0360254 3 -2 -1 
5156 6 0.334911 0.734885 0.0597576 -1 1 7 
8965 5 0.681715 0.698471 0.0834549 0 -3 -3 
6595 5 0.846732 0.708932 0.0647242 -2 1 4 
7954 5 0.890408 0.717996 0.0453166 3 -2 0 
8652 5 0.0535268 0.796698 0.0501457 2 0 7 
8031 5 0.244604 0.785727 0.0610977 0 -2 -2 
7847 6 0.438403 0.740825 0.042685 2 -5 -2 
7523 6 0.808925 0.793427 0.0411022 3 -2 2 
5094 5 0.296362 0.789458 0.0738777 5 2 4 
8234 5 0.624168 0.775777 0.0309862 -1 -1 -3 
8810 6 0.00300104 0.792033 0.0236462 0 0 0 
6974 5 0.0810896 0.812365 0.0696148 4 3 2 
8470 6 0.11983 0.827558 0.0710207 1 -1 -4 
8378 5 0.333911 0.823051 0.0245355 -1 5 2 
7293 6 0.566165 0.845057 0.0567616 -1 3 1 
8144 6 0.689003 0.823511 0.085217 -2 1 3 
5455 6 0.845302 0.866271 0.0398527 2 -3 2 
7118 5 0.664006 0.895648 0.0367442 4 0 2 
8563 6 0.66677 0.898001 0.0671394 6 0 0 
5707 6 0.0324766 0.896266 0.0819304 1 -1 0 
8847 6 0.842281 0.95975 0.0764661 1 0 3 
5282 5 0.0800211 0.943144 0.0319632 4 3 3 
6977 5 0.245896 0.955658 0.0393283 -2 5 0 
6460 6 0.537856 0.000692481 0.0483457 1 -1 0 
8043 6 0.228366 0.978985 0.0662452 0 5 -4 
5191 6 0.349122 0.00215534 0.0353249 0 3 2 
6034 5 0.0674271 0.0176365 0.102326 2 -1 -2 
7825 5 0.141197 0.0338604 0.0410792 4 2 0 
7289 6 0.979877 0.06475 0.111102 -3 -1 -6 
6103 6 0.965362 0.0452562 0.0856656 4 6 4 
7521 5 0.0695781 0.069361 0.104414 -1 -1 8 
6614 6 0.767565 0.0585987 0.0984956 3 -3 0 
5801 5 0.103541 0.0961323 0.0516544 -2 1 -2 
5938 5 0.149207 0.098506 0.0583301 1 2 3 
7793 5 0.0108617 0.140498 0.103363 -3 -2 -6 
6547 6 0.14432 0.0671701 0.10932 -1 -3 -2 
6835 6 0.794563 0.142811 0.0956701 0 -3 -1 
7986 6 0.974301 0.133338 0.0883481 1 0 2 
5687 5 0.1885 0.17527 0.056995 -2 1 3 
8515 6 0.847521 0.142293 0.0309643 -1 1 -7 
8383 6 0.517295 0.200489 0.0682168 -1 2 0 
8721 6 0.6004 0.213516 0.0578532 -2 -2 1 
8765 5 0.393085 0.242503 0.108564 -3 -2 -5 
7940 5 0.699011 0.241269 0.0777385 -6 -3 -1 
6136 5 0.827853 0.263479 0.105845 0 4 -1 
8639 5 0.911712 0.253986 0.0697854 0 6 0 
5216 6 0.712966 0.250595 0.0892605 -3 2 -1 
6276 6 0.879839 0.275058 0.0615957 -1 -1 -1 
5300 5 0.648281 0.328091 0.0684565 -2 1 0 
5167 6 0.370022 0.33528 0.0718303 3 7 0 
5183 5 0.662424 0.364916 0.0568278 1 -2 -2 
7981 5 0.708862 0.32059 0.0863759 -4 -4 0 
6534 6 0.657891 0.389517 0.128676 -1 3 1 
7910 5 0.417673 0.398948 0.107922 -1 -8 3 
5018 5 0.630422 0.380872 0.0767598 -2 -5 1 
8185 6 0.944429 0.373273 0.0586789 0 1 1 
5381 5 0.305586 0.433983 0.0870086 -1 -3 1 
8538 6 0.279082 0.449818 0.0462029 -6 -1 0 
7184 6 0.430725 0.47836 0.0775145 -2 -1 4 
5736 6 0.611953 0.46038 0.0614913 1 -3 -1 
6982 5 0.833326 0.41428 0.0625933 1 1 3 
5360 5 0.626117 0.46664 0.0787913 0 0 4 
6408 5 0.705162 0.429802 0.083636 -1 0 3 
5136 5 0.92553 0.44853 0.0799572 0 2 1 
8666 6 0.582062 0.498187 0.0648969 0 -3 0 
5530 6 0.0892335 0.518955 0.0743181 0 -3 2 
5493 5 0.213697 0.53785 0.0695345 0 3 1 
7304 6 0.340367 0.546172 0.106091 1 0 1 
7213 6 0.749227 0.587217 0.0685553 4 2 -4 
6178 6 0.751347 0.591843 0.0925938 -7 6 -2 
8320 5 0.80945 0.563633 0.0771741 3 2 -1 
7716 5 0.101298 0.608125 0.0975101 7 2 -1 
6953 5 0.425692 0.599217 0.0807726 -2 -1 2 
6139 6 0.68362 0.611543 0.0917585 3 1 4 
7318 6 0.460411 0.582109 0.0801361 2 3 -1 
8737 5 0.683396 0.584832 0.0572653 1 -1 3 
6768 6 0.874099 0.619727 0.0855709 -2 3 2 
6830 5 0.0331333 0.609646 0.136006 -1 1 -6 
5469 6 0.565121 0.677096 0.0402103 3 4 -4 
6473 5 0.612644 0.625637 0.0730751 -2 -3 4 
8399 5 0.648117 0.633053 0.109605 3 2 -2 
7638 5 0.667905 0.693097 0.121724 -3 1 -4 
8993 5 0.612336 0.698031 0.0745085 -2 1 7 
5174 5 0.642299 0.720611 0.0962907 -2 -2 -3 
6374 6 0.936856 0.709167 0.100271 1 7 1 
7056 6 0.488163 0.720619 0.082119 -2 1 -2 
7845 6 0.0590562 0.702652 0.0828808 -4 3 -1 
5028 5 0.0405301 0.737571 0.0740809 3 1 -6 
6712 5 0.115693 0.724885 0.077559 -2 -2 -2 
6290 6 0.194285 0.766175 0.0811064 3 -2 1 
5628 5 0.306731 0.705457 0.0861899 -4 0 0 
6159 5 0.403864 0.749852 0.108476 5 -2 0 
6719 6 0.609132 0.77833 0.0634518 3 -2 3 
7975 5 0.989289 0.745477 0.0851316 -2 2 1 
5681 5 0.38023 0.822509 0.0524789 3 -2 3 
8048 5 0.553133 0.749312 0.0751035 7 2 0 
6010 5 0.691374 0.785913 0.0793529 1 -1 -2 
6177 5 0.292872 0.810624 0.017202 6 -4 3 
7411 6 0.685493 0.82301 0.0499001 -1 -1 1 
6302 6 0.892655 0.807242 0.0853012 0 2 2 
6436 6 0.869065 0.740041 0.0604298 3 -10 1 
5169 6 0.969239 0.825417 0.0859815 -1 2 2 
6202 6 0.963228 0.811031 0.0776668 -1 0 3 
6806 6 0.546366 0.863703 0.0479349 4 2 3 
5064 5 0.659842 0.855165 0.0916352 6 -2 -2 
8098 6 0.985615 0.835801 0.0981855 0 4 2 
5479 6 0.0430885 0.800851 0.0852948 1 3 4 
7103 6 0.207966 0.871635 0.0675648 -1 7 0 
8717 6 0.27411 0.848173 0.150466 -4 2 0 
5728 6 0.243349 0.812304 0.0455948 0 -5 1 
5981 6 0.464762 0.893731 0.0784577 1 -2 0 
5254 5 0.742787 0.929331 0.108716 2 0 -3 
6195 5 0.815898 0.90241 0.0733624 1 1 5 
6152 6 0.499809 0.881658 0.0565253 0 0 -5 
6613 5 0.945474 0.88621 0.0754281 3 2 0 
7186 6 0.478781 0.925326 0.0687357 2 3 3 
6335 6 0.905962 0.924441 0.0282181 0 1 0 
6459 5 0.224919 0.912384 0.102911 5 -1 0 
6329 5 0.234064 0.963507 0.0307265 1 0 -3 
5978 5 0.237322 0.960821 0.0620408 -3 -1 -1 
5441 6 0.349839 0.950267 0.0828426 -4 3 -2 
5496 6 0.46167 0.963893 0.0973685 -1 3 -1 
8422 5 0.100933 0.983267 0.0773695 1 5 4 
8001 5 0.992164 0.985513 0.0825371 0 0 1 
6899 5 0.35203 0.997336 0.0608097 4 1 -2 
7386 6 0.897854 0.000663353 0.0824522 4 6 -4 
8235 5 0.174297 0.0233259 0.0891172 -2 1 5 
7567 6 0.431878 0.0487593 0.120928 2 -2 8 
7675 5 0.979359 0.0423936 0.0866125 2 1 3 
7848 6 0.751429 0.0948256 0.091445 -2 -4 1 
6838 5 0.873274 0.0858477 0.0921326 2 0 1 
8109 6 0.705636 0.0945899 0.0793323 1 4 1 
6600 6 0.78318 0.125897 0.105741 -5 3 3 
8829 6 0.173143 0.16012 0.0923399 1 0 1 
6198 5 0.269082 0.138764 0.0911698 -5 -2 -3 
6404 6 0.0504415 0.142073 0.0985433 4 -4 0 
8915 6 0.1628 0.155771 0.0791136 -1 -1 0 
8674 6 0.369324 0.168989 0.143542 2 -1 -4 
8591 6 0.00303204 0.228351 0.100329 0 0 2 
8158 5 0.900054 0.178426 0.124844 2 2 6 
6201 5 0.985274 0.167915 0.142311 3 3 -3 
5766 6 0.131373 0.202626 0.105418 -2 4 8 
5168 6 0.59889 0.210688 0.100179 -4 0 2 
6801 5 0.706054 0.236257 0.135172 -2 -1 1 
8409 5 0.770791 0.226995 0.0729636 -3 -2 -6 
5910 6 0.897052 0.227404 0.150749 -4 1 0 
7024 5 0.99436 0.21562 0.0951165 -6 -1 7 
7405 6 0.699449 0.253596 0.10036 0 -1 -2 
5642 6 0.458188 0.250522 0.103861 5 2 0 
5456 5 0.0554537 0.299094 0.132303 -1 1 2 
7040 5 0.723241 0.297814 0.134944 -4 -2 0 
8261 5 0.588848 0.319667 0.0780082 -1 -3 2 
8888 5 0.0399284 0.343031 0.124551 3 1 0 
8599 5 0.191306 0.357417 0.104707 0 -4 0 
6587 6 0.608418 0.390367 0.113298 -2 8 5 
5323 6 0.388981 0.392305 0.0992387 1 -1 1 
5694 6 0.88155 0.420107 0.0801935 -2 -1 0 
6485 6 0.987115 0.463094 0.093589 3 1 3 
7271 5 0.274583 0.443992 0.0995796 0 3 0 
5366 6 0.292646 0.448642 0.105351 2 -3 -2 
7328 6 0.376048 0.471449 0.111646 -2 5 4 
6922 6 0.836194 0.464386 0.0805716 -3 -3 0 
8647 5 0.256235 0.494139 0.117092 -4 -3 -3 
7091 5 0.383203 0.520227 0.120282 0 8 -1 
8083 5 0.770984 0.514177 0.123989 -1 -2 -2 
6889 6 0.39856 0.531127 0.0891552 -2 -3 -5 
8899 6 0.788918 0.561646 0.137168 3 -2 1 
7087 6 0.890821 0.539041 0.0663497 -1 3 3 
8311 6 0.931019 0.544161 0.139662 2 2 -3 
6865 6 0.368834 0.545608 0.134349 1 -4 -1 
7823 6 0.464184 0.601825 0.101176 5 -2 1 
5209 6 0.6645 0.587357 0.135495 0 6 0 
6093 6 0.910485 0.559144 0.110807 -7 0 -4 
7870 6 0.0847396 0.589822 0.0764032 0 -7 -4 
6394 5 0.512233 0.607071 0.115062 4 1 -2 
5591 5 0.37861 0.643545 0.130713 -7 4 3 
6795 5 0.98715 0.675652 0.0816552 -1 3 4 
7538 5 0.59139 0.728053 0.0932245 -1 5 0 
8103 6 0.792535 0.683758 0.0964972 -1 0 0 
6255 5 0.320846 0.757963 0.066244 -1 -4 3 
5105 6 0.923289 0.722572 0.0893292 -3 1 0 
5321 5 0.209999 0.76812 0.0838805 -4 -2 1 
7733 5 0.643712 0.846514 0.127356 -4 -3 -2 
6020 6 0.108229 0.8373 0.116148 0 1 6 
8336 6 0.606075 0.841109 0.10173 0 2 -2 
7541 6 0.157598 0.907013 0.0731444 -1 -2 -2 
5992 6 0.741111 0.881016 0.114063 1 -3 -2 
8711 5 0.928179 0.920618 0.126989 0 -1 0 
6167 5 0.998732 0.940253 0.132995 2 -2 -1 
5669 6 0.186575 0.966031 0.117882 0 -2 6 
8188 5 0.849881 0.932913 0.113064 2 -1 2 
7951 5 0.0745762 0.990461 0.115248 3 -3 2 
8500 5 0.0120677 0.993663 0.140124 1 -6 -1 
8076 6 0.0252101 0.0471801 0.0969541 1 1 -2 
7656 5 0.231315 0.00993316 0.138746 7 2 -3 
7925 5 0.113462 0.0404556 0.12737 1 -1 3 
8524 6 0.275367 0.0321431 0.14505 1 -1 4 
5125 6 0.3901 0.0699809 0.16074 -4 1 -1 
7174 6 0.399791 0.0510841 0.108523 2 -3 0 
6929 6 0.845836 0.0741897 0.144713 -1 -3 6 
8195 5 0.854523 0.0399101 0.1481 -3 -1 1 
7235 5 0.0545566 0.056581 0.162672 1 -2 -1 
5671 6 0.179679 0.062944 0.0920903 1 -1 0 
5570 5 0.506012 0.0462896 0.125738 -1 1 -1 
6111 5 0.207487 0.0766051 0.125682 1 6 4 
5344 6 0.614884 0.078781 0.106653 -1 3 -2 
7811 6 0.875916 0.0611373 0.120098 0 0 3 
5242 6 0.500806 0.0733643 0.153386 -2 0 2 
6284 5 0.126208 0.183606 0.110212 -2 -4 -2 
6658 5 0.37502 0.146465 0.114227 -2 5 0 
7061 5 0.572677 0.103833 0.137856 3 -5 -2 
5962 5 0.593909 0.12682 0.0779444 -2 3 2 
8677 5 0.0043538 0.142544 0.080524 4 2 4 
5128 5 0.499203 0.193735 0.138101 -3 0 1 
8901 5 0.581102 0.170828 0.114622 3 -2 -5 
8396 5 0.719943 0.150141 0.110471 -3 -1 0 
7269 6 0.807943 0.180412 0.112862 4 0 -3 
8010 6 0.0956779 0.199122 0.134994 -2 2 3 
6439 6 0.38306 0.180706 0.14143 1 0 4 
7882 6 0.791233 0.180744 0.107407 -1 5 -2 
6915 6 0.493022 0.189347 0.109832 -1 2 3 
7358 5 0.488924 0.238905 0.141873 -4 2 2 
5387 6 0.6853 0.239883 0.127478 2 3 -2 
8502 5 0.768526 0.24543 0.145155 -3 3 -1 
8564 5 0.254486 0.300446 0.115059 -2 -5 2 
6340 6 0.422738 0.252908 0.109761 -2 1 -7 
7306 5 0.00801475 0.293789 0.0918223 5 0 -2 
8426 6 0.137439 0.31516 0.115913 -3 -2 6 
8706 5 0.358258 0.3084 0.102887 -1 1 4 
6514 5 0.965522 0.283018 0.141161 -1 1 11 
8740 5 0.175997 0.33424 0.139068 2 2 -3 
5834 5 0.903748 0.363366 0.149703 -2 -3 -1 
5464 6 0.417262 0.307988 0.143171 3 3 4 
8405 6 0.675071 0.353369 0.127732 -1 5 1 
7409 5 0.599093 0.364435 0.153318 -3 -3 2 
5779 6 0.828768 0.382934 0.132364 2 -6 -1 
7831 6 0.286569 0.408073 0.0956236 -6 1 2 
5038 6 0.966438 0.391797 0.0801268 3 -1 1 
8252 6 0.130716 0.426812 0.112299 0 -2 -2 
5495 6 0.408781 0.418157 0.134677 0 1 -1 
5023 5 0.728115 0.427227 0.0967738 -5 8 0 
7769 6 0.217019 0.438026 0.139859 1 3 -5 
6026 5 0.245963 0.419539 0.160023 3 -1 -4 
6677 5 0.347098 0.485586 0.118961 0 3 2 
8260 5 0.110751 0.438805 0.146996 0 0 0 
5925 5 0.231982 0.44081 0.0912819 3 -4 -2 
7094 6 0.646454 0.472082 0.158559 1 0 0 
5763 5 0.390793 0.502909 0.0810099 1 1 0 
8191 6 0.593057 0.482118 0.116133 1 0 3 
7582 6 0.952905 0.529953 0.126049 -5 0 -2 
6429 5 0.981257 0.49533 0.132634 -4 1 -2 
5852 5 0.319639 0.542663 0.12778 -1 1 -2 
7140 5 0.836877 0.497017 0.136627 -2 2 -5 
5864 6 0.701145 0.511322 0.125145 0 3 0 
7426 5 0.0655807 0.563627 0.123721 4 6 3 
7047 6 0.528471 0.54994 0.123975 -6 1 -2 
7930 5 0.774628 0.592846 0.120736 -1 0 0 
5586 5 0.123508 0.570119 0.104456 -3 0 -2 
6119 5 0.134713 0.581655 0.123722 2 -2 4 
8932 6 0.32536 0.593639 0.11657 3 0 0 
6095 5 0.326789 0.594702 0.133742 3 0 4 
5259 6 0.373503 0.651578 0.150779 2 3 5 
8464 6 0.842785 0.663998 0.122038 4 4 0 
6853 6 0.323635 0.625475 0.123553 1 3 2 
7004 5 0.396716 0.637747 0.143874 -2 -2 1 
8415 5 0.812225 0.615596 0.0932472 -1 2 0 
5531 6 0.133207 0.647703 0.137838 -6 3 2 
7579 5 0.515033 0.665842 0.100966 -1 0 1 
7005 5 0.556359 0.638315 0.119688 2 -4 0 
5890 5 0.509064 0.681791 0.137534 0 2 1 
7107 6 0.153849 0.70205 0.110257 5 -2 4 
5808 6 0.231052 0.706679 0.105923 -9 4 -1 
7713 5 0.410964 0.660251 0.159991 3 -2 0 
5083 6 0.170521 0.720022 0.131276 -3 -1 3 
8927 5 0.527439 0.724437 0.0918381 0 -1 4 
5206 5 0.684751 0.73265 0.120243 2 -5 3 
5784 5 0.660432 0.732981 0.122568 0 -4 1 
7298 6 0.94307 0.708281 0.154543 -1 1 -1 
5620 5 0.186474 0.728458 0.122532 -2 0 -2 
7331 5 0.346948 0.739794 0.103435 0 1 5 
6009 5 0.070946 0.785844 0.0991139 4 1 -3 
5770 6 0.107835 0.785542 0.12632 4 2 3 
6761 6 0.941206 0.803383 0.13227 2 1 -2 
5052 6 0.956806 0.791645 0.132105 -5 5 -2 
6863 6 0.0286013 0.822968 0.105263 3 -3 2 
7856 6 0.0394812 0.813842 0.117111 -1 -4 -6 
5968 6 0.169984 0.814036 0.124544 5 -3 2 
8148 6 0.730122 0.790517 0.124718 -1 1 -6 
5404 5 1.00007 0.788519 0.127797 -2 2 -4 
8900 5 0.0576836 0.834894 0.119344 -4 1 -2 
6692 5 0.0752412 0.839907 0.110612 -1 3 2 
7013 6 0.537549 0.803504 0.0958538 5 -5 4 
6280 6 0.796783 0.855447 0.100182 -2 -1 0 
7834 6 0.374617 0.829945 0.141081 0 -1 3 
7300 6 0.436651 0.852311 0.125288 -1 -1 -1 
7492 6 0.360494 0.857861 0.128271 -1 -4 2 
7390 6 0.365167 0.947995 0.117549 2 -1 -2 
6515 6 0.98428 0.903044 0.134104 -7 -4 2 
7201 5 0.418044 0.914915 0.158962 -3 3 6 
6438 5 0.136114 0.960688 0.112909 0 -1 2 
7084 5 0.295283 0.976424 0.128301 0 -2 5 
8519 6 0.810538 0.923623 0.137789 -6 -1 5 
5433 6 0.943253 0.921945 0.122867 0 -2 0 
6050 5 0.280939 0.9799 0.170505 0 -1 2 
7266 6 0.553338 0.992913 0.106175 0 1 3 
8326 5 0.809496 0.952433 0.0906535 -2 -6 5 
6769 6 0.0833554 0.0579724 0.12629 -4 0 -1 
5708 6 0.278448 0.0274194 0.105618 2 -2 2 
8638 6 0.710117 0.997464 0.11546 0 -3 -2 
8805 5 0.987003 0.00389339 0.190552 -5 1 -4 
6151 5 0.181736 0.0451428 0.170328 -2 2 -1 
6055 6 0.19826 0.135075 0.110944 5 3 0 
6787 5 0.601773 0.11325 0.138473 -2 -2 -3 
5699 6 0.829435 0.110378 0.167825 -1 -4 3 
8883 5 0.879893 0.13828 0.163121 0 -3 -1 
8490 6 0.878002 0.155947 0.149485 -2 -4 -3 
8741 5 0.311787 0.157045 0.165835 -3 -3 3 
7296 5 0.284749 0.209055 0.184806 6 -2 -1 
8467 5 0.397593 0.189468 0.131424 -2 -4 1 
6824 5 0.0914649 0.261664 0.179576 1 4 5 
5781 6 0.910177 0.244475 0.138298 -4 2 2 
8233 5 0.141514 0.249463 0.130377 -2 3 4 
5372 6 0.817725 0.259979 0.16442 -1 0 2 
6092 6 0.517846 0.290026 0.123855 3 0 1 
8469 6 0.802307 0.365983 0.146249 1 5 -3 
6530 6 0.0224942 0.405972 0.102353 -5 2 2 
6850 6 0.510639 0.363091 0.122931 -2 3 3 
6926 5 0.300585 0.403521 0.15953 5 -2 -1 
8931 6 0.915625 0.424565 0.135842 -3 4 -1 
8758 6 0.944264 0.395136 0.144014 -7 -2 -5 
7748 6 0.38619 0.434421 0.178116 1 1 7 
8657 6 0.843484 0.444515 0.191279 -6 0 2 
5677 6 0.984075 0.432073 0.0898941 -4 -1 -2 
7649 6 0.344166 0.452957 0.190868 1 -3 3 
6717 6 0.84679 0.474304 0.112788 -1 2 0 
8615 5 0.660501 0.521164 0.142313 3 9 4 
8095 5 0.387146 0.508049 0.137853 1 -2 2 
7460 5 0.62312 0.497523 0.171652 1 1 1 
7297 5 0.884369 0.500027 0.141665 -5 2 -1 
8254 6 0.813509 0.52472 0.141263 -5 -4 2 
7404 6 0.809312 0.542337 0.134706 -8 -4 0 
7761 6 0.858429 0.546446 0.172026 -1 -3 -2 
7995 6 0.861434 0.506576 0.15189 2 5 -1 
5492 6 0.693152 0.607597 0.134191 4 1 -3 
6471 6 0.768423 0.573396 0.130407 -5 2 2 
5977 6 0.802693 0.649927 0.174225 2 1 4 
7619 5 0.29229 0.639481 0.150153 0 3 4 
5457 5 0.30347 0.689986 0.146779 2 -2 0 
7764 5 0.475683 0.626621 0.118099 -3 -5 0 
6391 6 0.703773 0.632135 0.160042 0 3 0 
5769 6 0.8776 0.633458 0.135812 0 0 -1 
7578 6 0.906597 0.639805 0.138746 -3 -5 -2 
5416 6 0.739911 0.677009 0.153383 -3 5 -2 
5897 6 0.543027 0.72904 0.146831 1 -3 -1 
6286 5 0.721136 0.668896 0.144669 0 -1 -4 
7220 6 0.782679 0.702573 0.15138 1 4 3 
6759 6 0.143849 0.705519 0.15306 0 -2 0 
8679 6 0.0734672 0.779649 0.15677 -1 1 0 
5031 6 0.799149 0.738805 0.135488 -3 4 1 
8341 5 0.870424 0.764315 0.140119 -3 -4 -2 
8369 5 0.279394 0.808077 0.106488 2 1 3 
8434 6 0.449459 0.789701 0.148763 7 -1 3 
8115 5 0.313045 0.829778 0.153359 4 -4 -1 
8556 5 0.471666 0.883845 0.167106 0 -1 -1 
8358 6 0.314753 0.827146 0.180465 -3 -8 1 
6366 6 0.946306 0.872104 0.193061 5 4 0 
6467 6 0.0412596 0.897392 0.163733 -1 0 -1 
8763 5 0.176046 0.854603 0.16209 -2 -2 -1 
5650 5 0.910041 0.868004 0.113094 -2 -4 2 
8951 6 0.150686 0.917382 0.156622 3 -3 1 
5199 5 0.492297 0.852834 0.146334 -3 -2 4 
7265 5 0.290181 0.921771 0.14252 -2 3 -4 
8953 5 0.388009 0.993197 0.159226 0 -5 3 
7327 5 0.650997 0.952634 0.145973 0 0 1 
6149 6 0.723219 0.957852 0.0886442 -1 3 -1 
6854 6 0.203614 0.984562 0.118006 -4 0 0 
6281 6 0.218426 0.975709 0.157084 4 3 5 
6579 6 0.582439 0.9704 0.142003 3 0 -1 
6065 5 0.537952 0.989146 0.148477 -3 5 0 
5431 5 0.859883 0.0164072 0.194616 2 2 3 
5368 5 0.403737 0.0219743 0.135661 1 -1 1 
8878 5 0.113125 0.0751249 0.183087 3 1 -3 
5585 6 0.27369 0.0853891 0.172233 -2 -3 1 
7686 5 0.101941 0.143244 0.154136 -3 -2 2 
5765 6 0.104054 0.147702 0.228451 2 1 1 
7360 5 0.868133 0.103876 0.144667 -3 2 4 
6813 6 0.124483 0.172349 0.182978 -1 -2 0 
7944 6 0.0779123 0.154187 0.186765 -1 6 -1 
6758 6 0.434496 0.201636 0.151607 -1 -3 -2 
5716 6 0.539229 0.148358 0.192805 -3 -2 -10 
6575 5 0.785941 0.167256 0.174452 -2 4 -2 
5318 5 0.174904 0.198644 0.186779 -2 3 -2 
6831 6 0.498193 0.241094 0.181714 -1 4 -1 
6363 6 0.604965 0.240194 0.18309 -1 2 -2 
5027 6 0.981118 0.202987 0.160317 0 6 2 
5472 6 0.114706 0.238192 0.158511 -5 0 6 
7064 6 0.423793 0.232731 0.177154 1 3 -5 
7506 5 0.480354 0.25576 0.22346 0 3 -3 
8573 6 0.85585 0.206332 0.198961 -1 2 2 
6689 5 0.0143267 0.253428 0.146513 -4 0 4 
7206 5 0.973292 0.314881 0.159086 -3 2 2 
7345 5 0.847451 0.357852 0.171476 -1 1 1 
5637 6 0.533692 0.398016 0.200096 4 0 0 
7284 5 0.915848 0.372791 0.21623 -6 0 -1 
5868 5 0.00281053 0.386866 0.16439 1 0 -2 
5016 6 0.144945 0.406164 0.221892 2 0 3 
5930 5 0.522065 0.410001 0.161504 3 4 4 
6403 5 0.585413 0.369466 0.18038 -1 1 1 
6197 5 0.616711 0.372693 0.168839 3 0 -5 
6163 5 0.697291 0.43485 0.204618 -1 5 -1 
7242 6 0.465638 0.418838 0.158113 1 -2 2 
5176 6 0.298487 0.491045 0.201509 0 2 2 
8549 6 0.504214 0.478489 0.160366 0 0 -3 
7187 6 0.786992 0.515802 0.179568 -3 -2 -1 
7874 5 0.352868 0.5524 0.165452 0 -3 0 
7717 5 0.445354 0.509568 0.152062 1 -3 1 
8802 6 0.804173 0.47775 0.167336 -5 1 -1 
7904 5 0.0691343 0.536874 0.142624 -1 -7 -4 
5662 5 0.436023 0.535465 0.158048 1 2 3 
8570 6 0.526021 0.532789 0.1536 3 2 4 
6334 5 0.99501 0.539126 0.159416 1 0 -3 
5965 6 0.305077 0.566304 0.161762 3 5 3 
8380 5 0.349899 0.538725 0.176168 2 5 -4 
5883 6 0.385373 0.561749 0.145504 -4 0 2 
7342 6 0.526947 0.537771 0.186124 -1 -2 -6 
8715 5 0.00712738 0.561573 0.160207 -2 -2 -5 
7853 5 0.262469 0.570021 0.168254 -4 -1 0 
7512 6 0.446112 0.675915 0.158783 -2 5 -2 
6999 6 0.184837 0.670448 0.180331 -1 3 -5 
5819 6 0.489988 0.70318 0.159344 5 -3 -1 
5847 6 0.139527 0.712781 0.182762 6 -3 3 
8688 5 0.0586929 0.735615 0.184872 2 0 0 
6186 6 0.799219 0.755773 0.170151 1 0 -3 
6428 6 0.113762 0.765851 0.162392 1 0 0 
8284 5 0.880397 0.767138 0.133343 -4 0 2 
7257 6 0.634434 0.772983 0.164963 -8 1 10 
8407 5 0.685149 0.793078 0.16919 0 0 5 
8574 6 0.0121255 0.816827 0.154278 5 5 -1 
7714 5 0.24099 0.819187 0.182643 -1 -4 -2 
6954 6 0.440635 0.880032 0.132711 0 1 0 
8558 6 0.512696 0.878668 0.148978 2 2 0 
8291 5 0.735645 0.847523 0.153932 -4 -4 -4 
7529 6 0.925719 0.895324 0.151943 1 -4 0 
6100 5 0.435195 0.867147 0.166211 1 5 -3 
8170 5 0.811234 0.884372 0.167919 2 4 3 
6908 6 0.991238 0.899124 0.139611 -3 1 -3 
8241 6 0.65619 0.89445 0.181382 -4 -3 -3 
7195 6 0.794634 0.891645 0.196877 -1 2 0 
7454 5 0.0124897 0.933898 0.187169 -1 -1 -3 
8491 6 0.52499 0.00410295 0.175611 2 -2 0 
7680 5 0.490586 0.0214979 0.18131 -2 3 2 
5700 6 0.753256 0.000631709 0.18467 -1 -2 2 
6535 5 0.0576239 0.0732013 0.171398 0 -2 -1 
8156 6 0.221444 0.0243358 0.17269 4 3 1 
8197 6 0.386687 0.076897 0.203349 -5 -3 4 
5759 5 0.249217 0.0825878 0.208123 1 3 5 
5749 5 0.514566 0.0653454 0.177973 -3 4 -1 
8022 6 0.76929 0.0550698 0.202676 0 -2 -1 
7797 6 0.106418 0.115071 0.196997 0 -1 3 
6749 5 0.238411 0.061252 0.211165 0 2 1 
6849 5 0.220159 0.107278 0.132312 -3 -4 -2 
7587 5 0.646161 0.114834 0.146734 -1 1 -4 
8664 5 0.978501 0.11281 0.223452 -3 0 -1 
5239 6 0.514647 0.105612 0.184432 4 0 2 
8913 5 0.839371 0.167257 0.202746 3 -1 1 
5059 5 0.899195 0.16846 0.225859 -6 1 -1 
7603 6 0.0107002 0.153514 0.209412 1 2 -4 
5921 5 0.00269103 0.189133 0.151457 -1 2 2 
5645 5 0.505928 0.200416 0.22449 -2 -1 -1 
7575 6 0.767488 0.196094 0.144608 0 2 2 