ITEM: TIMESTEP
20000000
ITEM: NUMBER OF ATOMS
9000
ITEM: BOX BOUNDS pp pp pp
-75 75
-75 75
-75 75
ITEM: ATOMS id type xs ys zs ix iy iz 
6793 6 0.395655 0.994803 0.979544 -4 1 -5 
7027 5 0.85602 0.0473496 0.00191697 -1 0 -4 
8221 6 0.0286507 0.0341566 0.970359 1 -3 -4 
5869 5 0.472178 0.0256454 0.00315019 2 1 2 
5476 6 0.14036 0.0358616 0.992093 2 -3 3 
8043 6 0.792458 0.0414493 0.985402 -5 2 -5 
6079 5 0.826818 0.0772506 0.00301862 -1 3 1 
7847 5 0.849779 0.10478 0.0391659 -1 -1 -2 
5814 6 0.982464 0.11257 1.00201 4 3 -4 
8539 6 0.111599 0.116386 0.00705257 0 1 2 
5696 6 0.675364 0.103159 0.99345 4 2 -1 
8395 5 0.881946 0.142968 0.986697 0 1 -2 
7542 6 0.260068 0.147845 0.973588 -1 -1 2 
8643 5 0.328103 0.124704 0.00254965 0 -3 4 
6515 6 0.38819 0.167207 0.994321 0 2 0 
8861 5 0.0318923 0.158325 0.980575 1 -2 1 
6787 5 0.713907 0.190946 0.0282143 0 -4 -2 
8870 6 0.227806 0.221411 0.0144069 0 2 7 
8809 6 0.234974 0.22462 0.0154375 0 2 0 
8928 5 0.265306 0.195342 0.0120356 -1 1 4 
8788 6 0.230731 0.218 0.0234313 4 -3 -5 
8283 6 0.768585 0.216769 0.981849 3 -1 4 
8071 5 0.641208 0.254815 0.996003 -2 0 -1 
7047 6 0.299019 0.216447 0.00506416 0 1 0 
6600 6 0.413234 0.249548 0.987455 -4 0 -2 
5076 5 0.634458 0.236904 0.0119219 -2 1 -2 
6291 5 0.752727 0.292565 0.989921 1 0 -1 
6348 5 0.839935 0.24478 -0.000679039 6 -4 -1 
5865 6 0.343979 0.286289 0.0281987 -4 2 -4 
6534 5 0.154609 0.344504 0.994419 1 -1 1 
8040 5 0.154681 0.301347 0.0264184 1 4 -5 
7595 6 0.231115 0.359674 0.0119006 0 1 3 
8143 5 0.65479 0.344883 0.00928418 -4 7 1 
6445 6 0.246719 0.411087 0.982996 -7 -2 2 
7275 6 0.841311 0.357282 0.982117 2 -1 1 
5043 6 0.8737 0.374896 0.994578 3 -4 7 
6458 6 0.838475 0.420212 0.0181159 -1 -5 -5 
5010 6 0.437703 0.400037 0.0209167 -3 2 -2 
7658 6 0.472605 0.436991 0.00522288 0 -7 3 
5377 5 0.764048 0.457324 0.982778 0 3 -3 
7063 5 0.806617 0.412457 0.973821 -2 0 -3 
8629 6 0.809874 0.406013 0.0488048 -3 -5 0 
6203 5 0.747459 0.4287 0.0196018 2 5 -1 
8941 6 0.731968 0.46705 0.002597 -2 3 2 
7515 6 0.739452 0.447808 0.0148743 4 4 2 
8372 5 0.156093 0.515458 0.0157114 3 -8 -2 
5412 5 0.390154 0.492906 0.0123081 -2 2 0 
7996 6 0.142807 0.485878 0.996468 1 -3 -1 
5320 6 0.820638 0.510729 0.045385 -2 -4 -1 
8858 6 0.263751 0.509509 0.0186852 -5 -5 -2 
5659 6 0.198995 0.545185 0.0226355 -1 0 -3 
6820 5 0.203286 0.596404 0.991813 6 -8 -2 
7044 6 0.32986 0.627288 0.0363916 -3 0 7 
7073 6 0.148304 0.595445 0.000453449 1 3 5 
6727 5 0.0392871 0.686602 0.0246087 4 6 -2 
5347 5 0.0797129 0.654493 0.00308048 1 5 4 
7524 5 0.989469 0.678505 0.0377997 -6 5 -1 
5212 6 0.0459708 0.641024 0.989589 4 0 1 
8718 6 0.301696 0.668187 0.0318456 -2 -3 2 
8228 6 0.545461 0.69525 0.0379885 0 -3 2 
8708 6 0.917129 0.72795 0.0429029 -1 -1 3 
7839 6 0.398754 0.721834 0.995996 2 -1 4 
8434 6 0.400652 0.704433 0.0250167 0 -1 -2 
6398 6 0.604699 0.741901 0.993102 -1 2 -3 
5296 6 0.962321 0.75398 0.0122515 1 -1 2 
5325 5 0.129068 0.745495 0.963874 0 -2 2 
7701 6 0.880865 0.762956 0.998864 1 3 -4 
6516 6 0.608265 0.82 0.950618 6 3 -7 
6786 6 0.606985 0.795806 0.02562 -3 4 -4 
7019 5 0.0257142 0.81941 0.00605472 -4 -4 5 
6194 6 0.687108 0.870747 0.0396847 1 3 1 
7210 6 0.0184009 0.839053 0.986571 1 2 0 
5649 6 0.983234 0.852825 0.0387869 4 1 3 
5311 5 0.157547 0.878408 0.0188814 -3 3 3 
7771 6 0.284751 0.884751 0.00860418 1 1 -7 
5821 6 0.746888 0.865752 0.995081 0 -2 -2 
7028 6 0.942841 0.904361 0.0552537 -2 -3 0 
8939 5 0.150868 0.874827 0.996019 1 -1 3 
6114 6 0.321101 0.88944 0.0215163 1 4 -3 
5625 5 0.417174 0.909072 0.975205 1 -2 -5 
8965 5 0.970059 0.918265 0.984453 1 -4 3 
8897 6 0.195251 0.936604 0.968655 -3 0 2 
6869 6 0.289097 0.934799 0.0256658 2 0 0 
5545 5 0.618463 0.92143 0.987568 0 1 -1 
5845 5 0.318895 0.979539 0.024358 -2 -2 2 
8615 5 0.376524 0.977957 0.0369241 -4 2 4 
8906 5 0.730715 0.920828 0.991375 1 -3 2 
6896 5 0.807773 0.952397 0.997347 -1 -5 0 
7110 6 0.989481 0.951781 0.0229646 0 0 -1 
8398 5 0.0878288 0.976775 0.0145071 5 -8 -3 
5243 6 0.39785 0.00543021 0.0145843 -3 3 2 
5105 6 0.782902 0.910326 0.988758 -2 1 6 
6845 6 0.114226 0.0317804 0.0210015 6 -1 0 
6094 6 0.159878 0.0886473 0.976763 4 4 3 
6447 5 0.0539124 0.0436289 0.0203011 1 1 2 
5935 6 0.276791 0.0476052 0.0048836 -5 2 4 
8585 6 0.962351 0.0660415 0.0152309 1 3 1 
6613 5 0.635703 0.0739327 0.0447431 1 -2 -1 
5489 5 0.332699 0.112852 0.000988258 0 -1 1 
8312 5 0.771866 0.0750478 0.0546624 -5 2 -1 
7060 6 0.150156 0.116103 0.99664 7 -1 -2 
8840 5 0.333594 0.130255 0.0446219 -1 1 0 
6152 6 0.663768 0.117395 0.0426589 -3 -1 -4 
6808 6 0.897076 0.134202 0.0305002 -1 -3 0 
6730 6 0.609201 0.147249 0.0494379 0 -1 1 
6592 6 0.0425216 0.180582 0.0689896 -2 3 -2 
7188 5 0.62617 0.210857 0.0519134 0 -3 4 
5324 6 0.676148 0.167177 0.0730629 -1 -5 -4 
7715 5 0.96686 0.185992 0.02657 -5 3 6 
7905 5 0.99977 0.214237 0.995122 -1 -3 -2 
7173 5 0.651045 0.209392 0.0259371 3 -2 -4 
6502 5 0.657425 0.216526 0.0578664 -7 4 -3 
6013 5 0.887424 0.226058 0.0431369 -4 0 0 
6890 5 1.00007 0.2561 0.0656945 2 -1 1 
5944 6 0.724343 0.2409 0.0217178 3 3 -4 
6107 6 0.843523 0.218771 0.047259 3 1 8 
6183 5 0.00953798 0.259276 0.0291538 5 0 3 
5722 5 0.892394 0.261044 0.0442117 2 3 5 
8936 5 0.732926 0.290871 0.0327947 1 1 0 
8932 5 0.490058 0.295674 0.0161595 3 2 -1 
6571 5 0.0127947 0.344932 0.988041 -1 0 3 
6408 6 0.363316 0.329607 0.0116285 -3 -1 0 
6067 6 0.47155 0.356843 0.0325779 3 -2 6 
6857 5 0.969542 0.371504 0.0453031 -4 1 6 
7285 5 0.00433043 0.404879 0.0223442 1 2 4 
5022 6 0.333997 0.414253 0.0191332 3 0 5 
7968 6 0.436672 0.423178 0.029779 -1 0 2 
8458 5 0.809316 0.479642 0.0554187 0 -2 2 
5182 6 0.369538 0.451302 0.0192418 0 3 1 
6621 5 0.0775945 0.504449 0.0298173 0 3 -3 
5553 5 0.461142 0.454932 0.0212783 0 0 0 
5506 6 0.338002 0.522957 0.989929 -2 -1 0 
6867 5 0.670676 0.517961 0.0199658 0 -2 -3 
8436 5 0.79644 0.473955 0.985585 3 1 -7 
5606 5 0.942922 0.49439 0.0172567 -4 -2 -1 
8978 6 0.949639 0.478842 0.0734073 -1 4 4 
6903 5 0.53162 0.54696 0.0521591 0 1 1 
5280 5 0.797237 0.543205 0.0207223 0 -3 4 
8691 6 0.579603 0.579677 0.0221928 3 4 -3 
7730 5 0.426837 0.697345 -0.0002077 -1 3 -4 
8685 6 0.561325 0.663727 0.0456351 0 -6 -1 
5449 5 0.0913469 0.677836 0.989804 7 0 -5 
7666 5 0.882191 0.725107 0.0164486 2 4 -4 
6868 5 0.103648 0.686095 0.00660802 1 3 4 
6962 6 0.148345 0.732056 0.0179768 2 0 0 
5098 5 0.232992 0.708141 0.0667866 0 -2 -2 
5465 5 0.283245 0.738565 0.992711 -5 2 1 
6946 5 0.442707 0.74652 0.0178887 -3 -4 1 
7225 6 0.455047 0.770953 0.997784 4 5 -3 
6290 6 0.812805 0.766307 0.0239235 1 3 3 
5704 6 0.740893 0.789966 0.0617934 1 -1 1 
8078 6 0.679004 0.83403 0.0232007 4 3 -6 
7465 6 0.884649 0.799611 0.0696376 1 1 1 
6102 5 0.77646 0.838255 0.00643017 -4 -2 -1 
8194 5 0.453259 0.867116 0.018304 -1 0 1 
7227 5 0.681799 0.84439 0.016409 2 5 7 
6670 6 0.841956 0.848507 0.0341829 -2 1 3 
7358 6 0.0333993 0.848367 0.019234 3 -4 1 
5274 6 0.221209 0.840533 0.0147371 0 -1 4 
5747 6 0.00321936 0.911431 0.0386143 3 -3 -2 
6583 6 0.973868 0.898362 1.00086 -2 -1 0 
5225 5 0.120004 0.899284 0.99168 4 -3 -3 
5755 5 0.511869 0.862023 0.0148448 -4 -8 7 
8557 6 0.709383 0.907538 0.0212694 1 -1 1 
8659 6 0.71164 0.900884 0.0244092 0 0 -4 
5738 5 0.736395 0.888071 0.0189886 2 -1 0 
5332 5 0.0769584 0.975973 0.0351501 1 -2 -1 
6420 6 0.335195 0.985439 0.0184976 3 -2 -1 
7863 5 0.599057 0.95694 0.997658 -2 -3 -4 
7375 6 0.760835 0.961093 0.0535482 4 -5 3 
6628 6 0.869674 0.969609 0.0327088 0 -1 -2 
5527 5 0.171938 0.982018 0.0457864 -1 -1 4 
5770 5 0.455307 0.97606 0.070117 2 2 -1 
7490 5 0.707976 0.97321 0.051732 1 -4 -1 
5227 5 0.793153 0.977563 0.0317235 4 -5 2 
7976 6 0.208158 0.0283044 0.0495203 2 1 1 
6434 6 0.31903 0.0284946 0.0724208 0 0 3 
8966 6 0.409129 0.0166938 0.0474072 -3 3 2 
7382 5 0.291522 0.00826086 0.0670148 -2 3 -2 
6081 6 0.609732 0.0484746 0.0420562 0 -2 2 
7450 6 0.685966 0.0663107 0.0803712 0 4 3 
6861 6 0.907026 0.0335858 0.0482019 -4 1 -1 
7872 6 0.0574027 0.0550083 0.0584484 -4 -4 -2 
7264 6 0.158983 0.100989 0.088604 -2 1 -4 
5901 5 0.582232 0.0363423 0.0360057 2 4 4 
6057 6 0.954225 0.0539691 0.0482102 -1 0 -1 
8120 6 0.169681 0.0584627 0.0460919 -5 2 -1 
6649 6 0.39821 0.0895698 0.0428942 3 -5 0 
6796 6 0.111529 0.122879 0.0308186 -3 -6 2 
5015 6 0.455711 0.198978 0.0287681 1 0 4 
7222 5 0.284306 0.168312 0.0697659 -2 -1 0 
6150 6 0.35826 0.166727 0.0567185 5 1 -1 
5438 6 0.566306 0.253139 0.0481577 -3 -2 3 
8128 5 0.857976 0.254693 0.0488778 -4 1 -1 
5818 6 0.986877 0.248508 0.0744669 2 2 -7 
6767 6 0.408651 0.243386 0.03771 2 3 0 
7357 6 0.103879 0.240366 0.0345423 4 -3 1 
7009 5 0.541092 0.269694 0.0665887 -2 -4 -4 
6853 5 0.61318 0.297835 0.0518288 4 -6 3 
5861 5 0.96263 0.251277 0.0446295 1 -2 -2 
7945 6 0.278409 0.336934 0.0436649 1 -3 1 
6776 6 0.325847 0.28956 0.109615 1 0 1 
5272 5 0.358044 0.297377 0.0580577 1 0 2 
6634 6 0.873958 0.274148 0.0596838 -1 1 -2 
7470 6 0.984468 0.309121 0.0475863 0 1 2 
6964 5 0.955687 0.31165 0.0654175 5 2 0 
6267 5 0.533228 0.321732 0.0710869 3 -2 -3 
7919 6 0.817599 0.370853 0.0746716 2 -3 0 
6499 5 0.921916 0.370166 0.0363047 -2 -2 1 
5505 5 0.517058 0.441306 0.026449 0 -2 -4 
7418 6 0.0212007 0.432801 0.0538313 -3 2 -2 
7727 5 0.272087 0.373476 0.0951823 0 2 -4 
5406 6 0.449734 0.450209 0.0673545 -1 5 -2 
5353 5 0.825643 0.491169 0.0407355 1 0 -6 
6369 6 0.404399 0.441113 0.0866301 1 -3 3 
5580 6 0.417711 0.518645 0.0575118 0 -2 -5 
7663 6 0.874517 0.469098 0.0463141 3 1 -4 
5783 5 0.788319 0.484234 0.0247132 -4 -2 1 
7291 6 0.0108665 0.430472 0.0349324 3 -2 -2 
8307 6 0.387184 0.517876 0.0596736 2 8 3 
5420 5 0.59732 0.514882 0.063813 -1 -1 5 
6805 6 0.101501 0.54752 0.0883272 1 3 3 
6506 6 0.40702 0.521469 0.0604716 -2 1 -3 
7721 6 0.370943 0.51293 0.0790818 2 3 3 
6504 5 0.94563 0.535582 0.0672673 2 1 0 
6675 5 0.790527 0.576189 0.0413446 1 -9 1 
7051 5 0.283029 0.629574 0.0601674 1 -3 3 
8831 6 0.559376 0.547608 0.0477223 2 2 -1 
5965 5 0.86168 0.604692 0.0848446 -4 0 -3 
7840 6 0.102993 0.617147 0.0564714 1 -5 -2 
6377 6 0.131042 0.586221 0.0767144 1 0 3 
6751 5 0.237739 0.57808 0.0408052 2 1 4 
8338 6 0.715833 0.606446 0.0889471 1 -1 5 
6372 6 0.378571 0.649994 0.0558839 -2 1 -1 
7828 6 0.941511 0.645033 0.0677862 1 -1 -4 
8828 6 0.076953 0.710101 0.0560748 0 2 0 
7827 5 0.9292 0.671452 0.0635492 2 2 -2 
7718 6 0.258959 0.685118 0.0273787 2 -4 4 
7243 5 0.351319 0.73669 0.0455868 1 4 4 
7460 6 0.516721 0.751893 0.0841527 2 0 -3 
8681 6 0.69571 0.732539 0.0491298 4 0 7 
8450 6 0.190573 0.771825 0.0662401 2 1 -3 
6856 5 0.206335 0.791377 0.0571902 3 -4 2 
6642 6 0.549057 0.810388 0.00848706 0 -3 2 
6625 6 0.186721 0.83653 0.094429 6 0 0 
5633 5 0.529064 0.810858 0.0741013 -3 3 5 
7248 5 0.891845 0.826565 0.0337697 0 2 0 
7503 5 0.941735 0.813198 0.0667254 -2 2 3 
6247 6 0.98751 0.816581 0.0529857 -2 2 -2 
7744 5 0.985197 0.863134 0.0205708 3 0 0 
6462 5 0.100817 0.868613 0.0271863 -2 2 -2 
5019 6 0.461423 0.91416 0.0859944 6 0 -4 
8296 6 0.902848 0.864695 0.019351 -4 2 3 
6950 6 0.0502759 0.933087 0.0333057 4 -1 2 
8357 5 0.185667 0.94475 0.0802301 2 3 -4 
5079 6 0.168658 0.925542 0.00696311 -1 1 -2 
7654 5 0.955561 0.928881 0.0698507 -2 -1 1 
6262 5 0.650057 0.929036 0.0612095 -2 1 0 
8517 6 0.666982 0.979542 0.0983024 -1 -4 -2 
5056 5 0.716701 0.953787 0.0519923 -1 -2 2 
7781 5 0.9963 1.00091 0.0724308 3 5 2 
5664 5 0.338342 0.936008 0.0147576 -1 2 1 
5781 6 0.410446 0.0163775 0.0946992 0 2 -1 
8974 6 0.541313 0.00744484 0.0631317 -4 -2 -3 
8796 6 0.834109 0.0278103 0.0218747 -4 -2 -1 
6375 6 0.882783 0.0316559 0.0672145 1 0 2 
7966 5 0.958412 0.0669999 0.0857994 5 5 1 
6663 6 0.735711 0.0595295 0.0553779 4 1 -3 
5483 5 0.97088 0.0929134 0.0780448 -2 -1 5 
6137 6 0.132853 0.122408 0.0537437 6 4 -5 
8073 5 0.254855 0.0906495 0.0950839 2 3 2 
5200 6 0.486488 0.117446 0.0555824 -1 3 0 
6743 6 0.261714 0.152293 0.0790815 1 -2 -3 
5572 6 0.0154844 0.156911 0.12421 3 -1 5 
6837 5 0.193258 0.221614 0.0965676 1 0 -1 
8132 5 0.849508 0.175098 0.138006 0 3 0 
8930 5 0.505229 0.216385 0.061177 -1 1 2 
7355 6 0.873261 0.173951 0.0596601 -4 -2 6 
6495 6 0.759144 0.204927 0.0823003 -1 -2 0 
8824 6 0.857972 0.240441 0.061106 -5 1 0 
5070 5 0.00299852 0.252049 0.0409815 1 -1 -3 
7215 6 0.351314 0.273016 0.0502736 -3 1 1 
5185 6 0.481723 0.244633 0.0948953 0 -5 -4 
8232 6 0.773088 0.256914 0.0669107 -5 1 6 
5708 5 0.981232 0.26187 0.0936811 -5 2 -4 
8127 5 0.0512565 0.286256 0.141765 -1 -2 0 
7766 6 0.23735 0.303953 0.0608615 -4 -8 2 
7506 5 0.968081 0.306982 0.0886827 -3 0 2 
5033 6 0.183881 0.318505 0.103214 3 -1 2 
7006 6 0.241186 0.354751 0.131129 4 -4 1 
6393 6 0.76239 0.31726 0.0973307 -3 1 -3 
7050 5 0.0441298 0.333868 0.0656328 0 0 1 
6928 5 0.256554 0.285226 0.0609911 6 -2 4 
8041 6 0.409697 0.310988 0.0965633 -1 -2 -1 
8855 5 0.981442 0.369478 0.097073 3 2 -5 
8842 5 0.947677 0.369239 0.0963262 5 -2 1 
5085 5 0.951684 0.418418 0.0571583 0 -5 -1 
8254 6 0.935312 0.399102 0.0723661 1 4 2 
8822 5 0.758356 0.417957 0.0988189 1 5 1 
7677 6 0.852508 0.445594 0.107228 3 1 2 
5273 5 0.359881 0.453733 0.0725232 -4 -1 1 
5592 6 0.378535 0.442717 0.0566277 -5 1 1 
7169 6 0.835351 0.433281 0.071012 -5 0 -3 
8236 5 0.519891 0.490031 0.114923 -5 0 1 
7974 6 0.0886116 0.498312 0.0944762 -1 0 0 
7818 5 0.839937 0.469677 0.0924213 -2 -1 0 
5752 6 0.908626 0.479041 0.0482434 0 2 5 
5392 6 0.322011 0.51247 0.0689621 0 2 4 
8791 6 0.643589 0.491763 0.0544477 1 -3 0 
8963 5 0.931129 0.527221 0.0585073 -2 5 -4 
5426 6 0.00862601 0.5398 0.0855483 2 1 -3 
8684 5 0.0106063 0.574675 0.0863717 -1 -2 1 
7498 5 0.154617 0.557085 0.0640399 -3 -2 2 
7722 6 0.376313 0.558166 0.0727756 3 -3 -1 
7489 5 0.790048 0.521523 0.0691317 -4 3 0 
8567 5 0.155679 0.565463 0.0683269 0 -2 -2 
7723 5 0.216031 0.587295 0.0829854 -4 -3 4 
6493 6 0.980067 0.576541 0.0733738 -3 -3 2 
8849 6 0.603631 0.595376 0.0800345 -1 -2 -3 
5389 5 0.704617 0.625873 0.11678 6 -1 4 
7999 5 0.381684 0.58409 0.102713 -8 -3 6 
8465 5 0.610672 0.649829 0.106255 1 3 0 
6246 6 0.665202 0.613246 0.101904 -3 -4 0 
5193 6 0.774159 0.605634 0.107607 -2 -1 -1 
6884 6 0.891895 0.616393 0.0687944 -3 2 0 
8350 6 0.3071 0.612047 0.0575504 0 -5 4 
7871 5 0.921763 0.607947 0.0389139 -4 1 2 
7536 6 0.624248 0.642485 0.0887565 -2 1 0 
6598 6 0.675829 0.650566 0.0712698 0 -1 3 
7453 6 0.325622 0.710795 0.0436078 1 0 3 
8535 6 0.610335 0.713587 0.0619651 -1 -2 2 
8339 5 0.470511 0.70303 0.103646 0 -1 1 
6966 5 0.767267 0.726858 0.103173 -4 -5 0 
5786 6 0.544472 0.755065 0.0780748 4 4 -3 
6041 5 0.687793 0.72617 0.062763 1 -3 -1 
8407 5 0.728428 0.691741 0.0476977 1 -1 4 
7790 5 0.114109 0.796693 0.089526 1 2 -1 
7325 6 0.386638 0.743589 0.0835919 -1 1 0 
8914 6 0.329825 0.82254 0.080273 0 -1 0 
6552 5 0.410676 0.883248 0.0759538 1 -1 -2 
8641 5 0.194366 0.867432 0.0550882 -1 -2 1 
5178 5 0.870796 0.905695 0.118352 -9 2 5 
8383 6 0.273597 0.874152 0.0888829 2 2 -1 
5005 5 0.787939 0.886169 0.0835079 1 -6 1 
6213 6 0.877374 0.881404 0.08845 -4 2 2 
8030 6 0.917466 0.90783 0.0558001 -2 -6 2 
7097 5 0.0300967 0.934634 0.0920764 -1 0 -3 
6874 6 0.952117 0.913346 0.109202 -5 -5 -1 
7245 6 0.195111 0.947092 0.0946358 -1 2 1 
6426 5 0.377644 0.945266 0.104524 2 2 0 
8384 6 0.0124113 0.946354 0.0825593 0 2 2 
8911 6 0.172979 0.986553 0.05896 3 -3 1 
6595 6 0.245353 0.00863205 0.072555 -1 3 1 
8079 5 0.326828 0.992992 0.0295388 -3 2 -1 
6341 5 0.531987 0.955699 0.101698 1 2 -5 
6676 5 0.514524 0.00766827 0.0740247 1 -2 4 
6096 6 0.595909 0.959724 0.0932082 3 2 -1 
5001 6 0.805429 0.972925 0.0321851 -2 -1 1 
8795 5 0.841087 0.980298 0.0836884 -1 1 4 
5450 6 0.342226 0.00504893 0.0544359 0 -5 -2 
6465 5 0.897998 0.962102 0.051673 0 0 -2 
8724 5 0.475086 0.044224 0.0903147 3 11 0 
7461 5 0.122638 0.00873773 0.120777 0 -3 3 
5073 6 0.259443 0.0407574 0.137017 2 0 0 
5095 6 0.889314 0.0156424 0.102104 1 0 -5 
8611 5 0.432573 0.110271 0.0675428 -6 5 3 
7691 6 0.56532 0.0999829 0.144807 -2 -1 0 
7631 6 0.607838 0.0741175 0.0859352 4 1 -3 
6204 5 0.113168 0.0949483 0.116573 1 -1 -1 
7233 5 0.226872 0.124247 0.111671 -2 3 1 
6557 6 0.322933 0.14625 0.0965111 1 -2 3 
6233 6 0.497241 0.169817 0.11112 -3 0 0 
8072 5 0.870829 0.138076 0.0974769 -3 2 4 
8865 6 0.971169 0.15146 0.102964 -3 -2 3 
6424 5 0.359883 0.162365 0.098693 -1 -3 0 
6394 6 0.487141 0.189791 0.123188 -3 -2 -2 
8680 6 0.602139 0.15603 0.116205 7 0 1 
8493 6 0.811359 0.172913 0.0992178 3 1 -3 
7511 5 0.175988 0.200933 0.0828524 0 -1 -1 
6881 6 0.226324 0.166741 0.0916963 2 -4 4 
5231 6 0.892416 0.148083 0.0980142 4 7 6 
5158 5 0.116867 0.207103 0.0971367 -4 -4 0 
5662 6 0.696836 0.214076 0.0717717 -1 2 0 
5749 5 0.362117 0.253286 0.115993 1 -2 0 
6494 5 0.799683 0.250722 0.118644 2 1 2 
6052 5 0.864204 0.308522 0.104979 -2 -2 5 
5145 6 0.938943 0.227635 0.0977114 -3 -6 2 
8423 6 0.0454995 0.334121 0.0781396 3 -1 -2 
8536 5 0.21525 0.318678 0.119515 -5 2 1 
6436 6 0.370154 0.333824 0.0735865 -4 -1 0 
7406 5 0.0558969 0.344902 0.110468 -2 -5 1 
7260 6 0.402958 0.36359 0.114496 -6 0 0 
7126 6 0.863059 0.346678 0.148126 -2 -4 2 
6500 5 0.387009 0.403992 0.135662 -7 1 -1 
8909 5 0.0030452 0.439784 0.11887 -1 4 5 
8564 5 0.688843 0.489288 0.100103 -3 0 0 
6038 6 0.752158 0.475043 0.13606 -3 7 -3 
7681 6 0.326041 0.473414 0.1051 3 -2 -2 
7770 5 0.238168 0.506985 0.112216 0 -4 -1 
6456 5 0.532854 0.51488 0.0888546 -9 -6 -2 
5214 5 0.660395 0.516334 0.101391 1 -4 -2 
5065 5 0.7693 0.472691 0.1052 -1 1 1 
5009 6 0.866424 0.49476 0.126429 0 -5 0 
8369 6 0.298479 0.518734 0.101893 1 -6 -5 
6763 5 0.96874 0.516388 0.112977 0 2 -3 
6387 6 0.697724 0.560635 0.0963462 -2 4 -3 
6328 6 0.862215 0.563351 0.093672 0 -2 -1 
8616 6 0.908702 0.584887 0.128432 0 2 3 
7317 5 0.97 0.588018 0.128007 0 -1 -4 
6814 6 0.728797 0.601942 0.108712 -1 2 -5 
8015 5 0.82006 0.607703 0.11763 -1 1 -3 
7777 6 0.664708 0.657894 0.105711 1 0 -4 
7611 5 0.602056 0.685209 0.113626 2 -3 0 
6817 6 0.211205 0.656512 0.071458 1 3 -3 
6580 6 0.238461 0.691741 0.0967275 -1 -2 -1 
5839 5 0.281604 0.687711 0.111544 2 -1 5 
6138 6 0.338149 0.669952 0.0693886 0 -3 3 
7729 5 0.626622 0.682355 0.0953212 -1 -6 -1 
7031 6 0.94353 0.725133 0.0776432 1 -2 0 
7676 5 0.973337 0.734893 0.104291 -6 1 3 
5672 6 0.18568 0.748822 0.107074 2 -2 1 
6517 6 0.773164 0.749524 0.0746676 7 1 4 
6545 5 0.924624 0.703326 0.125738 1 -2 2 
7634 5 0.933425 0.786115 0.0878781 0 4 -1 
6442 5 0.0994676 0.760905 0.056417 -1 0 2 
8023 6 0.405189 0.797827 0.104953 -5 -2 2 
8919 5 0.395604 0.762715 0.111168 1 1 3 
6691 6 0.607042 0.758003 0.0931187 1 -3 -4 
7864 5 0.779515 0.787015 0.121181 -1 -3 -1 
8899 5 0.608797 0.792371 0.0999218 -2 -1 -5 
5619 6 0.777435 0.793829 0.114453 3 -1 -4 
6978 5 0.818783 0.81082 0.152887 -4 1 2 
7014 6 0.158737 0.798094 0.0901774 -3 4 -4 
8181 6 0.189198 0.801164 0.120864 -2 -2 -5 
6720 6 0.558499 0.828482 0.103823 0 2 1 
7816 6 0.688486 0.823951 0.101531 4 0 -2 
5949 6 0.808098 0.849397 0.154928 -2 1 5 
6302 5 0.263176 0.859631 0.0971036 1 0 3 
5951 5 0.944923 0.882767 0.0976155 2 -2 0 
5834 5 0.539887 0.893103 0.136588 5 1 -3 
5103 6 0.389079 0.933019 0.132278 11 -1 2 
6117 6 0.161104 0.947986 0.115551 1 1 1 
8675 5 0.212137 0.95328 0.117931 0 -4 1 
7669 6 0.43738 0.960305 0.0921162 4 -2 2 
8775 6 0.997678 0.974567 0.0903133 -2 -1 4 
6418 5 0.0925857 0.97625 0.0952028 -1 0 -2 
5688 6 0.594405 0.0189582 0.081381 -7 2 0 
7059 6 0.331332 0.0182986 0.120091 2 2 5 
7177 5 0.344499 0.00851552 0.116451 3 1 2 
5410 5 0.645866 0.0810411 0.1015 3 5 1 
5725 5 0.878926 0.0703513 0.121569 1 1 1 
7910 6 0.0189969 0.0658686 0.120033 0 0 -2 
5048 6 0.028626 0.117065 0.128524 1 0 -4 
5266 6 0.381722 0.0775783 0.139783 2 2 -1 
6275 6 0.146278 0.117431 0.16559 -1 1 4 
5945 6 0.46097 0.142544 0.125461 0 1 8 
6863 5 0.54238 0.145185 0.141816 -1 3 2 
6909 5 0.563245 0.114029 0.111986 1 5 -3 
8304 5 0.594168 0.087803 0.160921 -3 3 -2 
5467 6 0.0210655 0.19005 0.153921 4 0 -1 
8662 6 0.53593 0.155167 0.129986 4 5 -1 
7143 6 0.526897 0.167457 0.120495 5 0 -2 
5680 6 0.40234 0.170709 0.11899 2 -5 4 
7105 5 0.312762 0.184466 0.122525 2 2 -4 
6368 5 0.672255 0.145049 0.144453 2 3 4 
6985 6 0.680123 0.14811 0.116999 -1 2 1 
7559 5 0.752103 0.166355 0.13 -1 -4 3 
6798 5 0.310248 0.216555 0.119933 3 -6 -2 
7579 5 0.745113 0.266339 0.103981 2 -4 -1 
8590 5 0.293809 0.265972 0.14106 -5 4 5 
8036 5 0.377319 0.321487 0.133476 -2 0 6 
6141 6 0.646406 0.258735 0.0900097 1 3 2 
7258 5 0.718123 0.309608 0.138849 -1 -3 -1 
6159 6 0.0496279 0.310924 0.136671 -1 0 3 
6344 6 0.127642 0.313913 0.160982 -3 5 2 
8281 6 0.852924 0.311809 0.106738 2 0 -2 
6713 5 0.866875 0.323778 0.108779 2 3 0 
6607 5 0.87723 0.271204 0.0919367 -1 7 -2 
7887 6 0.16017 0.338584 0.140599 0 -3 -4 
5952 6 0.226354 0.383125 0.119807 0 -4 -1 
8157 6 0.67575 0.34288 0.102647 2 1 7 
6866 5 0.93677 0.320668 0.139531 2 -1 1 
6311 6 0.210837 0.298085 0.183527 -2 -3 -1 
7265 5 0.25287 0.361806 0.132142 -4 3 -1 
7912 5 0.0707059 0.391368 0.12443 -3 5 0 
5679 5 0.324408 0.379795 0.111881 -1 2 3 
8652 6 0.438248 0.386086 0.115771 3 6 -2 
7415 5 0.615197 0.346438 0.130209 -1 -1 3 
5025 5 0.367313 0.426337 0.156226 -2 -1 3 
7993 6 0.385836 0.38078 0.108879 -1 -1 0 
7341 5 0.141168 0.398497 0.147299 3 4 -3 
8108 5 0.989879 0.417487 0.125951 2 -1 3 
7334 6 0.355174 0.42758 0.134701 7 0 -1 
8552 6 0.539304 0.464938 0.115685 -3 -5 5 
7483 5 0.475466 0.463977 0.126514 3 -1 3 
5501 6 0.989505 0.516598 0.135547 -6 -2 3 
5421 5 0.926589 0.520946 0.105767 -3 1 -2 
6127 5 0.623733 0.533474 0.140459 3 1 -2 
7269 5 0.541566 0.585616 0.126016 4 2 1 
7422 5 0.527333 0.590503 0.147601 -1 -3 -2 
7971 5 0.772749 0.592728 0.140035 -4 -1 7 
6559 6 0.921265 0.58309 0.104779 -6 0 0 
5557 6 0.929317 0.589538 0.125439 1 -3 -3 
6411 5 0.119343 0.617564 0.139156 2 3 -4 
5767 6 0.349606 0.591997 0.1266 -5 3 -2 
7346 5 0.403484 0.66346 0.0931667 4 1 3 
7508 5 0.530382 0.609325 0.138145 3 4 3 
8592 5 0.546124 0.638722 0.182596 2 1 -4 
5921 6 0.668829 0.587148 0.141962 -3 -4 5 
7894 5 0.443494 0.62721 0.104685 -2 -1 -3 
8251 6 0.116397 0.632133 0.148078 1 0 -4 
7564 5 0.27395 0.697834 0.14104 0 1 0 
5396 6 0.479843 0.683032 0.117374 2 -1 -4 
5419 5 0.773898 0.662232 0.11143 -2 -2 1 
7064 5 0.0171061 0.668795 0.132517 2 1 4 
8172 6 0.0254075 0.707385 0.0787669 -2 4 -2 
6528 6 0.133465 0.704696 0.146805 1 -1 2 
7084 6 0.149768 0.707418 0.144681 1 -3 -3 
6257 6 0.684622 0.73174 0.127112 0 3 0 
6333 6 0.719934 0.722423 0.103079 -2 5 0 
6723 6 0.0552266 0.760829 0.127022 -3 2 -4 
8054 6 0.0666001 0.792171 0.113945 4 1 4 
7441 6 0.238492 0.767439 0.114753 4 -1 -6 
8613 6 0.675433 0.793934 0.124241 0 1 2 
7751 5 0.758131 0.794367 0.12984 -5 0 4 
7145 5 0.785254 0.836477 0.116376 -6 -1 2 
5247 6 0.93808 0.811364 0.110655 3 -1 2 
5537 6 0.115776 0.902076 0.0817556 4 -1 -4 
8020 5 0.363285 0.862732 0.153837 1 1 1 
5383 6 0.794965 0.860284 0.147802 1 4 -1 
7725 6 0.37521 0.929931 0.140385 -1 0 -1 
6345 5 0.223462 0.958879 0.0968256 3 5 -3 
6162 5 0.959646 0.950587 0.130816 0 -6 4 
6983 6 0.29309 0.979383 0.148558 0 1 1 
5709 5 0.475594 0.986409 0.104104 -1 -2 3 
8011 6 0.831559 1.00009 0.156435 3 3 -5 
6144 6 0.0262131 0.991905 0.159738 2 -4 4 
8284 5 0.406951 0.98909 0.154893 0 -4 -6 
8636 5 0.873768 0.0481304 0.116625 1 2 0 
7239 6 0.964206 0.0383757 0.151802 2 1 1 
7867 6 0.381072 0.0679637 0.121428 4 -1 -1 
7224 5 0.629609 0.0385292 0.132438 -6 5 3 
5878 6 0.776351 0.0256978 0.134265 -2 -1 2 
6037 5 0.291837 0.0853643 0.126593 -4 -5 -2 
6636 6 0.447811 0.0541493 0.149142 -4 0 1 
8577 5 0.679844 0.0932417 0.154602 0 2 6 
5116 6 0.511242 0.132062 0.177455 0 6 1 
8193 6 0.0199624 0.097137 0.18378 0 2 -3 
7433 6 0.776826 0.149297 0.149279 0 -2 2 
5997 6 0.0137079 0.201465 0.138122 -1 -2 -3 
7480 5 0.917575 0.0993014 0.110864 0 -2 -3 
8901 6 0.739375 0.187494 0.156852 0 1 -2 
6409 6 0.400466 0.16383 0.123575 1 -4 1 
5147 5 0.437347 0.203916 0.150818 -1 0 -3 
6768 6 0.618558 0.230104 0.129524 -2 4 6 
8301 6 0.10854 0.222531 0.131113 -2 -1 1 
5640 6 0.313878 0.233514 0.173398 1 -4 6 
6490 6 0.274479 0.257111 0.123321 0 -1 -1 
8783 6 0.495523 0.270232 0.142102 3 -1 -2 
7481 5 0.507415 0.301326 0.134261 3 0 2 
5503 5 0.747301 0.265275 0.175618 2 -2 2 
8065 6 0.188506 0.303966 0.126383 4 1 0 
7802 5 0.0685978 0.31991 0.135643 -2 1 -3 
6359 6 0.377584 0.315544 0.141959 1 -1 1 
7906 6 0.578036 0.346933 0.152585 -3 3 1 
7070 6 0.061159 0.362549 0.132286 -2 -3 -2 
8886 6 0.629461 0.351997 0.188604 -2 0 4 
5829 6 0.450218 0.39962 0.180224 -4 0 -3 
7773 5 0.762376 0.367174 0.133957 3 -1 -2 
6122 5 0.327616 0.43851 0.137765 -2 8 -1 
7702 5 0.431972 0.394394 0.165698 -3 -4 3 
6904 6 0.603741 0.42374 0.136438 -2 0 -4 
7386 5 0.759855 0.428673 0.157434 1 1 1 
5598 6 0.838248 0.444014 0.166454 -4 2 -2 
7094 5 0.808219 0.459924 0.139523 1 -5 -2 
7647 6 0.891533 0.443433 0.170082 3 -1 3 
5526 5 0.0405139 0.473983 0.125682 -1 1 2 
8433 6 0.747123 0.512193 0.182623 -2 3 3 
6801 6 0.0555312 0.450803 0.161565 -3 2 5 
6017 6 0.0323828 0.578208 0.152064 -1 0 -2 
8095 6 0.779304 0.512313 0.173636 0 -5 3 
8772 5 0.499502 0.597388 0.129085 3 -2 -1 
8136 6 0.518734 0.607964 0.142059 -7 0 -1 
7716 6 0.567304 0.598023 0.147909 0 1 -4 
5013 6 0.76779 0.587482 0.176804 0 1 -4 
5822 5 0.00585235 0.596967 0.152625 -1 -2 1 
8734 5 0.796002 0.612089 0.146354 -1 1 0 
7580 6 0.936728 0.58768 0.149349 -1 -3 -1 
5248 6 0.347125 0.619178 0.153504 -2 -2 -1 
7521 5 0.96534 0.630216 0.150099 3 0 -1 
5848 6 0.318326 0.652391 0.149093 1 -2 -3 
7244 6 0.563225 0.628907 0.122126 -2 6 -3 
8313 6 0.854182 0.654841 0.16674 -3 -1 -3 
5295 5 0.505365 0.643861 0.165731 2 2 1 
5292 6 0.785326 0.677952 0.129241 8 0 -4 
6449 5 0.252178 0.670563 0.151928 2 4 2 
6452 5 0.679762 0.701029 0.122892 1 0 4 
6082 5 0.711216 0.708391 0.166603 3 -1 -2 
7016 6 0.0106067 0.744894 0.14848 1 -1 4 
7482 5 0.275014 0.729404 0.12673 -2 -3 -2 
6943 6 0.0998492 0.747991 0.147244 2 -2 0 
7198 5 0.451052 0.782467 0.104295 2 -5 4 
8876 6 0.406839 0.808289 0.156811 4 -1 -2 
6681 6 0.55244 0.861297 0.116144 -1 3 1 
8347 5 0.686636 0.864229 0.159141 0 -4 2 
8857 6 0.703953 0.803971 0.146196 -3 3 1 
6919 6 0.850674 0.829043 0.139822 3 5 4 
5044 5 0.00188876 0.884227 0.0986952 0 0 7 
5677 6 0.736004 0.811843 0.0933991 2 -4 0 
6920 6 0.46274 0.884713 0.122636 1 1 -2 
7981 6 0.652687 0.901648 0.17082 3 -4 -2 
5857 6 0.340707 0.910506 0.180972 -1 1 0 
7950 6 0.0235699 0.911728 0.167301 -1 1 -6 
7665 6 0.305326 0.901063 0.125577 1 2 3 
8635 6 0.746669 0.910153 0.18497 -1 0 -1 
8866 5 0.111241 0.93108 0.139279 -1 2 0 
7020 6 0.1315 0.989894 0.118812 0 -5 1 
7111 5 0.227884 0.955926 0.153728 0 -1 2 
8178 5 0.289027 0.986725 0.154032 4 1 1 
7603 6 0.30262 0.000868704 0.149375 3 -1 5 
8537 5 0.4859 0.0864884 0.170735 -2 2 -4 
5174 5 0.50491 0.0361862 0.157572 -1 2 -2 
5800 5 0.352746 0.0633038 0.17187 1 1 -3 
6662 5 0.614116 0.0592701 0.141212 -4 0 0 
7396 6 0.194437 0.130046 0.185791 1 -1 -1 
5509 6 0.942336 0.0931012 0.175082 0 -1 1 
6331 5 0.0346957 0.150504 0.173655 -6 -2 3 
8723 5 0.127112 0.139593 0.222597 0 -1 -3 
8171 6 0.503366 0.135649 0.164792 0 1 2 
6484 6 0.60599 0.125595 0.149143 0 -3 1 
7256 6 0.592139 0.118699 0.191255 -2 -3 0 
7486 6 0.650849 0.156551 0.156438 -4 1 1 
6913 5 0.403409 0.190972 0.177716 2 2 5 
8399 5 0.975503 0.230404 0.148682 1 2 5 
8328 6 0.334991 0.216794 0.150641 -2 3 1 
8459 6 0.563145 0.240143 0.183109 4 -4 4 
7196 5 0.712071 0.301302 0.130318 3 1 1 
6947 6 0.0534682 0.275632 0.185141 3 0 2 
5652 6 0.421797 0.286399 0.155311 1 0 -1 
6638 6 0.558877 0.265888 0.155841 0 1 1 
8087 6 0.057333 0.292347 0.194806 -3 -3 2 
8234 5 0.22825 0.269339 0.181234 -2 0 -2 
5244 6 0.447862 0.286546 0.171766 -5 3 -1 
6900 5 0.648477 0.313508 0.147826 -5 0 -5 
5731 6 0.737331 0.282915 0.179413 -6 1 0 
6439 6 0.781068 0.325235 0.151168 -5 4 -1 
7685 5 0.837293 0.328262 0.142281 -4 -2 2 
7012 6 0.214289 0.334222 0.180762 -1 4 -3 
6718 5 0.749199 0.35149 0.108179 0 3 0 
8704 5 0.757366 0.380547 0.183209 5 0 4 
8432 6 0.964486 0.391915 0.191953 -3 -1 -3 
6077 6 0.587014 0.404454 0.148558 2 0 7 
5042 6 0.261713 0.419278 0.172827 1 0 -3 
6842 5 0.571771 0.422365 0.176976 1 -4 0 
6098 6 0.964562 0.398015 0.179044 -3 2 3 
5987 6 0.161993 0.502513 0.168371 0 -3 -1 
6597 6 0.246081 0.504945 0.195788 2 -4 4 
5760 5 0.52642 0.566111 0.174389 -1 8 -5 
6612 6 0.622285 0.543877 0.129691 1 -1 0 
8888 5 0.711262 0.524945 0.154975 1 -2 5 
5063 5 0.272767 0.493945 0.185179 -1 -3 6 
6405 6 0.264576 0.547732 0.182886 -3 -1 4 
7776 5 0.958511 0.589174 0.18584 0 -1 1 
6009 5 0.121124 0.584836 0.178329 2 -3 -3 
7959 6 0.547872 0.5548 0.183974 -1 -2 -3 
8153 6 0.168056 0.621258 0.157772 -2 -4 1 
7555 6 0.254136 0.614041 0.172143 0 0 1 
6848 6 0.460564 0.638218 0.178768 5 -2 -3 
6292 6 0.67896 0.624384 0.150873 1 1 0 
7891 6 0.891481 0.611569 0.168911 -3 1 5 
6464 6 0.959835 0.593904 0.137249 2 1 1 
5790 6 0.051713 0.628657 0.191665 2 4 -3 
8823 6 0.126103 0.656967 0.203373 -1 -3 1 
7514 6 0.848121 0.643071 0.181696 2 -4 -4 
7172 6 0.862615 0.633463 0.143835 0 -1 -4 
5968 6 0.565698 0.662193 0.206422 1 -2 3 
8165 6 0.685284 0.6698 0.181749 1 -2 -2 
6893 6 0.740189 0.732378 0.188584 3 8 2 
5734 5 0.0872993 0.713162 0.157199 4 3 -1 
8987 5 0.256685 0.665728 0.124662 1 5 5 
8002 6 0.266235 0.714651 0.184142 5 2 1 
5209 6 0.323697 0.643207 0.160098 2 0 0 
8203 5 0.326252 0.692669 0.165405 -1 3 -3 
8491 6 0.921086 0.674534 0.201212 1 -1 5 
8028 6 0.240985 0.674575 0.162555 -1 0 -1 
7125 6 0.497801 0.72148 0.138478 -2 -5 0 
8012 6 0.935862 0.708096 0.194393 0 -1 -1 
7259 5 0.56762 0.777351 0.173975 -1 3 -1 
8759 5 0.149293 0.750913 0.190284 -3 -1 3 
7349 5 0.608633 0.760065 0.205784 6 2 3 
6905 5 0.0402516 0.770827 0.178845 3 1 4 
7526 6 0.0579469 0.801788 0.135865 -1 0 -2 
8556 6 0.0445061 0.781004 0.217559 -3 -3 6 
5391 5 0.21003 0.780207 0.157219 -4 0 1 
6124 6 0.21851 0.7587 0.194954 3 0 0 
6737 5 0.981984 0.806346 0.158781 -4 -4 -2 
7792 6 0.059464 0.825414 0.201447 4 2 -3 
8847 5 0.155068 0.796159 0.150026 -2 4 -5 
7590 6 0.77773 0.816827 0.159737 2 -1 4 
6864 6 0.85527 0.835386 0.19104 0 0 -1 