ITEM: TIMESTEP
20000000
ITEM: NUMBER OF ATOMS
9000
ITEM: BOX BOUNDS pp pp pp
-75 75
-75 75
-75 75
ITEM: ATOMS id type xs ys zs ix iy iz 
7109 5 0.34113 0.00378081 0.0255311 3 -5 4 
5925 5 0.619853 0.0112541 0.0267952 2 1 1 
7365 5 0.627843 0.0275596 0.981719 -5 -5 1 
8594 5 0.643884 0.987982 0.0237991 3 -2 3 
5909 5 0.931401 0.0220265 0.00298452 -4 -1 0 
7942 6 0.0938429 0.0282677 0.0219951 3 3 -3 
6770 6 0.379847 0.0426547 0.0208149 -7 2 -4 
8696 5 0.0622555 0.119794 0.0162646 1 6 -1 
5325 6 0.131853 0.101365 0.99844 -2 -2 0 
5003 5 0.175656 0.0991421 0.054796 4 1 1 
7373 5 0.284416 0.167618 0.0405789 1 2 -1 
6094 6 0.82891 0.139188 0.981239 -3 1 2 
8355 6 0.13215 0.176839 0.0103852 0 -3 -3 
5714 5 0.510694 0.1728 -0.000352239 0 5 1 
6420 6 0.914924 0.169971 0.00221603 -1 -1 1 
6552 6 0.981902 0.182647 0.0289052 0 -1 3 
8828 6 0.463257 0.171231 0.0221361 2 0 4 
5527 5 0.74304 0.186134 0.00871406 4 -2 2 
6875 5 0.846287 0.242973 0.991188 -5 1 -2 
8584 5 0.243737 0.223738 0.989265 -4 -1 0 
6802 5 0.0546786 0.244717 0.0351595 -4 2 2 
7628 5 0.119395 0.301755 0.973121 2 2 -9 
8132 5 0.598329 0.261003 0.030325 2 -2 1 
6525 5 0.798689 0.246913 0.0472805 0 -3 0 
7086 5 0.901888 0.275286 0.990613 -1 4 0 
6600 5 0.121078 0.295289 0.021099 -1 5 3 
7336 6 0.241887 0.346994 0.0156258 -3 7 2 
8971 5 0.595003 0.376515 0.0519937 -5 1 3 
8440 5 0.741835 0.322767 0.0104965 2 -2 1 
6702 5 0.771094 0.334767 0.0263814 4 -5 -1 
6192 6 0.973324 0.326708 0.0174287 -1 -2 -2 
7933 6 0.140903 0.360937 0.0222955 0 2 -5 
8075 6 0.525846 0.356325 0.0384701 3 2 0 
7615 5 0.633616 0.391003 0.0245504 2 1 -1 
8586 6 0.866938 0.377922 0.0516427 -2 2 -4 
7151 5 0.840132 0.365593 0.0128736 -2 -1 -1 
5678 5 0.263834 0.427759 0.991217 4 1 -1 
5579 5 0.495631 0.372136 0.954121 -3 3 3 
5733 6 0.842419 0.418194 0.064851 -1 3 1 
6960 6 0.533498 0.433798 0.0351135 -1 0 4 
6995 5 0.538384 0.50903 0.000458047 2 2 -2 
6775 5 0.727508 0.463103 -0.00185753 4 3 1 
5481 6 0.222384 0.477428 0.0431724 -1 2 -3 
8107 6 0.256556 0.467653 0.97651 2 -2 1 
7538 6 0.63112 0.455207 0.991099 -2 -1 0 
7413 5 0.978399 0.497299 0.986242 0 0 -2 
7097 6 0.799114 0.538336 0.983092 -5 3 -1 
6085 5 0.771188 0.55619 0.995939 -1 4 -1 
8713 5 0.904529 0.47809 0.0191464 0 3 1 
5563 6 0.212291 0.554077 0.0281267 -1 -1 2 
7841 6 0.60889 0.588893 0.0174734 2 1 4 
5588 6 0.801161 0.577798 0.972781 -3 4 -3 
7283 6 0.342152 0.603206 0.0333074 -2 0 -2 
8533 5 0.461724 0.617978 0.0192989 -1 -2 4 
6475 5 0.586735 0.580692 0.987997 0 -8 -2 
6188 5 0.302413 0.635184 0.0294799 3 0 0 
7304 6 0.292726 0.619087 0.0473114 -1 -1 1 
6978 5 0.414351 0.598606 0.992308 -3 -1 -1 
5761 5 0.692078 0.595608 0.0223126 2 -7 2 
7711 5 0.933153 0.5864 0.999082 -5 3 2 
7093 5 0.0290934 0.625049 0.00517964 1 2 3 
8192 5 0.681126 0.613555 0.0415782 0 3 1 
6243 6 0.116946 0.670708 0.00505203 2 0 0 
5183 5 0.216848 0.680993 0.0249362 2 -5 6 
7478 5 0.277382 0.655509 0.0215941 2 2 2 
7204 6 0.543344 0.719037 0.0354522 5 -1 2 
8561 5 0.979329 0.723429 0.99089 -1 5 2 
5371 5 0.9976 0.777065 0.0665942 -1 0 0 
6064 6 0.584556 0.698654 0.997916 -5 1 1 
7356 5 0.805446 0.695919 0.985404 -2 1 1 
6878 6 0.923158 0.705841 0.0188979 -6 -4 3 
5771 5 0.291304 0.776813 0.0275313 -3 0 6 
6389 6 0.610055 0.729147 0.00371211 0 2 3 
7459 6 0.132098 0.770302 0.0115988 1 -2 7 
8172 6 0.383508 0.71477 0.0341583 -5 -2 5 
5254 6 0.124856 0.743494 0.0186265 4 2 -3 
5918 5 0.24396 0.815759 0.0295278 -2 -4 2 
5784 6 0.549682 0.802681 0.0221454 -2 -1 -1 
5408 5 0.917961 0.83574 0.0266395 2 2 0 
6970 6 0.901812 0.802795 0.993781 3 1 -1 
7777 5 0.45017 0.864164 0.035778 1 -3 -1 
8036 6 0.796547 0.874505 0.997315 4 -1 -2 
8670 5 0.872247 0.826005 0.0059707 4 -2 2 
7135 6 0.0161191 0.86046 0.0398298 -4 -3 -10 
6773 6 0.145874 0.8528 0.993196 5 -2 3 
5716 6 0.0631815 0.90055 0.977511 4 0 -1 
6977 6 0.182392 0.978265 0.962074 2 -2 2 
8298 6 0.407994 0.953461 0.984912 -1 6 2 
5961 6 0.33133 0.93229 0.0181534 5 1 -2 
6237 5 0.775089 0.0139127 0.073553 -1 3 1 
8856 5 0.0154096 0.978091 0.0124105 -2 0 2 
6017 6 0.653593 0.0354625 0.0304905 1 -1 -1 
7223 5 0.242482 0.0531466 0.0780569 2 0 -3 
5664 5 0.253517 0.0720429 0.0347548 5 1 1 
7868 5 0.0479814 0.123616 0.0686848 -1 2 -3 
5302 5 0.0539977 0.093033 0.0165083 -1 0 3 
6026 5 0.367752 0.0981091 0.0434291 0 2 -4 
6696 5 0.374565 0.118255 0.0124681 1 -1 -1 
5846 6 0.778578 0.0972658 0.0415121 -3 -2 2 
8668 6 0.904323 0.125718 0.0735329 1 2 2 
7998 6 0.169134 0.204483 0.0401867 2 7 2 
7294 6 0.802506 0.1848 0.0451573 0 1 6 
6517 5 0.860532 0.163924 0.0574686 -1 -1 3 
6109 6 0.553908 0.229873 0.0694823 -2 -1 -1 
6065 6 0.7691 0.201133 0.0296464 -3 0 1 
5495 6 0.0304418 0.214862 0.0416491 3 -1 4 
8858 6 0.189824 0.202851 0.0691578 3 -1 0 
7899 5 0.46983 0.212954 0.0459826 -2 2 1 
7705 5 0.514038 0.201491 0.030734 -4 6 5 
7614 6 0.337928 0.275668 0.0116359 5 1 2 
5953 5 0.512303 0.235185 0.0507482 -1 -2 -2 
8311 5 0.968588 0.294949 0.0211687 0 2 1 
7123 5 0.115712 0.286122 0.06068 -6 1 1 
5309 6 0.253602 0.301203 0.0125373 -4 -1 -3 
5447 5 0.571271 0.306214 0.0480245 -3 0 0 
7197 6 0.422554 0.351542 0.024067 4 2 0 
6409 5 0.799148 0.355109 0.976295 -4 2 -2 
5326 6 0.040037 0.36116 0.0134011 5 3 0 
6826 5 0.437159 0.358248 0.0960636 -3 0 3 
7206 6 0.987191 0.391467 0.013873 6 0 2 
7153 6 0.179289 0.406905 0.0437247 4 0 0 
8495 6 0.592922 0.4292 0.0100512 2 2 -4 
5914 5 0.606368 0.368379 0.0411216 -4 0 3 
8513 6 0.958734 0.371218 0.0189251 0 -1 2 
6852 6 0.354381 0.41426 0.0456861 0 0 3 
7335 6 0.613642 0.393818 0.0265003 1 6 -2 
5521 6 0.104587 0.438942 0.0322273 5 -3 0 
5264 5 0.77352 0.446317 0.00608284 -1 1 0 
6974 6 0.794315 0.418769 0.973639 -3 0 0 
8763 6 0.908734 0.434905 0.0183745 -1 -4 -3 
7349 5 0.158848 0.476773 0.00609582 -4 -4 -2 
6904 6 0.51381 0.52432 0.0121818 3 0 -1 
7475 6 0.460601 0.45699 0.0285267 -3 0 -1 
7626 5 0.717777 0.491462 0.0253501 2 -4 5 
6916 6 0.790293 0.53518 0.0497944 1 4 2 
8532 5 0.88143 0.54073 0.000131653 2 0 -2 
6975 5 0.950266 0.555035 0.0203612 -3 -5 0 
8663 6 0.0312423 0.539618 0.0419458 -3 -1 2 
7725 5 0.366271 0.580763 0.0352677 1 -6 1 
5426 5 0.43801 0.557348 0.0366664 0 -1 3 
6143 6 0.461104 0.556153 0.034583 -1 -3 -1 
5322 6 0.55732 0.57215 0.0374688 -1 -3 5 
5151 6 0.0712989 0.623251 0.0308633 -4 4 2 
5683 5 0.111112 0.589426 0.0158655 -3 3 -6 
8823 6 0.361061 0.637937 0.0224229 -2 1 5 
6718 6 0.806195 0.611592 0.0216876 5 -1 5 
6333 6 0.0663961 0.616428 0.0232702 2 6 3 
5976 6 0.161419 0.598973 0.0642804 1 2 3 
5345 5 0.487183 0.609979 0.0412503 2 0 0 
5173 5 0.823845 0.673702 0.00919981 4 0 2 
6687 6 0.924799 0.677791 0.0674657 -7 6 1 
8969 6 0.573689 0.704447 0.0166911 3 -3 0 
7089 6 0.128501 0.685502 0.0535769 5 3 4 
5660 6 0.91446 0.719564 0.0707785 0 6 1 
7046 5 0.128421 0.711758 0.0344804 4 -1 1 
5005 5 0.679836 0.762827 0.0312393 1 -2 1 
6715 5 0.0346673 0.768439 0.0567791 -4 -3 -1 
8808 5 0.10839 0.81783 0.0176826 -4 4 2 
5073 6 0.286818 0.729541 0.0664125 -4 -2 2 
5122 5 0.367998 0.769037 0.0478228 -1 3 2 
6293 5 0.0165064 0.828794 0.0289786 6 3 -2 
6617 5 0.456794 0.809286 0.0307464 -5 0 -7 
6239 6 0.841601 0.869417 0.0316461 -1 -4 0 
8009 6 0.791441 0.888834 0.0295954 2 1 3 
8386 5 0.653878 0.903321 0.0167575 -1 -6 1 
8967 5 0.78881 0.924491 0.065668 -2 2 3 
5753 6 0.368925 0.934999 0.0373568 -3 -1 -3 
8962 6 0.018491 0.980269 0.020925 2 -1 -1 
8835 6 0.0149255 0.987279 0.0686433 3 -2 -2 
6430 6 0.121545 0.976369 0.0300086 1 1 0 
8186 6 0.374625 0.953696 0.0258266 1 1 6 
8888 5 0.476189 0.936047 0.0196785 3 -3 -1 
8793 6 0.548599 0.968466 0.0593112 -5 1 -2 
5605 6 0.619534 0.976315 0.0443095 -2 2 -4 
5723 5 0.987639 0.94442 0.0338444 -3 0 0 
6765 6 0.0498364 0.0471676 0.040026 5 3 -1 
8281 6 0.629304 0.042201 0.054673 3 -2 2 
7036 6 0.00780164 0.0352653 0.043026 -2 2 1 
7425 5 0.30285 0.016631 0.0603303 -3 2 2 
6099 6 0.201044 0.0738799 0.0648482 -2 2 1 
6502 5 0.649438 0.045487 0.0261467 5 -4 -3 
7073 5 0.835926 0.0832075 0.0592653 -2 0 10 
5056 6 0.890003 0.0549735 0.044283 -3 -8 4 
6663 6 0.0326364 0.104744 0.0636148 1 -1 -1 
8121 6 0.372316 0.0682573 0.0478659 1 0 6 
6406 6 0.205397 0.100827 0.0770525 1 3 -1 
6589 5 0.684835 0.137143 0.066059 -1 1 1 
7071 6 0.659658 0.147908 0.0265739 2 1 -7 
7384 5 0.971578 0.150599 0.0768811 1 2 -1 
6419 6 0.024542 0.156827 0.080195 5 -2 -1 
7631 6 0.137513 0.167643 0.0500015 -1 -3 2 
6737 5 0.94882 0.204606 0.0242251 1 -1 1 
6341 6 0.0567368 0.237661 0.0185897 -3 0 2 
5452 6 0.345276 0.325826 0.0638815 2 -2 1 
5068 6 0.553926 0.290113 0.0662953 3 1 5 
6010 5 0.620999 0.290488 0.0491492 -4 1 -3 
7958 5 0.758553 0.328624 0.0835293 -3 -4 1 
7180 5 0.856814 0.290255 0.0465506 0 3 0 
8017 5 0.823695 0.291743 0.0645222 -1 -6 -1 
7863 6 0.963175 0.30185 0.0224997 1 1 -2 
8625 5 0.588676 0.328272 0.0861837 1 -1 0 
6808 6 0.656111 0.349491 0.0509618 -2 2 -1 
5184 5 0.852035 0.333486 0.0627228 4 1 4 
6680 6 0.933021 0.32956 0.0275228 -2 5 2 
6921 6 0.67878 0.36992 0.0462356 2 -1 2 
5715 5 0.264951 0.39992 0.0304806 -6 1 -3 
5232 5 0.777464 0.382686 0.0410489 1 4 4 
7865 5 0.848432 0.417716 0.0743303 1 -1 1 
7301 5 0.0369839 0.464215 0.0497289 4 -2 -3 
7432 5 0.406885 0.442198 0.0313071 6 2 3 
6464 6 0.465138 0.430173 0.0826866 2 0 1 
6843 5 0.315204 0.467736 0.0435755 5 -1 -2 
6386 6 0.455244 0.527344 0.0569851 -4 -2 1 
5258 5 0.709544 0.477898 0.0774646 2 3 1 
7029 5 0.96645 0.479092 0.0612669 1 2 0 
6905 6 0.151535 0.545132 0.0571389 3 -8 5 
7635 5 0.245806 0.544706 0.0674635 2 0 2 
8391 5 0.424798 0.539955 0.0514632 2 1 -2 
7054 6 0.383717 0.56893 0.101712 -1 0 5 
7327 6 0.604433 0.557015 0.0609112 2 -1 0 
8578 6 0.697666 0.602863 0.0692592 0 -5 2 
6516 6 0.089462 0.574547 0.0490901 0 -1 1 
5832 5 0.15888 0.58707 0.0579524 2 0 2 
6930 5 0.21312 0.560758 0.0556154 0 -2 -1 
5257 5 0.653498 0.585947 0.0428628 1 0 -3 
6964 6 0.688648 0.553506 0.07551 1 2 0 
6451 5 0.962327 0.563169 0.0348999 -1 -1 1 
6224 6 0.0655644 0.631026 0.0577347 4 -2 -1 
7788 6 0.531779 0.656991 0.0707738 -2 0 2 
8906 5 0.247475 0.627376 0.0376482 -2 1 7 
8996 5 0.296309 0.662657 0.0996596 4 0 3 
8244 5 0.728396 0.628228 0.0613673 -1 -1 -8 
7827 6 0.904098 0.663332 0.0480461 -1 3 0 
6608 6 0.722842 0.674794 0.0627011 3 -2 -2 
7886 5 0.872171 0.692732 0.0975273 -1 1 5 
6268 5 0.718985 0.721771 0.0749883 -7 7 4 
6304 6 0.741407 0.68788 0.0462652 3 1 -5 
8624 6 0.640645 0.715369 0.0548961 -1 2 4 
5545 6 0.0911136 0.708953 0.106745 4 5 3 
5461 5 0.00417863 0.753249 0.0455624 4 -2 -3 
8062 5 0.303832 0.786658 0.0259632 0 -1 3 
7817 5 0.756503 0.778242 0.045703 -1 0 4 
5367 6 0.714239 0.797808 0.070598 2 6 6 
8546 5 0.928402 0.734032 0.09096 0 2 -2 
5332 6 0.492615 0.823111 0.058102 -1 -3 6 
7269 5 0.769538 0.823478 0.0607493 2 -2 3 
7302 5 0.921237 0.861033 0.0795521 -3 -3 -1 
8108 5 0.971995 0.82956 0.0547629 6 -2 -1 
6971 6 0.0997918 0.897693 0.0561666 -6 0 1 
7497 6 0.173071 0.853979 0.0148613 1 -7 -3 
6742 6 0.796014 0.866043 0.0826204 -3 0 2 
6178 6 0.404198 0.910169 0.0448979 -5 6 3 
7782 5 0.582701 0.910725 0.0871909 5 1 1 
8129 6 0.178934 0.927723 0.0823034 7 5 0 
5182 6 0.377075 0.87354 0.0660697 1 1 2 
8868 5 0.395689 0.931034 0.0468674 -3 1 -1 
5166 5 0.700866 0.929005 0.0652897 -5 -6 -1 
8241 6 0.0732427 0.998379 0.0620842 0 -1 2 
5896 6 0.934612 0.955214 0.054437 1 0 -3 
8282 5 0.946413 0.974647 0.0634545 3 -1 0 
5369 5 0.0270534 1.00077 0.0775121 1 -2 -3 
5106 6 0.55241 0.99988 0.0622239 -1 1 -1 
7984 5 0.896073 0.98093 0.0713079 2 -5 -3 
6398 6 0.0187548 0.994218 0.0706631 -7 -2 5 
7298 6 0.44461 0.0249433 0.0546565 -5 3 -4 
6181 5 0.457939 0.0827579 0.0654715 -1 -1 2 
6486 5 0.604398 0.107098 0.0649609 -3 5 -1 
5299 6 0.656635 0.0520372 0.117943 -2 -1 3 
5515 6 0.692538 0.0570557 0.0768589 -8 -2 1 
5749 6 0.87772 0.123905 0.0988938 -2 -2 4 
8656 5 0.870311 0.0842539 0.08594 -7 -7 -3 
5455 6 0.197966 0.121559 0.0420811 6 -2 4 
7690 6 0.389058 0.161777 0.0833926 -2 3 -1 
7524 6 0.409999 0.116803 0.0975601 1 1 -2 
7723 5 0.858129 0.157797 0.0732151 -2 -3 -4 
7195 5 0.153368 0.154228 0.108523 1 5 5 
6648 5 0.152846 0.193984 0.0876291 -3 3 -1 
5568 6 0.429761 0.159953 0.0771094 -1 0 0 
5597 6 0.400982 0.182397 0.0874163 -3 -6 0 
7600 5 0.66673 0.227544 0.0618883 -2 1 1 
7755 5 0.768612 0.187235 0.054028 -7 4 7 
8293 6 0.14117 0.195186 0.0677121 3 6 -3 
8417 5 0.140737 0.228008 0.0858857 2 1 4 
5824 6 0.198294 0.252074 0.0950341 2 -5 3 
5198 5 0.701184 0.284081 0.0692168 1 2 -2 
6167 6 0.639546 0.286647 0.0734112 0 1 1 
5800 5 0.639796 0.29646 0.0686015 -5 5 0 
8872 5 0.768363 0.300312 0.0815168 0 1 7 
7379 6 0.759482 0.321813 0.0955972 3 3 0 
8979 5 0.370491 0.35926 0.0938385 3 -6 -3 
7588 5 0.458357 0.332705 0.0549125 6 -3 1 
7243 5 0.860223 0.334482 0.0416547 -1 -2 -5 
6028 5 0.0444699 0.331711 0.121609 -2 -2 -5 
8617 5 0.144996 0.335251 0.0976955 -2 -4 -4 
7789 6 0.173803 0.354858 0.0781656 2 4 -6 
7643 6 0.697223 0.416451 0.0888572 -6 2 0 
8731 5 0.862021 0.3743 0.0613765 1 1 4 
5064 6 0.336827 0.430526 0.0350422 -2 2 -5 
7581 6 0.109235 0.539915 0.112033 6 2 3 
7919 6 0.398024 0.460391 0.0683113 5 2 5 
6400 6 0.336535 0.467889 0.0503456 1 0 -6 
8934 6 0.481151 0.546581 0.0944597 -4 0 0 
6187 5 0.475477 0.508896 0.108297 -4 4 2 
6712 5 0.394009 0.512364 0.0911146 2 0 3 
8361 5 0.497126 0.557128 0.0712721 0 -1 -2 
5138 6 0.88425 0.552532 0.0536319 -3 -2 -3 
8634 5 0.743269 0.559925 0.088357 -2 -1 0 
6456 6 0.73686 0.569865 0.0912675 -2 -3 2 
6548 6 0.176202 0.578729 0.104843 4 2 -4 
6578 6 0.494898 0.578037 0.0786975 -2 -3 3 
5015 6 0.793886 0.609664 0.0657559 -1 0 -1 
7098 6 0.956967 0.614847 0.0518464 -6 -3 3 
6833 6 0.954019 0.661254 0.088658 2 -1 4 
5466 6 0.0472203 0.701029 0.0843798 -1 -2 1 
8441 5 0.138895 0.674195 0.103151 4 2 5 
5312 5 0.772382 0.651763 0.0553606 0 0 -1 
7780 6 0.828193 0.688083 0.0885091 -2 -6 -3 
5203 6 0.920115 0.691726 0.104453 5 0 0 
8013 6 0.619633 0.699558 0.115029 -5 1 1 
6827 6 0.838058 0.697834 0.0973492 -2 0 5 
6719 5 0.885238 0.657494 0.0941107 -6 1 2 
7757 5 0.171505 0.699571 0.0720669 0 4 0 
6203 6 0.385243 0.683263 0.0862639 3 0 -1 
6438 5 0.549977 0.756574 0.0765065 6 3 -3 
6276 6 0.903726 0.708295 0.0468397 2 2 -1 
6848 5 0.489699 0.751028 0.0881835 -4 -3 5 
8239 6 0.731543 0.717076 0.0675042 2 0 -1 
5999 6 0.832961 0.747418 0.0777657 0 0 1 
7972 6 0.507385 0.794228 0.0684046 -6 3 0 
8093 5 0.355372 0.805287 0.0769054 3 1 -1 
6047 5 0.306049 0.835157 0.0510424 3 0 -5 
5360 5 0.261369 0.836645 0.0780817 -4 2 -4 
7329 5 0.437956 0.841727 0.0427713 2 1 -2 
6119 5 0.781633 0.829825 0.082489 -2 -1 0 
5288 5 0.94856 0.824323 0.067764 -4 6 2 
6043 5 0.552327 0.920346 0.06811 0 0 2 
7212 5 0.652608 0.838679 0.059027 -1 1 -6 
8544 6 0.842377 0.835313 0.10669 2 -5 -2 
8981 6 0.525361 0.87637 0.0925624 4 0 -1 
7441 6 0.89122 0.921704 0.0970784 3 -4 -4 
5741 6 0.974752 0.909611 0.0723548 -3 -3 2 
6762 6 0.161394 0.911132 0.0789817 -1 1 -2 
6308 5 0.30719 0.93728 0.118466 -5 -2 -1 
7256 6 0.409125 0.923615 0.0710107 -3 1 0 
6511 6 0.381276 0.942069 0.108869 -3 0 -1 
6829 6 0.432174 0.907727 0.0874609 5 -1 -2 
6302 5 0.657214 0.915057 0.100722 3 2 2 
5449 6 0.321187 0.946329 0.0710199 -3 -4 -2 
6733 6 0.133746 0.988465 0.0780244 1 -1 -2 
8015 6 0.759147 0.989792 0.0831924 -2 -4 1 
6953 6 0.251579 1.23589e-05 0.054237 3 1 -3 
8574 6 0.889697 0.0508821 0.120399 1 0 -2 
5770 5 0.024134 0.0579322 0.0523116 -1 4 2 
8105 5 0.16678 0.0300895 0.097966 4 -5 4 
8158 5 0.366929 0.0429033 0.0730409 -2 -1 -1 
7069 6 0.648253 0.972815 0.110497 0 3 -2 
8689 6 0.887919 0.0424352 0.116373 -1 -1 -2 
6444 6 0.174784 0.0322151 0.0919241 0 6 -7 
8725 5 0.745911 0.0897708 0.109635 -2 -2 -3 
7925 6 0.645224 0.074808 0.105564 -1 3 0 
6024 5 0.61614 0.0744239 0.106125 0 -3 0 
5374 6 0.661793 0.0954169 0.0685314 -1 0 0 
7038 6 0.863701 0.102641 0.130402 2 -2 -1 
5502 5 0.31834 0.112524 0.104004 1 3 1 
5298 5 0.409352 0.117491 0.115825 1 4 2 
5388 5 0.263125 0.142235 0.109099 -1 7 0 
8959 6 0.516184 0.170203 0.0945926 1 -3 -4 
8705 5 0.53475 0.190393 0.095506 -2 -1 2 
6136 6 0.949229 0.176656 0.116312 0 3 1 
7708 5 0.237712 0.186903 0.0956942 -3 -3 -2 
6365 5 0.236219 0.162187 0.10498 0 6 5 
7535 6 0.531243 0.196021 0.110868 -3 1 5 
7464 6 0.547732 0.169121 0.106491 4 -4 3 
5789 5 0.00483493 0.236805 0.0760079 1 1 3 
8349 6 0.575666 0.212956 0.0542126 0 3 1 
8865 6 0.036924 0.22658 0.101199 2 -1 0 
8424 6 0.103783 0.231287 0.107524 0 -6 -2 
6753 5 0.31524 0.230613 0.0600713 2 -2 2 
5825 6 0.232314 0.274165 0.118357 3 2 1 
7439 5 0.985968 0.323684 0.130012 3 -1 3 
6214 5 0.0802076 0.342088 0.0972661 -4 -3 2 
7214 6 0.186286 0.313703 0.0994461 1 3 2 
6260 5 0.301188 0.348034 0.110812 4 1 5 
8947 5 0.499284 0.323418 0.0945518 -1 5 0 
8976 6 0.72029 0.355501 0.129623 2 -1 -4 
8854 5 0.0811583 0.396542 0.12107 -5 2 2 
8750 6 0.321101 0.364413 0.0928445 4 3 -3 
7111 6 0.425619 0.370545 0.0693209 4 0 -3 
7836 6 0.378473 0.429883 0.0979869 1 0 2 
5780 6 0.692599 0.414096 0.101403 4 -2 4 
8568 5 0.904379 0.418174 0.109201 0 3 1 
6870 6 0.0905161 0.456091 0.121717 4 -4 0 
8091 5 0.747377 0.410059 0.0440168 -2 -5 -7 
8459 6 0.779078 0.426745 0.084738 0 4 -5 
5511 6 0.344288 0.447738 0.0931545 1 4 -1 
8530 5 0.321116 0.443446 0.134903 -2 5 -3 
7971 6 0.119623 0.506378 0.0974425 2 -2 -1 
5359 6 0.196161 0.44206 0.115831 -3 3 -1 
7811 6 0.784463 0.485239 0.117464 -1 1 -7 
8367 6 0.756247 0.499386 0.111401 1 0 2 
8125 6 0.986472 0.503264 0.0967611 -2 1 1 
5620 6 0.556513 0.517848 0.0687095 -2 2 -1 
7309 6 0.775157 0.53533 0.0819983 0 -3 0 
7693 6 0.342324 0.546668 0.144235 -5 -5 3 
5026 6 0.851736 0.504082 0.111174 1 -3 0 
5397 5 0.935036 0.539613 0.13596 2 -3 3 
5448 6 0.11765 0.552941 0.122641 2 3 5 
6091 6 0.0164901 0.569955 0.0886925 0 3 3 
7590 5 0.489854 0.612184 0.0539753 0 0 6 
6183 5 0.466382 0.533382 0.101926 4 -5 -2 
6803 5 0.666566 0.621078 0.0775649 -3 1 0 
5722 5 0.700746 0.600615 0.137863 6 2 0 
7155 5 0.688939 0.57097 0.105768 -2 -3 2 
7271 6 0.0445174 0.644613 0.141222 -2 -4 1 
8796 5 0.894448 0.607998 0.110663 0 -1 1 
5274 6 0.960026 0.670641 0.132156 -1 3 0 
6264 5 0.139951 0.653388 0.121442 4 -1 0 
6355 6 0.20864 0.68032 0.0912759 -3 2 -2 
7957 6 0.462843 0.645412 0.0923272 5 1 -2 
8915 6 0.904092 0.714507 0.079981 1 -3 -1 
5049 5 0.0619668 0.727968 0.118618 -3 6 -1 
8223 5 0.0605978 0.757344 0.116598 0 1 -4 
7013 6 0.664175 0.715954 0.124359 1 -4 -2 
7787 5 0.0942499 0.791992 0.0949668 -3 -3 2 
7150 6 0.669937 0.731116 0.133145 5 -2 5 
6664 6 0.769702 0.719659 0.0756614 2 2 -2 
5570 6 0.553366 0.762525 0.113889 -7 -2 3 
7544 6 0.912583 0.781163 0.0906235 3 2 4 
7779 5 0.106407 0.775515 0.0876077 -3 1 0 
7004 6 0.732809 0.784571 0.115878 -2 -1 0 
6045 6 0.183172 0.814853 0.108226 2 2 3 
6082 5 0.329668 0.837107 0.0491606 1 -4 -1 
6048 6 0.413314 0.813933 0.104153 2 -1 2 
7339 6 0.450257 0.787997 0.0916224 1 1 -1 
5131 6 0.598016 0.799549 0.141874 0 0 -3 
6599 5 0.290271 0.858882 0.126516 -1 2 2 
6013 6 0.448806 0.831224 0.0928261 0 -1 3 
6976 5 0.983294 0.811609 0.0984715 -2 0 -3 
6630 5 0.312657 0.89431 0.0796197 6 -2 3 
5328 6 0.1133 0.923402 0.077694 0 0 -2 
5785 5 0.174006 0.940366 0.0994116 2 -4 -1 
8080 5 0.640152 0.943039 0.092698 1 -2 0 
8782 6 0.680758 0.894954 0.135364 -5 1 -3 
8600 6 0.819615 0.917653 0.130225 -2 -2 4 
6754 5 0.996275 0.902416 0.122143 -1 2 5 
8647 6 0.204217 0.959242 0.0893693 -6 -3 1 
5177 5 0.29667 0.901623 0.121098 -5 0 0 
8162 5 0.361559 0.967093 0.106948 3 5 1 
6477 6 0.737779 0.94668 0.0833471 2 -2 -1 
5291 5 0.624822 0.943347 0.145729 -1 0 1 
6732 5 0.573485 0.996104 0.0837458 0 -3 -1 
6673 5 0.723717 0.982965 0.146527 1 0 4 
6373 5 0.224248 0.047376 0.156676 2 3 -5 
8886 6 0.450633 0.0117404 0.135807 4 2 -4 
7347 6 0.0335256 0.106927 0.107587 5 1 1 
5836 6 0.0830628 0.0247714 0.137108 0 -1 2 
8836 5 0.377387 0.0952109 0.140515 2 -2 -1 
7746 5 0.795864 0.0554014 0.13517 -4 2 -2 
5475 5 0.29032 0.0963036 0.0994619 3 0 -1 
8055 6 0.623878 0.118603 0.102794 2 3 -3 
7167 5 0.816943 0.114967 0.126485 2 0 3 
7057 5 0.279123 0.134082 0.129358 0 -3 -2 
5061 5 0.229516 0.167027 0.149123 2 -3 1 
5764 5 0.316972 0.137743 0.166096 -3 -2 -3 
6015 6 0.290187 0.218175 0.108597 2 5 0 
7743 6 0.69363 0.214564 0.104992 -3 0 -1 
6056 5 0.0356611 0.204549 0.135305 -1 2 -2 
8616 6 0.600348 0.207558 0.120573 2 -3 0 
5641 6 0.463886 0.248654 0.111417 2 8 -2 
7465 5 0.652964 0.319444 0.105616 5 1 -3 
7489 5 0.799473 0.313172 0.100345 1 -1 2 
6476 5 0.860833 0.270526 0.0890717 3 0 1 
6641 5 0.499012 0.253859 0.115535 -2 0 2 
7859 5 0.553745 0.287637 0.1518 3 3 -2 
8350 5 0.976999 0.328774 0.128527 1 1 1 
6647 6 0.612077 0.347175 0.106685 8 -1 3 
7691 6 0.0537793 0.357128 0.114591 2 -1 -8 
7014 6 0.436496 0.420997 0.17364 0 1 -2 
8082 6 0.818123 0.399721 0.127766 0 2 2 
6281 5 0.658833 0.421859 0.137471 -4 0 2 
5729 5 0.772562 0.441016 0.0979827 -1 -1 -3 
7656 5 0.0845271 0.431499 0.118651 2 3 4 
8910 5 0.251189 0.459633 0.158372 0 -1 -4 
5444 5 0.870826 0.454292 0.127498 3 -2 4 
7606 6 0.342789 0.490936 0.13614 -4 1 6 
7751 6 0.284037 0.525841 0.147409 -8 -3 -2 
6303 6 0.421201 0.520114 0.129143 -2 -2 0 
7943 6 0.648071 0.502292 0.112966 -3 -5 0 
5017 5 0.930408 0.512271 0.120472 -4 -1 4 
5152 5 0.662993 0.552976 0.125496 -6 -1 0 
7412 5 0.761415 0.524369 0.108387 -3 1 -6 
7061 5 0.958142 0.573737 0.135622 -1 -1 1 
6035 5 0.485537 0.538133 0.131572 -1 0 -3 
8780 5 0.569642 0.549283 0.125585 -4 -2 1 
8591 5 0.893414 0.567093 0.0945614 2 2 1 
7706 6 0.903943 0.55649 0.0773399 3 -3 0 
7852 6 1.00184 0.588174 0.130004 -5 5 -1 
8033 5 0.0809133 0.573391 0.0893968 2 -1 0 
5900 6 0.257482 0.547977 0.0947301 4 2 1 
7010 6 0.967406 0.606672 0.130168 -1 2 1 
6446 5 0.0295325 0.611086 0.0705483 0 3 -6 
6361 6 0.223727 0.587163 0.127406 0 1 3 
8993 6 0.389545 0.595297 0.106704 5 3 -2 
8945 5 0.715358 0.614946 0.158933 -3 0 -3 
8220 6 0.0369517 0.609982 0.118845 1 -2 -4 
5932 5 0.495718 0.639138 0.134182 1 -1 -2 
6679 5 0.717965 0.654086 0.125104 -1 -5 -1 
5760 6 0.26501 0.644672 0.154071 -4 -5 2 
7574 5 0.268113 0.679135 0.0941059 1 3 6 
8047 5 0.943549 0.623279 0.153106 4 0 -4 
7832 6 0.546642 0.634161 0.117159 6 -6 -1 
7667 5 0.315287 0.671659 0.0979311 10 -1 -4 
8598 6 0.289976 0.702608 0.1198 3 0 -1 
6587 6 0.0963314 0.719037 0.121055 1 5 -5 
7015 5 0.293235 0.708935 0.141307 2 5 -2 
5407 5 0.0409999 0.722129 0.145764 3 -2 2 
6408 6 0.115811 0.739798 0.0969619 3 -3 1 
6509 5 0.362969 0.755657 0.111508 3 -4 5 
8090 6 0.817744 0.735763 0.101682 -1 1 -2 
6528 6 0.00427696 0.769487 0.119108 6 1 -2 
8848 6 0.742851 0.769444 0.156697 3 0 -6 
5870 6 0.959001 0.807821 0.148378 -1 -2 3 
5303 6 0.955799 0.748381 0.136638 1 0 -1 
7879 6 0.631225 0.806735 0.145102 0 1 4 
8314 5 0.416782 0.802839 0.141344 -1 -2 1 
8413 6 0.46265 0.82937 0.126993 -1 5 0 
6315 6 0.616982 0.863233 0.105161 2 3 2 
6457 6 0.202693 0.829604 0.110406 1 3 1 
8149 6 0.751922 0.84961 0.121332 5 0 -1 
5179 6 0.166387 0.916725 0.143486 2 -2 1 
6902 6 0.288534 0.863992 0.150418 -4 1 0 
7222 6 0.488413 0.889558 0.114919 -2 1 -3 
6493 6 0.933307 0.924374 0.130857 4 -1 2 
8958 6 0.0632599 0.919909 0.132268 -1 0 5 
7083 5 0.245549 0.925937 0.113508 -5 0 -3 
7786 6 0.245546 0.900118 0.112466 2 0 7 
5506 6 0.530387 0.925909 0.13241 -2 1 -2 
7893 6 0.258552 0.937456 0.0870688 -6 -5 1 
8501 6 0.402338 0.957981 0.129379 -6 -4 3 
6937 5 0.0877732 0.978264 0.0862675 -2 -2 0 
7509 5 0.399218 0.957684 0.14906 -1 0 4 
7578 6 0.980574 0.968306 0.113011 -3 0 5 
6148 5 0.824212 0.991318 0.137052 -1 3 2 
6939 6 0.883461 0.983774 0.155653 -1 1 5 
5159 6 0.94599 0.973868 0.142038 4 -2 0 
6716 5 0.208805 0.0127812 0.148121 2 1 2 
8315 5 0.187264 0.0639939 0.148044 -2 3 7 
8404 6 0.645247 0.0275076 0.162547 -4 4 -1 
5964 6 0.659437 0.0486998 0.160055 1 -2 -5 
6069 5 0.782588 0.0334488 0.156188 3 5 1 
8985 6 0.840606 0.0423292 0.15949 2 2 2 
6615 5 0.559357 0.0506591 0.123435 -5 3 -1 
6482 5 0.90725 0.0577799 0.149311 -1 1 2 
8405 6 0.0666476 0.105449 0.179456 5 5 2 
5404 5 0.954065 0.134981 0.12197 1 -1 3 
5967 5 0.764867 0.130559 0.163648 -1 3 -2 
7517 6 0.88963 0.12924 0.182014 1 -3 4 
7621 5 0.00179463 0.186341 0.164836 -2 2 0 
7241 5 0.172549 0.183249 0.184504 -2 4 1 
8320 6 0.616809 0.231817 0.144704 -4 -2 3 
7107 6 0.239856 0.240138 0.162435 8 1 -1 
8870 5 0.152852 0.27201 0.167867 2 1 5 
8451 6 0.453992 0.262496 0.176369 -4 1 -1 
6666 6 0.710219 0.255536 0.11177 0 2 1 
7694 5 0.926326 0.286184 0.145019 1 1 -1 
7106 6 0.158092 0.293074 0.140704 -1 2 1 
6034 6 0.24907 0.26176 0.141151 1 -1 3 
5320 6 0.654031 0.26994 0.153318 -2 -3 2 
7286 5 0.970285 0.267616 0.151556 3 3 -6 
8175 6 0.398361 0.309475 0.117922 1 -1 -1 
8815 5 0.408897 0.345114 0.154256 6 4 -1 
7521 6 0.411563 0.337737 0.121005 -4 4 5 
8650 6 0.0120126 0.333196 0.143001 5 1 2 
7085 5 0.0353048 0.407002 0.11486 -1 -7 4 
5053 6 0.752835 0.39392 0.153532 3 -4 0 
6873 6 0.216497 0.403739 0.116173 -3 1 1 
7853 5 0.294581 0.44976 0.108234 -1 4 1 
6263 5 0.401264 0.383433 0.116113 -1 -2 2 
5926 6 0.18303 0.435834 0.158952 -1 1 -1 
6387 5 0.915314 0.453059 0.157581 0 -1 1 
6255 6 0.543993 0.502935 0.141665 5 -2 -2 
7395 5 0.494296 0.554628 0.155684 2 2 6 
7897 6 0.59341 0.53741 0.138814 3 0 4 
5036 5 0.771608 0.51329 0.163572 1 -4 -5 
8817 6 0.997788 0.544232 0.14919 -3 4 1 
8450 6 0.624107 0.596125 0.15282 1 0 2 
5256 5 0.367512 0.632815 0.159094 1 7 0 
7116 5 0.650445 0.605375 0.165012 0 1 4 
8435 5 0.746516 0.620099 0.0893281 3 4 1 
8478 5 0.116545 0.644543 0.128882 0 -6 -2 
7248 5 0.0644861 0.631453 0.154573 1 6 -1 
5841 5 0.173088 0.650486 0.122954 0 5 3 
5665 5 0.581704 0.684767 0.141636 3 1 0 
6011 6 0.780442 0.679376 0.190533 3 0 1 
6531 6 0.580913 0.683146 0.159046 0 5 1 
5688 6 0.605474 0.681087 0.143036 5 -1 -2 
7303 5 0.738273 0.742203 0.174993 -3 -3 1 
7169 6 0.360114 0.733287 0.165808 -4 2 3 
6455 5 0.846199 0.65695 0.144552 1 -2 -1 
5417 5 0.497776 0.806901 0.127312 1 -5 1 
7244 6 0.33925 0.786314 0.192761 3 5 1 
8575 5 0.850385 0.754872 0.139131 -2 3 -2 
5602 5 0.391112 0.831948 0.138716 4 -2 2 
8800 5 0.21925 0.833111 0.154278 0 -5 2 
8145 5 0.824784 0.768016 0.177371 -5 0 -1 
5245 6 0.85708 0.783298 0.164638 -1 1 2 
6450 5 0.860473 0.826756 0.173354 0 1 6 
5979 6 0.0126516 0.821105 0.164431 -3 2 2 
7911 5 0.157081 0.802517 0.167354 0 1 -3 
8407 6 0.660374 0.798309 0.135205 -6 -1 1 
6156 6 0.744173 0.813564 0.136752 5 -2 -3 
6219 6 0.00722318 0.857617 0.134311 -3 -4 1 
7470 6 0.0528925 0.914406 0.159548 7 -2 3 
6750 6 0.37216 0.874704 0.149953 -1 1 0 
8812 6 0.404969 0.854427 0.171184 0 -2 -1 
5202 6 0.0166422 0.933784 0.144394 2 0 4 
8505 5 0.459693 0.860282 0.146185 1 0 5 
6366 6 0.461073 0.910182 0.148173 2 4 6 
5730 5 0.285393 0.910487 0.154591 3 1 4 
5158 6 0.80332 0.925621 0.163799 -4 1 1 
5135 5 0.358696 0.939833 0.16908 1 3 -9 
7363 5 0.509524 0.955378 0.15377 3 -2 2 
5940 6 0.762686 0.94091 0.134328 -2 5 -1 
8338 6 0.616764 0.0393285 0.155401 1 -3 -1 
5308 6 0.33878 0.988827 0.155932 2 -1 -4 
7892 6 0.355882 0.0483692 0.160887 2 0 -1 
6813 5 0.428171 0.0372849 0.172469 1 1 6 
6981 5 0.134539 -0.00523975 0.152301 0 0 -2 
8226 5 0.202218 0.00278326 0.205041 2 -6 1 
8359 6 0.685348 0.000370711 0.130267 1 0 3 
8664 6 0.110779 0.0616765 0.166999 2 1 0 
6372 5 0.224407 0.0745285 0.172194 1 -1 3 
7307 6 0.903245 0.0540383 0.191385 0 3 0 
6884 6 0.527877 0.0755667 0.121172 0 1 4 
7992 5 0.877053 0.104769 0.178919 -2 0 5 
7804 6 0.0992317 0.119379 0.136337 -5 1 -2 
8701 5 0.319085 0.166654 0.18047 2 -2 -3 
7935 5 0.834003 0.152708 0.171345 3 0 -4 
5172 6 0.854987 0.170562 0.168233 -3 3 -4 
8377 5 0.854838 0.166199 0.154788 3 1 3 
5651 5 0.239762 0.223439 0.184219 -1 6 1 
7551 5 0.801441 0.210012 0.165811 0 -5 1 
5631 6 0.973994 0.183788 0.145406 -4 0 4 
7343 5 0.604781 0.207734 0.142502 1 1 -4 
5451 5 0.330222 0.271247 0.191985 -1 3 -6 
6059 5 0.488342 0.247119 0.148061 -1 2 -5 
6745 6 0.632731 0.250503 0.172505 -1 -5 0 
5484 6 0.680531 0.297359 0.185332 -1 2 -4 
5818 5 0.354964 0.312172 0.194855 2 -4 0 
6690 6 0.434753 0.346248 0.172936 3 -1 -1 
7908 6 0.4227 0.368972 0.172541 -1 -2 3 
7732 6 0.921131 0.33561 0.167688 2 0 -1 
7122 6 0.103222 0.405562 0.174718 -3 -2 -2 
5028 6 0.168395 0.372603 0.151843 -1 2 -1 
7964 6 0.353212 0.372225 0.185898 1 0 1 
7738 6 0.711923 0.373132 0.166493 1 1 4 
7070 6 0.763223 0.416743 0.133007 -1 -6 -4 
5880 6 0.244126 0.431455 0.148294 0 -3 4 
7127 5 0.261694 0.416715 0.173107 0 -1 0 
8236 5 0.38912 0.425792 0.155968 1 3 3 
5240 6 0.697353 0.417098 0.168857 1 1 -5 
5594 5 0.717552 0.43692 0.173958 1 3 0 
6530 6 0.542407 0.512393 0.167948 3 -3 -4 
8632 6 0.121464 0.517013 0.143675 0 4 1 
7251 6 0.910275 0.510286 0.165323 -1 3 4 
5434 5 0.42822 0.588936 0.174654 -2 -6 -1 
5197 5 0.966961 0.559804 0.18973 -3 -6 1 
6288 5 0.903698 0.577851 0.136709 2 -3 1 
8381 5 0.893102 0.580322 0.200308 5 4 0 
7079 5 0.100737 0.623209 0.157711 -2 5 1 
7654 5 0.573093 0.606028 0.211777 0 -6 -3 
7103 5 0.622386 0.61971 0.175143 2 1 0 
8506 6 0.597508 0.652799 0.178183 -4 2 -2 
6519 5 0.058947 0.678445 0.164642 1 1 -3 
5219 6 0.23679 0.692156 0.185616 3 -2 -1 
6649 6 0.612669 0.644353 0.190589 -1 -3 -1 
7487 5 0.846103 0.634441 0.194152 -3 4 2 
6092 6 0.369028 0.717853 0.150801 0 -1 -2 
6448 6 0.536805 0.681862 0.124192 -1 -2 3 
5835 5 0.00507996 0.713159 0.149846 -2 -1 -1 
6566 6 0.0488976 0.683546 0.156775 1 5 -1 
7851 5 0.174467 0.699668 0.163643 1 2 -4 
5348 5 0.24913 0.723798 0.154123 4 2 0 
5851 6 0.165981 0.761825 0.19384 4 2 0 
5565 6 0.787864 0.764853 0.126613 -3 0 3 
8816 5 0.689114 0.740688 0.166908 3 -1 -4 
6653 5 0.614107 0.818351 0.145536 1 -2 1 
8296 5 0.0850972 0.835419 0.156861 1 -2 -2 
7940 5 0.070969 0.818518 0.164883 0 0 2 
6454 5 0.253733 0.806338 0.166562 2 1 -4 
8185 5 0.288237 0.805461 0.181771 -6 -2 1 
5752 5 0.33706 0.831622 0.16235 -3 4 1 
7315 6 0.485439 0.832369 0.160781 6 -1 2 
5146 6 0.832528 0.79906 0.173644 1 4 -1 
5129 6 0.685247 0.874541 0.18492 -6 -6 4 
6130 5 0.734159 0.891857 0.173596 -4 -3 2 
7636 6 0.882024 0.80909 0.157764 -1 -3 0 
7217 6 0.501137 0.858448 0.191179 2 1 0 
5968 5 0.54109 0.856043 0.179471 3 -3 -2 
6068 6 0.537444 0.900513 0.162511 2 0 6 