ITEM: TIMESTEP
20000000
ITEM: NUMBER OF ATOMS
9000
ITEM: BOX BOUNDS pp pp pp
-75 75
-75 75
-75 75
ITEM: ATOMS id type xs ys zs ix iy iz 
6147 6 0.106183 0.9973 0.994646 3 -6 2 
5079 5 0.442066 0.981613 0.020634 -6 1 -1 
7645 5 0.412913 0.0507262 0.0342535 -5 -3 -4 
5923 5 0.0206959 8.5381e-05 0.0239389 3 -1 1 
7043 6 0.16296 0.0621806 0.0068079 -6 3 0 
5745 5 0.190496 0.0166628 0.982111 2 -2 -2 
7707 6 0.481498 0.079993 0.0249207 -1 -1 3 
6814 6 0.809836 0.0864519 0.0211957 1 -1 0 
5557 6 0.842622 0.0825314 0.0266744 -3 2 0 
6808 5 0.953378 0.0970015 0.00413299 -3 3 1 
7686 6 0.769113 0.143663 0.97555 -4 1 4 
7497 6 0.629941 0.133451 0.0179701 -4 -4 -2 
7946 6 0.0980265 0.177387 0.0454462 -2 -1 -3 
6129 6 0.370004 0.171304 0.0332015 -2 -5 1 
6195 6 0.453888 0.193575 0.025842 -3 3 0 
5807 5 0.524733 0.16912 0.00386473 -1 4 0 
8350 5 0.981303 0.19457 0.0342267 -6 -1 1 
5940 5 0.460351 0.200387 0.996036 6 1 -3 
8776 6 0.429442 0.222174 0.0195027 0 0 -4 
5512 6 0.882677 0.214344 0.00279626 2 -1 -7 
6934 5 0.0305763 0.219349 0.0124552 4 2 0 
8038 6 0.455829 0.230966 0.0380827 2 -2 -1 
8175 6 0.618526 0.318717 0.0161517 0 1 0 
6862 5 0.930225 0.2784 0.023562 -3 -5 -1 
8477 5 0.104949 0.285177 0.0120899 -2 0 3 
6423 5 0.222221 0.302504 0.0477661 -2 2 -5 
7589 6 0.291932 0.307685 0.0425298 3 -1 0 
6360 5 0.621901 0.288889 0.0115689 7 5 1 
8351 6 0.70339 0.273817 0.0308836 -4 0 0 
7269 6 0.790043 0.254815 0.995557 0 2 4 
6329 5 0.38122 0.283289 0.957363 6 -1 -2 
8481 6 0.533751 0.309476 0.0232436 2 5 4 
8841 5 0.538886 0.318898 0.977807 2 -1 0 
8315 5 0.59542 0.278566 0.0120464 -2 -1 3 
8877 6 0.787208 0.324234 0.0508717 -4 2 -1 
6787 6 0.863242 0.291001 0.995551 3 -1 4 
6950 5 0.844356 0.373064 0.0105575 2 2 2 
8429 6 0.763222 0.352322 0.014473 -4 1 1 
6977 6 0.215927 0.361937 0.99909 2 -2 -1 
8572 5 0.220905 0.37223 0.00623443 -1 -1 -2 
5281 6 0.627033 0.411128 0.981674 4 1 1 
8580 6 0.968452 0.357588 0.988988 1 -2 0 
7314 6 0.0612598 0.373712 0.0175163 1 0 -1 
7952 5 0.190144 0.460257 0.993212 1 -5 -2 
7023 6 0.262666 0.435488 0.0205902 0 -3 0 
5027 6 0.301556 0.433245 0.0136011 -1 3 5 
7965 6 0.786358 0.389002 0.0113404 -1 2 3 
7542 5 0.776964 0.450987 0.038278 0 0 2 
7050 5 0.195602 0.430117 0.975426 -2 3 3 
6593 5 0.694959 0.467247 0.0254473 2 -4 -2 
6324 5 0.528004 0.458872 0.00667216 2 4 -1 
7389 6 0.722262 0.495888 0.0367732 -7 -1 -3 
8866 5 0.814731 0.468455 0.0326878 -1 -1 -6 
8708 6 0.966093 0.471967 0.00914453 -1 2 -1 
6930 5 0.974933 0.465034 0.0473814 -2 -2 0 
6799 6 0.752771 0.496454 0.0133198 -2 0 -1 
5536 6 0.771718 0.465446 0.0350862 -3 0 3 
6123 5 0.759136 0.470604 0.00487563 2 6 3 
5650 5 0.967229 0.480561 0.0349987 -2 0 2 
7019 5 0.128389 0.510753 0.0124837 -6 2 -1 
8224 6 0.669921 0.518688 0.00231004 -1 -1 -1 
7464 6 0.0921148 0.50446 0.0101598 -3 2 -2 
5131 6 0.5208 0.509665 0.00794801 1 2 -1 
6410 5 0.920547 0.559165 0.991054 0 5 1 
8197 6 0.204592 0.562098 0.959791 2 4 7 
6879 6 0.200151 0.557492 0.0396729 -3 2 0 
7683 6 0.258453 0.551399 0.00453736 -3 6 -2 
5100 6 0.638283 0.552586 0.993111 1 -3 -1 
6642 6 0.537979 0.617435 0.0156452 -2 3 2 
5080 6 0.827052 0.624392 0.0121012 1 3 -1 
8822 6 0.449296 0.663 0.981743 0 -4 0 
5338 6 0.707069 0.629633 0.0506874 0 -1 3 
8064 6 0.441632 0.648788 0.00361636 -2 1 3 
6358 5 0.560006 0.686159 -0.000662828 2 0 6 
8003 6 0.862785 0.688215 0.030674 -2 -2 0 
7294 5 0.106319 0.686019 0.0130762 -1 2 5 
5257 5 0.56298 0.7112 0.019285 -2 4 1 
7100 6 0.999914 0.693063 0.0231295 -5 -1 7 
5909 5 0.936182 0.723521 0.0574936 1 4 2 
6772 5 0.626979 0.720063 0.00199791 5 3 3 
7582 5 0.106518 0.778969 0.0139265 -1 -5 2 
6533 6 0.624404 0.788168 0.977332 2 0 -2 
7365 5 0.803006 0.780327 0.00304997 4 2 -1 
6883 6 0.177519 0.801556 0.0277782 2 2 2 
5858 5 0.304875 0.819023 0.022782 -2 -4 5 
8317 6 0.541068 0.852613 0.997622 0 1 -3 
7896 5 0.957862 0.837718 0.00862399 7 -2 -2 
5030 5 0.677948 0.829087 0.0418607 3 5 -3 
5507 6 0.0528806 0.87909 0.988055 -3 0 -3 
7230 5 0.131811 0.842185 0.994377 1 1 10 
7642 5 0.301782 0.856711 0.971453 1 -2 -5 
5907 6 0.0851204 0.88873 0.013089 2 0 0 
6171 5 0.986465 0.871187 0.00865312 -2 -6 3 
7817 6 0.272981 0.859454 0.0153635 3 8 -3 
5764 6 0.264714 0.925422 0.982612 0 0 0 
5290 6 0.397981 0.877366 0.0180842 -3 -2 4 
7903 5 0.870716 0.904095 0.00694591 2 7 2 
6275 5 0.0170875 0.91563 0.0152236 1 0 -2 
8601 6 0.14826 0.905994 0.0169188 -2 2 -2 
6007 6 0.166599 0.924383 0.961564 8 1 -4 
8225 6 0.682122 0.923064 0.987031 1 -1 -1 
7869 5 0.407055 0.966278 0.0243498 0 3 1 
6396 5 0.451795 0.965813 0.0299876 8 -3 2 
5559 6 0.464952 0.963766 0.00852797 -3 -4 1 
5959 6 0.798295 0.944257 0.986044 3 -2 -1 
7907 5 0.853437 0.972988 0.0339394 -2 -5 3 
5599 6 0.845853 0.951481 0.984256 3 0 3 
5110 5 0.552619 0.957222 0.988994 1 0 -4 
7890 6 0.674429 0.00962701 0.000746738 2 -2 5 
5946 5 0.733637 0.954753 0.0427685 0 2 6 
5109 6 0.436102 0.00748045 0.983848 3 1 1 
5499 5 0.643086 0.974648 0.0296412 3 -1 5 
5010 5 0.676167 0.995729 0.0296065 1 1 -1 
6204 5 0.575478 0.0111139 0.0268054 0 2 -2 
6397 6 0.96754 0.981188 0.032376 -2 -2 -1 
5106 5 0.253945 0.0306841 0.98496 0 0 2 
6074 5 0.95916 0.0263002 0.0995206 1 0 1 
8073 5 0.74403 0.0447582 0.0333945 3 2 3 
8445 5 0.922007 0.0681657 0.0576992 0 -1 -1 
8961 6 0.724395 0.0687875 0.0547239 8 -3 2 
5324 5 0.489095 0.0680667 0.0412886 2 -2 1 
8500 5 0.985257 0.105407 0.994105 2 -3 -4 
8748 6 0.577943 0.117957 0.996664 2 -5 1 
5989 5 0.884908 0.172049 0.0270981 0 1 1 
7802 5 0.158943 0.132246 0.0394276 -3 -5 1 
6654 6 0.885529 0.130991 0.0175587 -2 -1 -3 
7408 6 0.74117 0.188314 0.0182314 -5 -6 1 
6412 6 0.837184 0.165977 0.0234247 -1 -2 -3 
5255 5 0.947258 0.167442 0.985499 1 3 2 
8310 6 0.782956 0.206702 0.0305269 0 5 -2 
7343 6 0.575414 0.203539 0.0230281 -2 0 5 
6465 6 0.637933 0.235637 0.0354153 -7 -3 0 
6544 5 0.0691126 0.206585 0.0250989 1 3 1 
8009 6 0.913479 0.26123 0.0129778 0 5 4 
8102 6 0.7677 0.263146 0.0323989 -6 3 0 
8976 6 0.922977 0.257011 0.0604851 -9 1 5 
8451 5 0.262719 0.273555 0.0392155 1 3 1 
7071 5 0.297305 0.234385 0.0778049 4 -4 -2 
6134 5 0.400827 0.34688 0.0123457 -4 0 -2 
5679 6 0.76967 0.29135 0.0488763 -2 3 2 
6067 6 0.833012 0.31806 0.0315945 2 2 -4 
5936 6 0.211241 0.302882 0.0415253 4 -1 -1 
8617 5 0.308195 0.302026 0.0196474 -4 1 -1 
6805 6 0.317572 0.29784 0.0517092 4 0 -1 
7920 5 0.284065 0.275622 0.0292821 2 0 1 
7353 5 0.488534 0.359015 0.014981 1 -3 -1 
6765 6 0.547279 0.327724 0.0573587 -1 0 1 
8914 6 0.0488953 0.33435 0.0477058 3 0 0 
6721 5 0.0670412 0.342189 0.0190711 -1 0 0 
5298 6 0.143074 0.362265 0.0429092 2 1 8 
7191 6 0.14234 0.345768 0.0332972 0 2 1 
5908 6 0.610208 0.397816 0.0154787 5 -2 -1 
5829 6 0.69212 0.382978 0.0239046 -2 0 1 
7308 6 0.141526 0.432879 0.0324702 -2 0 0 
7571 5 0.130396 0.46318 0.997012 -1 -2 3 
7165 5 0.202088 0.456525 0.00402666 -3 -1 -1 
6060 6 0.627697 0.429931 0.0217284 2 -2 3 
6487 6 0.665307 0.411012 0.0570677 1 5 -1 
7695 5 0.924817 0.458281 0.0227369 -4 0 1 
6616 6 0.593418 0.417998 0.0611036 -1 2 -3 
8255 5 0.639215 0.444158 0.0638572 5 0 0 
7926 6 0.78901 0.425926 0.0523663 -2 -3 -3 
7782 6 0.806714 0.470736 0.0237873 4 -5 2 
8316 6 0.270776 0.514795 0.0189936 -1 4 -3 
8558 6 0.555497 0.454761 0.0778868 -3 4 -6 
6790 6 0.533711 0.561575 0.0708852 -5 -2 -2 
8185 6 0.0962934 0.597841 0.0303315 2 -2 -3 
8414 6 0.360229 0.642549 0.0411196 1 1 3 
8447 6 0.825459 0.598916 0.000263364 3 10 2 
7334 6 0.106768 0.628846 0.0352776 3 3 -3 
5818 5 0.38593 0.626904 0.0458912 -2 4 -1 
5351 5 0.49213 0.642452 0.0196012 -1 1 1 
5078 6 0.831678 0.621676 0.0530794 0 1 -2 
7189 5 0.791343 0.6271 0.0200334 3 -1 1 
6269 6 0.93502 0.638592 0.0334798 -2 -3 -2 
5579 5 0.988363 0.626029 0.0478579 1 -6 0 
6332 6 0.98627 0.659908 0.0252908 0 -1 0 
7877 5 0.753152 0.643845 0.0452889 2 1 1 
8163 6 0.0876422 0.665598 0.0558949 1 2 1 
5209 6 0.279283 0.615791 0.0186817 0 -1 0 
6592 6 0.372272 0.66681 0.0187906 -1 -1 7 
7835 6 0.497437 0.687283 0.0527237 1 -8 -3 
7485 5 0.7579 0.673568 0.0642064 -3 -1 2 
8108 5 0.660792 0.71923 0.982085 3 -1 2 
7831 6 0.926884 0.699348 0.0366908 3 0 3 
5662 5 0.951363 0.705967 0.0521385 -1 1 5 
6161 5 0.664259 0.739709 0.0369171 -2 2 0 
6301 5 0.86434 0.712963 0.000208008 -5 3 -4 
5955 6 0.947208 0.747236 0.0518635 -6 -6 -4 
8145 6 0.881453 0.763473 0.00201018 -2 -4 -3 
7203 5 0.477176 0.8104 0.998228 -10 2 -7 
8842 6 0.611277 0.79519 0.00182447 0 0 1 
6374 5 0.750588 0.806749 0.0336196 -2 0 1 
7369 5 0.260748 0.836933 0.0326003 0 -2 -4 
5105 6 0.330439 0.834599 0.97958 2 0 -1 
6865 5 0.0873503 0.795869 0.0142994 4 2 -4 
8690 6 0.189442 0.817035 0.0362225 2 -1 -2 
8768 6 0.260995 0.808356 0.0666348 -2 -1 5 
7814 6 0.420479 0.829433 0.0015286 1 0 5 
5886 6 0.558689 0.847222 0.00500836 -2 0 3 
6101 6 0.923159 0.843664 0.0232769 -3 1 -3 
8525 6 0.193408 0.850758 0.0583661 5 -5 0 
7906 6 0.0549058 0.87113 0.073261 -1 -9 1 
6232 6 0.428024 0.847307 0.0521613 -1 -1 4 
6875 6 0.474904 0.875001 0.0188929 3 -2 3 
8720 5 0.185544 0.88653 0.00287578 -2 -4 1 
7008 6 0.356778 0.962432 0.0435906 2 5 3 
6545 6 0.629971 0.927984 0.0427611 1 2 -1 
7461 6 0.788086 0.918003 0.0356694 1 1 1 
7481 6 0.00199422 0.993257 0.0397094 2 -1 0 
8233 5 0.133353 0.976197 0.0446925 2 -2 0 
5038 5 0.446032 0.967408 0.0173375 4 -3 3 
7108 6 0.0207207 0.953051 0.0337921 4 1 1 
6310 5 0.278096 0.932044 0.0159522 3 -5 5 
7402 6 0.869728 0.966529 0.0193894 1 -1 -4 
8932 6 0.885345 0.963676 0.0281845 -2 -3 -3 
8937 5 0.324031 0.975863 0.0579794 1 -3 1 
6527 6 0.494756 0.991574 0.988771 -1 4 2 
6459 5 0.817535 0.0124669 0.0266637 2 -3 1 
8503 5 0.889414 0.959425 0.0441007 -1 8 1 
5763 6 0.0335785 0.0391724 0.0531217 1 0 -2 
8766 5 0.261342 0.0663788 0.0493741 -1 0 1 
7027 5 0.385831 0.981749 0.0839609 0 -4 0 
6336 6 0.904786 0.0413274 0.0898456 2 -3 4 
8150 6 0.0160492 0.0410162 0.059384 0 -4 -1 
7966 6 0.353646 0.054937 0.0787932 0 0 2 
5707 5 0.311639 0.0735136 0.0965321 -4 -3 1 
5191 5 0.719228 0.0791652 0.00609003 1 -1 5 
7039 5 0.308911 0.0665801 0.0387136 2 3 1 
5953 6 0.43177 0.114771 0.0697447 -1 0 1 
7930 5 0.464203 0.16245 0.0326538 3 -3 0 
8072 6 0.681794 0.125784 0.0434463 0 -3 -1 
5201 6 0.779735 0.104889 0.0302413 -9 1 1 
5948 5 0.779313 0.129224 0.0464086 -4 -3 3 
6289 6 0.231926 0.14696 0.0955823 -2 6 6 
5308 5 0.411868 0.173805 0.0800675 2 2 0 
6167 5 0.621617 0.170413 0.0850105 0 9 0 
7990 6 0.827184 0.176776 0.0376474 0 -3 3 
5003 6 0.937956 0.17995 0.0745827 2 3 1 
7318 6 0.939624 0.159952 0.0455627 -1 1 4 
5315 5 0.061996 0.188803 0.0787042 4 -3 7 
7614 5 0.832144 0.180046 0.0804016 -1 3 0 
5820 5 0.63805 0.206867 0.0691254 0 1 -7 
8864 6 0.189181 0.226545 0.0130831 3 0 2 
7199 5 0.0684835 0.232943 0.0726418 -2 -5 2 
7354 5 0.706088 0.245606 0.0525133 0 -4 0 
8418 5 0.8634 0.229235 0.0951675 2 3 2 
8696 6 0.606054 0.274951 0.0498132 -2 5 3 
8974 5 0.687373 0.297009 0.0503122 0 4 -2 
5219 6 0.715983 0.336639 0.0652747 -4 -3 1 
7160 5 0.752381 0.304647 0.0453909 -4 -1 2 
6885 6 0.211279 0.324173 0.0454469 4 1 -1 
7003 6 0.817227 0.397905 0.100835 2 -4 2 
7744 6 0.172366 0.378444 0.0985535 3 -1 -4 
8548 5 0.83612 0.420138 0.0701198 -2 -2 3 
6005 5 0.690914 0.448649 0.0522351 3 -1 4 
8172 6 0.875412 0.415692 0.0700401 -4 -1 2 
5465 6 0.334496 0.480503 0.0889799 0 6 5 
5840 5 0.661919 0.468019 0.0644558 3 0 -3 
7776 5 0.0261601 0.47833 0.0645083 -2 3 3 
6100 6 0.851016 0.546012 0.0491347 -1 1 5 
6175 5 0.36053 0.570254 0.100596 -3 0 0 
5077 5 0.171798 0.57782 0.00911129 0 -2 5 
5593 5 0.787034 0.589657 0.0896718 1 -2 0 
8318 6 0.795594 0.583578 0.0728075 -1 -6 2 
7176 5 0.456137 0.557824 0.0698021 4 2 -2 
6826 5 0.182554 0.646213 0.0360258 -4 0 5 
8237 6 0.926705 0.651844 0.0915386 0 -4 -3 
7445 6 0.183004 0.66348 0.07948 0 -1 -3 
5399 6 0.330864 0.693916 0.0462225 0 -2 0 
6012 5 0.509153 0.708725 0.0559223 2 -2 2 
7268 5 0.138788 0.703205 0.054237 -3 -3 -7 
5825 6 0.498314 0.715301 0.0699055 -4 3 -2 
7261 5 0.968966 0.714135 0.0799431 -2 1 -1 
7275 6 0.173296 0.734578 0.0176953 5 0 0 
5306 6 0.84474 0.770737 0.0804442 2 -1 -3 
6559 6 0.369373 0.752647 0.0721017 6 -3 4 
6518 6 0.0455747 0.843287 0.0557484 -5 1 4 
6913 5 0.244278 0.8661 0.0727412 -2 1 -1 
6026 5 0.0208207 0.946868 0.0616948 0 0 -4 
6921 6 0.0767772 0.935295 0.103627 -4 0 4 
6088 6 0.666129 0.93468 0.10735 0 -2 1 
7427 6 0.760195 0.941095 0.0632339 6 -4 2 
7659 5 0.600205 0.937276 0.0664152 -2 -1 3 
6827 6 0.370495 0.938912 0.0498315 4 0 -3 
5627 6 0.89774 0.959774 0.0150173 3 -3 -6 
6214 5 0.677826 0.00591808 0.0424535 7 -2 -4 
8714 6 0.173643 0.00659668 0.0736936 3 0 -5 
8632 5 0.43016 0.0449769 0.054981 4 0 2 
5508 5 0.844853 0.0285055 0.100482 -1 -1 -2 
6271 6 0.466582 0.0203947 0.0525246 -1 -1 3 
6821 5 0.247045 0.110985 0.113765 -4 1 -4 
6674 6 0.388105 0.0556506 0.0961042 2 -1 3 
8019 6 0.461879 0.0909322 0.0649467 -1 -1 -2 
7356 5 0.517298 0.106991 0.0900211 1 0 4 
8143 6 0.884981 0.0939059 0.0985818 -4 -2 4 
8177 6 0.571795 0.129284 0.0743519 -3 -2 2 
5882 5 0.910067 0.104371 0.0593253 -6 3 5 
6077 6 0.130346 0.131672 0.0922422 4 2 2 
6490 6 0.455434 0.169402 0.0664442 1 1 0 
8731 6 0.724403 0.144744 0.0782277 3 5 -6 
7561 6 0.0453179 0.192729 0.0877273 0 0 4 
8535 6 0.0824222 0.17282 0.0860152 -4 8 1 
8640 6 0.382221 0.200599 0.0680303 1 1 5 
6246 5 0.862561 0.171018 0.072548 -1 -1 4 
6856 5 0.783182 0.218913 0.0583114 -4 -3 -3 
6569 5 0.798581 0.211155 0.0829621 2 0 2 
8627 5 0.36788 0.283107 0.0848286 1 0 -3 
6126 6 0.587965 0.302543 0.10286 0 -1 4 
5394 5 0.586969 0.215862 0.0843975 0 -1 2 
6668 5 0.933627 0.273097 0.0866291 -3 -6 0 
8490 6 0.0190626 0.291636 0.0504627 -2 5 0 
6548 5 0.585527 0.294895 0.0619576 0 -2 -5 
6732 5 0.91424 0.311818 0.103337 0 -5 -2 
8555 5 0.111773 0.370202 0.139863 1 7 4 
5854 5 0.0609542 0.352106 0.0972953 1 -4 -4 
8928 6 0.338766 0.355701 0.0631032 -7 0 -2 
5186 6 0.814654 0.392914 0.0831491 -1 1 -3 
8606 6 0.265875 0.359212 0.0872796 1 3 -1 
5483 5 0.75986 0.392281 0.0577845 -1 -2 4 
8261 6 0.0760035 0.410559 0.0810344 -3 1 0 
8918 6 0.976435 0.451745 0.108085 1 1 0 
6778 6 0.451151 0.475237 0.0741737 3 -2 4 
7089 5 0.783043 0.420185 0.0644154 0 -5 -2 
6084 6 0.757517 0.441073 0.0570759 -1 4 -3 
8338 6 0.781263 0.453179 0.0627122 -4 -3 -3 
5461 5 0.892463 0.500539 0.0863883 0 -5 -3 
5044 5 0.579173 0.514289 0.0754333 0 1 0 
7252 5 0.539614 0.54912 0.0732601 -3 1 -1 
5844 5 0.526523 0.515308 0.067452 0 2 -1 
7922 5 0.589648 0.541736 0.0562721 -4 -1 3 
7168 5 0.345561 0.59326 0.108948 -1 1 1 
5405 6 0.755567 0.524694 0.0756857 -1 -1 3 
6632 6 0.967303 0.581905 0.0659409 1 -5 -2 
5910 6 0.834308 0.62201 0.0699466 -1 -5 1 
5448 6 0.960952 0.671827 0.0722602 -3 -1 -4 
6771 6 0.451232 0.703587 0.10437 1 0 0 
5204 6 0.0156411 0.695549 0.0402286 1 -3 0 
5396 5 0.596807 0.702472 0.0854474 -2 -4 -5 
5222 6 0.668834 0.701745 0.0675946 2 -2 1 
7824 5 0.166947 0.722697 0.0859013 -3 -1 -1 
7054 6 0.666924 0.715821 0.0654906 -1 2 1 
6598 5 0.779761 0.762452 0.0906097 4 -1 -1 
6270 6 0.793568 0.74337 0.0673472 1 -3 -3 
5254 6 0.539666 0.800655 0.0994352 -2 5 -1 
6630 6 0.704976 0.83246 0.0679222 6 0 -3 
8284 5 0.272659 0.830327 0.0907724 -1 0 2 
8511 5 0.40238 0.845994 0.0894349 -4 2 5 
6170 5 0.0602638 0.838673 0.0494801 -3 3 -2 
8562 6 0.203952 0.838387 0.0977465 -7 -3 -5 
7957 5 0.463134 0.887186 0.0853687 0 -3 -1 
5337 6 0.64889 0.840351 0.0821376 2 -5 0 
5243 6 0.869765 0.900777 0.0425342 5 1 3 
7938 5 0.912613 0.891234 0.0939996 -2 2 -4 
6763 6 0.319628 0.886893 0.110359 -2 1 -2 
5619 6 0.879801 0.88459 0.0752214 0 1 4 
7086 5 0.470839 0.906127 0.0635885 3 1 2 
8857 6 0.751252 0.930997 0.0704264 3 -2 -2 
7544 6 0.0312887 0.923224 0.107479 1 -1 2 
5428 6 0.512255 0.947825 0.0574528 -2 -3 1 
6864 6 0.603819 0.973089 0.105133 -1 2 -5 
6838 6 0.804038 0.968836 0.0591453 4 -1 -3 
6501 6 0.792745 0.996782 0.112716 1 2 -5 
7333 6 0.322713 0.0313321 0.0621667 2 -1 -3 
7211 5 0.34933 0.0704138 0.0842729 -1 -1 -1 
5827 6 0.577447 0.0363296 0.109481 -3 1 3 
8014 5 0.683721 0.0547022 0.00954916 -2 3 0 
8876 5 0.754521 0.0396736 0.102313 -6 1 1 
6621 6 0.619434 0.0429797 0.0678741 -1 -6 5 
7951 5 0.610309 0.0628676 0.0814955 -3 -1 5 
7689 5 0.360961 0.108276 0.0911059 1 -2 -2 
7495 6 0.870702 0.086595 0.114667 1 7 5 
5322 5 0.925054 0.123599 0.109169 0 3 -4 
6325 6 0.345679 0.11659 0.0821196 6 3 2 
5122 6 0.587271 0.159542 0.10436 -4 -1 4 
5676 6 0.650253 0.148865 0.111288 1 0 2 
5276 6 0.72372 0.16324 0.0974083 3 1 -1 
7830 5 0.969494 0.158539 0.105618 -3 -2 7 
8934 6 0.198772 0.159222 0.104505 1 -3 1 
5816 6 0.18451 0.172266 0.0871092 2 -2 -1 
8756 5 0.880821 0.201771 0.116793 0 -5 -9 
7531 5 0.334359 0.209301 0.120646 2 -2 4 
7905 6 0.911226 0.235213 0.103789 1 1 0 
6620 5 0.888669 0.229237 0.0971056 -2 -1 4 
7911 5 0.229509 0.204127 0.0900645 7 3 -2 
5584 5 0.0991301 0.282079 0.106024 -2 -1 -4 
6247 6 0.529723 0.273115 0.116949 -2 4 0 
6923 5 0.8314 0.25428 0.0826343 2 -2 0 
8613 6 0.905071 0.241903 0.0876693 -1 -2 3 
5954 6 0.121582 0.339668 0.144192 -1 5 0 
8437 6 0.573948 0.354259 0.115082 2 4 -1 
6368 5 0.130172 0.399042 0.119185 -3 6 4 
8147 6 0.565839 0.390583 0.121219 -1 -4 -2 
8029 6 0.257674 0.417537 0.121535 3 -2 -5 
6180 6 0.212161 0.444928 0.122809 4 -3 0 
6173 5 0.425914 0.416527 0.126642 6 6 6 
8299 6 0.975134 0.532136 0.110852 -4 -4 -1 
7816 5 0.0602965 0.503866 0.105406 3 -4 2 
8270 6 0.564809 0.557578 0.0997942 1 0 -2 
5783 5 0.590745 0.562001 0.12769 2 -4 6 
6015 6 0.440912 0.535621 0.110953 -2 2 3 
8478 5 0.417677 0.587595 0.151733 0 -2 3 
8415 6 0.809366 0.592889 0.079994 -3 -6 2 
6982 6 0.261154 0.612465 0.143563 1 0 0 
7416 6 0.474404 0.637638 0.0956487 -4 -1 0 
7769 6 0.475594 0.545738 0.10014 -1 -4 -1 
8547 6 0.691593 0.598677 0.0457003 -5 -2 -2 
6070 5 0.988312 0.606115 0.117176 -1 -2 -1 
5066 5 0.42739 0.62348 0.0748892 -3 -2 -7 
6051 6 0.729205 0.605303 0.135443 3 0 1 
5992 5 0.755349 0.597574 0.0912023 -1 -4 1 
7106 6 0.33547 0.635266 0.103385 -2 -2 5 
5193 5 0.218031 0.662004 0.0913465 0 -1 1 
6404 5 0.287458 0.651133 0.0739033 0 1 -2 
7690 5 0.215676 0.688988 0.132764 0 -4 -4 
7716 5 0.312773 0.699814 0.0376224 -2 6 1 
8149 6 0.804696 0.687903 0.124486 -7 2 3 
5999 6 0.881485 0.726366 0.104891 1 -1 1 
8549 6 0.14812 0.724288 0.0988671 2 -3 3 
6182 5 0.514761 0.716552 0.156774 0 -1 4 
7193 6 0.533516 0.77634 0.132427 1 4 -2 
6626 5 0.251184 0.738337 0.0495227 -1 -2 0 
5377 6 0.312785 0.775952 0.0968909 -5 1 0 
7999 6 0.432261 0.724781 0.100177 -1 2 4 
7584 5 0.502174 0.74925 0.0597263 2 -4 -1 
6054 6 0.580571 0.765174 0.139754 -2 -5 2 
8422 5 0.613319 0.79446 0.0825904 6 2 -3 
8396 5 0.981648 0.817746 0.0900346 -1 -8 1 
6597 5 0.350751 0.843727 0.12727 -3 1 -2 
7117 6 0.994876 0.856471 0.0881941 -1 -4 2 
7397 5 0.979589 0.855971 0.13751 4 0 -2 
8087 5 0.903928 0.89565 0.0607841 2 -1 2 
7997 5 0.374567 0.907143 0.0966463 5 1 1 
6424 5 0.486266 0.914571 0.113801 -1 2 -1 
6506 6 0.399296 0.917536 0.101824 3 0 -4 
6556 6 0.887834 0.922932 0.107325 1 -1 0 
8438 5 0.576584 0.961184 0.10913 4 -1 3 
7437 6 0.585808 0.987426 0.0902633 5 -2 0 
6333 5 0.762661 1.00083 0.103638 4 -2 -2 
5317 6 0.945817 0.969352 0.103313 -1 5 3 
8249 5 0.0867234 0.0327596 0.101916 0 1 -2 
7771 5 0.191465 0.0435354 0.142759 2 -3 -1 
7702 5 0.726879 0.0578422 0.119143 -2 4 0 
7177 5 0.0715415 0.0493499 0.116238 0 1 2 
8571 6 0.299775 0.0818677 0.136933 1 0 4 
7864 5 0.825227 0.0430885 0.0943525 4 1 1 
6002 5 0.0467048 0.0697054 0.100421 2 3 2 
8812 5 0.164601 0.119096 0.100235 -5 1 -2 
6949 6 0.364076 0.154038 0.114298 3 4 6 
7963 6 0.442875 0.111677 0.141818 0 3 3 
7530 6 0.613016 0.139319 0.0934749 1 2 2 
6194 6 0.93378 0.0836967 0.146705 -2 2 1 
8349 6 0.0128344 0.119327 0.160688 4 -1 2 
6315 6 0.991091 0.132816 0.146538 2 -6 2 
6553 5 0.585325 0.166048 0.135416 5 4 4 
6877 5 0.868734 0.189297 0.123043 -1 -2 1 
7693 6 0.405623 0.19271 0.100238 2 1 3 
8219 6 0.48472 0.215149 0.0971354 -4 -2 -1 
5244 6 0.746583 0.260371 0.0995994 -2 -3 -6 
5414 5 0.785795 0.17212 0.164675 -1 -1 1 
8039 6 0.602288 0.267487 0.115186 3 5 7 
7870 5 0.409936 0.291091 0.133991 4 -2 -6 
7650 6 0.761243 0.270076 0.16001 1 -2 2 
6207 5 0.831868 0.284398 0.139994 1 -1 -4 
8258 6 0.0569849 0.319029 0.0857691 4 3 3 
7320 6 0.861404 0.354283 0.11007 -3 -1 -3 
5313 5 0.896104 0.341534 0.15391 5 -3 -3 
5730 5 0.386522 0.365787 0.1297 -1 4 3 
8550 5 0.977402 0.388712 0.0938173 -4 -2 3 
8830 5 0.403708 0.36843 0.113938 -1 -1 4 
7148 5 0.431593 0.344517 0.129851 0 2 -2 
6323 5 0.824304 0.422497 0.109983 2 0 -3 
8710 6 0.681364 0.456889 0.14295 1 0 -3 
8895 6 0.161009 0.427405 0.105155 3 0 -3 
7552 6 0.178439 0.434451 0.127754 -2 4 2 
5893 6 0.0352964 0.509891 0.094508 -2 -4 1 
8377 5 0.855987 0.517934 0.0853755 -1 3 4 
6225 6 0.764623 0.526936 0.119738 -2 6 -1 
5767 6 0.801621 0.505626 0.101347 -7 -2 0 
5323 6 0.0303876 0.517901 0.0742738 -1 -9 1 
7179 6 0.598861 0.506236 0.150691 -5 4 0 
6181 6 0.645592 0.531997 0.143046 -2 3 5 
5346 6 0.595501 0.560594 0.0982562 3 -6 -1 
8400 6 0.0978379 0.590016 0.120307 2 -1 -2 
6521 5 0.804197 0.58613 0.136584 -2 -2 -1 
6146 5 0.868196 0.608452 0.112079 -4 -4 -3 
7727 6 0.474457 0.608537 0.148639 -2 1 -3 
7780 6 0.770237 0.626 0.146615 -2 -1 -2 
7049 5 0.00312543 0.656091 0.137688 -1 -1 -3 
7949 5 0.893845 0.63763 0.104215 -1 1 2 
7292 6 0.122747 0.682088 0.127605 3 3 -1 
8113 5 0.671094 0.651204 0.149845 0 -2 4 
8269 5 0.179394 0.726694 0.12034 5 0 -3 
8129 6 0.128126 0.749184 0.121823 6 -3 4 
7539 6 0.903095 0.722243 0.0950347 -1 9 2 
8989 6 0.994248 0.748692 0.0888533 0 -2 4 
5065 5 0.909107 0.786737 0.105896 -2 -3 9 
6839 6 0.00489576 0.850537 0.0698451 0 0 3 
8188 5 0.0302048 0.772676 0.129565 0 -5 0 
6793 5 0.639679 0.800052 0.122497 1 4 -1 
5480 6 0.162485 0.832035 0.170016 -2 -2 6 
7935 5 0.237526 0.865009 0.139932 2 -3 -5 
7362 5 0.340996 0.825879 0.111595 2 -4 1 
5197 6 0.469467 0.861162 0.124659 -3 1 -4 
8260 6 0.0650249 0.881576 0.129244 -5 4 4 
6409 5 0.821266 0.861333 0.0940369 -3 2 0 
5935 5 0.0154221 0.864673 0.114776 5 2 3 
7886 5 0.997337 0.9048 0.119099 -3 2 4 
8905 6 0.438 0.867565 0.112295 2 1 0 
6477 6 0.549575 0.92456 0.128274 4 -3 6 
5538 5 0.0229301 0.919205 0.121629 2 -5 -2 
7532 6 0.099007 0.962268 0.107239 3 -2 -1 
5915 5 0.635076 0.981614 0.134351 0 -2 4 
7743 6 0.481136 0.997772 0.115126 0 -5 0 
7524 5 0.426068 0.00368299 0.167636 3 -6 -3 
8493 5 0.824125 0.0299912 0.157777 -3 0 4 
5828 5 0.966956 0.0421943 0.140089 -1 0 2 
6348 6 0.342389 0.0585075 0.151272 -4 1 -2 
8360 5 0.479255 0.0264405 0.118087 1 2 -7 
6891 5 0.503875 0.00745822 0.165205 3 2 -1 
8721 6 0.981227 0.0499265 0.145634 0 0 5 
6216 5 0.591249 0.140889 0.158789 -4 -2 -1 
5060 5 0.259084 0.131421 0.173467 0 -2 3 
6014 6 0.39293 0.117061 0.141887 -3 1 6 
7904 5 0.3635 0.101083 0.142863 5 1 -1 
6867 6 0.388532 0.0932732 0.146817 3 1 1 
8845 6 0.835816 0.153039 0.165468 -2 -3 -1 
6611 6 0.888129 0.0485017 0.144628 0 2 -1 
5284 5 0.350877 0.143743 0.117034 -1 -2 1 
6151 5 0.388954 0.137669 0.111049 3 -1 1 
7921 6 0.216749 0.195013 0.130515 -2 1 -3 
6873 6 0.715905 0.164355 0.124338 -1 0 -6 
7618 5 0.628214 0.196131 0.157886 -3 1 1 
5765 6 0.650893 0.192288 0.141637 3 5 1 
8920 6 0.283085 0.219798 0.126488 0 2 3 
6399 5 0.671892 0.198137 0.146392 -1 8 -1 
6119 5 0.721813 0.180543 0.134106 -5 -1 -5 
5841 6 0.96209 0.246584 0.139612 3 -2 1 
7569 5 0.638202 0.205824 0.14625 -3 0 -2 
5855 6 0.675995 0.243658 0.151559 1 -6 -4 
8263 5 0.853246 0.256921 0.140069 0 0 8 
6677 6 0.881759 0.217938 0.163668 -4 -3 1 
7251 5 0.169455 0.236663 0.145694 1 0 -2 
5455 5 0.0712654 0.317829 0.136164 4 0 2 
7474 6 0.13932 0.276944 0.152782 3 -2 1 
7153 5 0.394457 0.294961 0.153346 1 -2 -2 
5126 5 0.0757884 0.298007 0.125545 -1 1 -2 
8504 6 0.019909 0.359358 0.126352 -1 6 2 
5147 6 0.457072 0.365622 0.11827 0 2 0 
8421 5 0.80804 0.353829 0.136034 -3 0 -3 
7753 6 0.0103901 0.406805 0.107623 -2 3 1 
7180 6 0.63837 0.418563 0.150755 4 0 -5 
7967 5 0.490226 0.405005 0.14244 1 -1 -1 
6292 5 0.545667 0.409838 0.154067 2 1 -2 
5641 6 0.89505 0.426962 0.146182 -1 0 -6 
7441 6 0.929165 0.435355 0.153994 -4 -1 3 
7644 5 0.885961 0.480909 0.200669 2 -6 2 
8088 6 0.511603 0.488832 0.165554 1 1 0 
8037 6 0.585022 0.475676 0.147812 0 7 2 
6634 6 0.676517 0.466488 0.149022 -1 0 -4 
7374 5 0.84266 0.504854 0.13766 0 1 -1 
5550 6 0.983588 0.507351 0.152843 -6 0 5 
7651 5 0.51792 0.477341 0.134206 -2 -5 -5 
8576 5 0.853596 0.55311 0.104396 4 -1 2 
7335 5 0.169149 0.563394 0.163665 2 1 -1 
5974 6 0.845544 0.578633 0.132404 -3 1 -1 
6135 5 0.803166 0.579002 0.14093 2 4 1 
7795 6 0.369828 0.647665 0.13365 -2 -2 -1 
7164 6 0.622322 0.678363 0.124201 -3 3 1 
7638 5 0.619478 0.659269 0.167014 1 1 -3 
8846 5 0.890021 0.687507 0.16362 -1 -2 -1 
6847 5 0.229996 0.702031 0.161807 2 -1 -1 
6958 5 0.296854 0.738159 0.188965 2 -5 2 
6454 6 0.923621 0.7248 0.122778 -3 2 -3 
6636 5 0.168459 0.759358 0.10758 -3 4 2 
7155 5 0.226455 0.707388 0.117501 1 -4 2 
5751 6 0.416827 0.699094 0.150566 0 1 2 
7223 6 0.5355 0.833716 0.195536 -1 -2 1 
6179 5 0.91954 0.804507 0.130389 -4 0 -1 
8164 5 0.257823 0.841756 0.157854 -1 -5 2 
6646 6 0.205334 0.842466 0.167166 4 -5 1 
6140 6 0.619857 0.913677 0.151114 2 0 0 
5706 6 0.963166 0.938299 0.148339 1 -4 4 
5912 5 0.0831098 0.95983 0.179794 1 5 -5 
6901 5 0.74938 0.960043 0.140614 0 2 4 
7579 5 0.936676 0.9629 0.168622 -1 -1 2 
8863 5 0.906549 0.93594 0.114618 -6 2 0 
6990 6 0.0261802 0.0272636 0.197696 0 -2 1 
6822 6 0.374072 0.0239152 0.152925 5 -3 -1 
7167 5 0.524173 0.973999 0.167815 -3 -1 6 
7124 5 0.499343 0.0368304 0.132302 -3 -5 1 
6201 6 0.0907505 0.00944381 0.192542 -2 1 3 
7360 6 0.656211 0.0203814 0.157331 0 0 -3 
6158 6 0.909105 0.0419099 0.185128 0 3 2 
5361 5 0.459802 0.0496592 0.174432 -2 0 2 
6157 6 0.765666 0.0535036 0.167554 0 2 -1 
6453 6 0.338575 0.0960219 0.0970047 3 1 4 
8801 6 0.567909 0.0686958 0.164721 -6 2 -2 
5896 5 0.646624 0.087191 0.14683 7 1 -2 
7401 5 0.743734 0.0795868 0.157649 3 4 0 
6400 6 0.00898743 0.114757 0.167328 -1 -3 -2 
7752 6 0.483975 0.0907813 0.153846 -3 -3 0 
7730 5 0.846199 0.125135 0.189508 -2 -2 0 
6584 6 0.876488 0.139041 0.222311 -1 -1 0 
5452 5 0.077746 0.136484 0.139688 3 1 -2 
6258 5 0.15676 0.169162 0.16026 3 -2 -4 
7363 6 0.502285 0.202902 0.153195 0 -3 -1 
7075 5 0.322049 0.221441 0.196541 2 1 3 
6020 6 0.362501 0.189037 0.159335 0 -1 0 
8635 6 0.399039 0.1884 0.170411 3 4 0 
7788 5 0.435711 0.208307 0.161076 1 0 2 
6529 6 0.645296 0.210835 0.138583 -3 8 -1 
8942 5 0.24915 0.246375 0.179144 -2 -2 2 
6994 6 0.177046 0.233726 0.176788 -7 -1 3 
8600 6 0.883004 0.242423 0.125767 2 2 1 
8856 6 0.972969 0.245759 0.215425 1 3 1 
7393 5 0.598308 0.288701 0.146501 -4 1 -1 
8998 6 0.0288832 0.294635 0.181972 3 -1 1 
7576 6 0.115513 0.336437 0.163493 -4 0 -4 
8775 5 0.222659 0.364785 0.17303 2 1 1 
5419 5 0.578752 0.375351 0.14417 -5 0 -3 
5623 5 0.256901 0.324253 0.155766 1 -4 1 
8852 6 0.904504 0.345627 0.146576 -1 -3 -1 
5666 6 0.0381103 0.366983 0.153573 -8 -2 1 
5806 6 0.15505 0.394569 0.179246 -1 1 1 
5429 5 0.179598 0.363254 0.171016 2 6 2 
8655 5 0.536639 0.359892 0.156807 0 0 3 
8331 6 0.735702 0.373198 0.175097 4 -3 0 
7708 5 0.340781 0.414018 0.163577 -1 3 -4 
5231 6 0.66563 0.398167 0.160088 4 -1 1 
6925 6 0.165104 0.41377 0.185534 1 -4 1 
6764 6 0.159673 0.451997 0.182203 -4 -4 -4 
7309 5 0.246291 0.47278 0.18831 -1 3 2 
8032 6 0.135869 0.455068 0.199748 -2 3 -3 
6001 6 0.729249 0.482141 0.185663 -3 -1 -4 
6926 6 0.0118111 0.530729 0.155094 1 0 -4 
6164 6 0.2528 0.56934 0.170745 -4 0 0 
6835 5 0.0907052 0.627987 0.163152 3 2 -1 
7439 5 0.439711 0.545713 0.184597 4 -3 2 
6619 6 0.624683 0.56925 0.191214 -1 0 -1 
7838 6 0.716049 0.565937 0.160393 1 4 2 
6044 5 0.532626 0.585366 0.209317 -2 3 4 
7414 6 0.18735 0.620391 0.154159 1 0 1 
5680 6 0.0678756 0.694604 0.190261 -4 -3 -3 
8345 5 0.165236 0.659156 0.155641 -2 -3 6 
8664 5 0.718009 0.662465 0.148842 3 2 0 
7095 6 0.745227 0.645821 0.165979 0 0 -2 
7580 6 0.0801608 0.692374 0.151592 0 -1 1 
7884 6 0.383968 0.648355 0.178554 2 -5 1 
6936 5 0.511858 0.700229 0.138339 3 0 2 
6306 5 0.616462 0.691888 0.194966 1 -4 -3 
8048 6 0.243101 0.730225 0.158646 4 -4 -1 
8784 6 0.872967 0.680507 0.19229 1 2 -1 
6162 6 0.794506 0.750291 0.167884 -5 3 5 
6467 5 0.364063 0.726604 0.150765 1 -1 -1 
7862 6 0.404146 0.786424 0.160195 -1 -2 3 
8008 6 0.16687 0.816626 0.168711 0 -3 1 
7846 6 0.687952 0.807193 0.142373 4 -3 -5 
6878 5 0.701292 0.795003 0.159964 0 0 -9 
8472 6 0.823434 0.836597 0.167442 -1 5 -1 
6031 6 0.588746 0.821424 0.18814 2 1 1 
5637 5 0.748239 0.859027 0.132516 0 2 2 
7031 6 0.142071 0.905344 0.208022 -1 -1 1 
8657 6 0.246948 0.85424 0.141891 1 3 -2 
8911 6 0.354913 0.861018 0.12891 -1 -4 0 
5068 5 0.598788 0.853338 0.164456 -2 -2 0 
6760 5 0.66114 0.851599 0.17864 -4 1 3 
7900 6 0.709339 0.915423 0.151058 -4 2 -2 
6664 5 0.752713 0.880386 0.143023 5 3 -9 
8069 6 0.753374 0.910219 0.199298 -1 -3 2 
5553 5 0.878281 0.864953 0.164984 -4 -1 -4 
6580 5 0.867011 0.951248 0.168891 1 2 -2 
7229 5 0.99357 0.95997 0.155191 2 -1 -1 
5527 6 0.13968 0.968084 0.17349 1 -8 4 
8968 5 0.655085 0.979401 0.20186 1 0 -2 
5368 5 0.160277 0.964012 0.168319 4 3 1 
7839 5 0.417918 0.939591 0.181278 1 -1 1 
8006 6 0.92824 0.969252 0.174829 6 1 5 
8954 5 0.315576 0.972845 0.216423 0 0 0 
5314 5 0.648081 0.983796 0.186036 -1 -6 0 
8605 5 0.842622 0.981426 0.167126 0 2 -1 
5151 6 0.0296953 0.98992 0.219248 -4 -5 4 
8560 5 0.294294 0.0218161 0.178463 3 -4 0 
5096 5 0.00298307 0.0513745 0.206125 1 -3 0 
6631 5 0.00885556 0.0112457 0.193088 0 1 -5 
6919 5 0.00667609 0.0399462 0.205226 3 4 2 
6918 6 0.292687 0.0524274 0.18062 2 -1 1 
6227 5 0.550485 0.0745334 0.207461 -1 4 1 
5295 5 0.690527 0.072757 0.140764 -2 3 2 
7233 5 0.661681 0.136711 0.186958 0 3 1 
5541 5 0.763959 0.0463849 0.196039 2 -2 -2 
5407 5 0.46538 0.0985833 0.189697 2 4 4 
6441 6 0.951002 0.0953053 0.172338 0 -1 -1 
6965 6 0.669096 0.119072 0.185547 -4 -2 1 
5715 5 0.708577 0.138024 0.183434 0 1 -1 
5386 6 0.387423 0.128169 0.193455 0 0 -5 
6943 5 0.977935 0.158197 0.205692 2 0 3 
5417 6 0.503671 0.13858 0.214131 1 0 -3 