ITEM: TIMESTEP
20000000
ITEM: NUMBER OF ATOMS
9000
ITEM: BOX BOUNDS pp pp pp
-75 75
-75 75
-75 75
ITEM: ATOMS id type xs ys zs ix iy iz 
8867 6 0.0866976 0.0116988 0.0301255 -1 -3 -3 
7659 5 0.418667 0.0162446 0.977661 3 -2 -1 
5455 6 0.303817 0.0834091 0.0626316 1 0 3 
8090 5 0.998711 0.0566131 0.987754 0 -3 0 
7235 6 0.748951 0.0560198 0.0309624 -1 1 3 
5744 5 0.342774 0.0647789 0.0114284 -3 5 0 
8770 5 0.412234 0.0596444 0.99645 3 -2 -4 
6797 5 0.964553 0.109321 0.0029859 -3 5 1 
6438 6 0.221288 0.0840758 0.012788 0 -2 5 
8190 5 0.0191396 0.150196 0.0423958 -3 0 -1 
5439 6 0.142607 0.14978 0.977288 4 2 -1 
7375 6 0.807691 0.122663 0.0236145 -5 0 1 
5823 5 0.458179 0.171838 0.0358918 -2 -4 -3 
5486 5 0.621387 0.1382 0.00290826 2 8 -3 
6624 6 0.90999 0.149022 0.0733137 0 -2 3 
6633 6 0.0324554 0.179946 0.0574503 2 1 -1 
5098 6 0.923809 0.22831 0.0379435 -2 -1 1 
6216 6 0.315137 0.232574 0.0180743 -2 -2 2 
6407 6 0.608578 0.240275 0.996194 -2 -1 -3 
6868 5 0.880436 0.192816 0.0142885 1 -2 4 
7550 5 0.00734336 0.247005 0.998608 0 0 0 
6171 6 0.297078 0.258779 0.00264067 0 0 0 
5202 6 0.213153 0.299783 0.0165073 -3 0 5 
7389 5 0.186565 0.276336 0.995943 -1 -1 4 
7180 6 0.201908 0.269947 0.0135675 -2 3 0 
7920 5 0.593857 0.26702 0.0324096 -1 -1 6 
6358 6 0.0922862 0.306254 0.0491066 -2 -4 -5 
7273 5 0.699081 0.298652 0.0509079 -1 0 -1 
8783 6 0.488165 0.322601 0.0480659 -2 2 0 
7209 5 0.678921 0.309506 0.985441 0 1 -4 
7631 6 0.701392 0.327868 0.0163327 1 -3 -2 
7362 5 0.732366 0.301896 0.0340407 2 -2 3 
7059 6 0.762665 0.377992 0.9966 -1 -1 0 
8007 6 0.930823 0.340241 0.00120537 0 -2 2 
5269 5 0.0579783 0.420414 0.0343255 -4 3 2 
7043 6 0.107218 0.396471 0.00687262 4 2 0 
6979 5 0.277423 0.383081 0.0462116 2 6 -3 
6679 6 0.180453 0.365434 0.0272507 0 0 -1 
7382 6 0.604899 0.412111 0.0295103 6 3 -1 
8247 6 0.0135321 0.410463 -0.000214906 -3 -4 0 
5596 6 0.0853416 0.441066 0.968753 1 6 -1 
6275 6 0.789203 0.432093 0.0247169 -6 -2 2 
6180 5 0.954342 0.408366 0.0359761 0 1 2 
7567 6 0.686579 0.439946 0.00936324 -3 0 1 
8782 5 0.175061 0.497203 0.0148645 2 3 1 
8519 6 0.709912 0.500732 0.0012295 4 1 6 
6685 5 0.740391 0.472264 0.016285 0 -1 6 
6473 5 0.32571 0.551191 0.0353516 2 3 -1 
7744 5 0.69779 0.55108 0.0249861 1 2 4 
8857 6 0.9068 0.524521 0.0430372 0 1 5 
8976 5 0.316123 0.545473 0.0278945 -1 -3 0 
7245 5 0.579323 0.562579 1.00031 3 -1 -1 
6179 6 0.22574 0.622067 0.974935 -1 2 -2 
7018 6 0.369983 0.63954 0.991529 -3 2 -5 
6657 6 0.670448 0.615983 0.996302 -3 -3 0 
5177 5 0.52887 0.652477 0.0540135 -2 3 1 
7208 5 0.898142 0.618337 0.0311908 3 3 -3 
7315 5 0.742842 0.656261 0.0167358 6 1 -2 
5507 6 0.728498 0.639205 0.0503519 -7 1 -2 
5188 6 0.520238 0.671202 0.0333998 2 -3 2 
7171 6 0.734012 0.706944 0.00287474 5 -1 2 
7329 5 0.037852 0.662319 0.0706347 -3 0 5 
8812 6 0.591607 0.675346 0.996725 1 1 -3 
6545 5 0.097163 0.726495 0.035851 -2 -7 1 
7157 5 0.592497 0.704906 0.996984 0 0 3 
7339 5 0.675325 0.711364 0.00344544 0 0 2 
7429 6 0.756118 0.711679 0.0170918 0 -1 2 
8415 6 0.839799 0.747336 0.0118147 0 -1 -2 
7791 6 0.66668 0.708755 0.001346 -1 3 3 
8916 5 0.777808 0.753312 0.977614 2 0 4 
7954 6 0.804638 0.746722 0.00814074 -2 0 -1 
6980 6 0.537436 0.785152 0.00981913 2 1 -3 
5427 6 0.446582 0.75482 0.0348071 0 0 -1 
6454 5 0.782532 0.790194 0.0410219 4 -2 4 
8266 5 0.842707 0.795296 0.0112083 4 4 6 
5307 6 0.11075 0.779909 0.989254 -2 3 4 
7395 5 0.830496 0.813191 0.0332219 -1 -4 4 
8289 6 0.0955074 0.828032 0.0367659 0 -5 0 
8629 5 0.139068 0.801798 0.00944686 -3 -1 -1 
8836 6 0.3524 0.812669 0.0244191 -3 -1 -2 
5595 6 0.73669 0.805154 0.00806109 -5 4 -2 
5887 5 0.0680864 0.863152 0.991283 1 -7 2 
7713 5 0.640955 0.850436 0.00573655 -2 1 5 
6923 5 0.333169 0.915891 0.0185058 1 -5 1 
7060 6 0.617263 0.918796 0.0150516 4 -2 -1 
7168 5 0.687866 0.890251 0.973712 1 -3 0 
5016 5 0.178678 0.945694 0.00750969 6 0 -3 
5032 5 0.88941 0.904927 0.0230784 -1 -1 -2 
7195 6 0.254746 0.959695 0.991036 1 2 2 
6752 6 0.672099 0.954219 0.969645 0 -2 3 
6916 6 0.474371 0.989105 0.0168449 -7 -2 3 
6512 5 0.953511 0.0331832 0.0199151 -1 3 4 
6599 5 0.132783 0.052998 0.0651544 -2 5 0 
6349 6 0.363606 0.0700624 0.0224735 -2 3 -1 
7977 6 0.626942 0.0421564 0.0412871 3 3 1 
5324 5 0.972253 0.0331979 0.0260551 -5 1 -2 
8031 6 0.410127 0.0987013 0.00560542 2 -4 2 
5015 6 0.498751 0.0353103 0.058868 2 0 2 
5945 6 0.60449 0.0792921 0.024446 1 -1 -3 
6357 5 0.0759981 0.101892 0.0167485 0 4 -4 
7904 6 0.12923 0.0815185 0.0303513 2 -3 -2 
6672 6 0.321988 0.134733 0.049322 2 0 -6 
5452 6 0.342097 0.10136 0.00211706 2 -1 0 
7533 5 0.429799 0.081965 0.0416743 -1 1 2 
7665 5 0.607269 0.100322 0.0129343 2 1 1 
6550 5 0.710792 0.107849 0.0443604 -2 -6 1 
6279 6 0.172094 0.125097 0.0794261 -2 5 6 
6745 6 0.806442 0.129469 0.0372996 0 -1 2 
7217 5 0.0896097 0.194036 0.0472359 3 0 -1 
6766 5 0.396313 0.179928 0.0407632 1 1 -2 
8851 6 0.0606301 0.229297 0.0167905 1 3 -1 
5254 5 0.323182 0.206957 0.021391 1 -6 1 
8717 6 0.582338 0.193324 0.0303084 -1 -2 -1 
8682 5 0.933061 0.209931 0.979278 -6 6 0 
8874 5 0.298563 0.276168 0.0485314 3 1 2 
5440 6 0.744825 0.290056 0.00997863 1 0 2 
7158 5 0.112377 0.27347 0.0308389 0 5 5 
7707 5 0.76849 0.274575 0.0386827 -4 2 -3 
7837 6 0.399648 0.288847 0.994785 5 2 2 
6593 5 0.658601 0.340381 0.0313178 -1 -1 -2 
6483 6 0.333193 0.338869 0.0485208 -3 3 -1 
5550 6 0.472857 0.310226 0.0104689 0 2 1 
8117 5 0.781674 0.321328 0.0601759 -7 0 2 
7717 6 0.00160485 0.322939 0.0578592 5 -3 8 
6800 5 0.0894859 0.360458 0.0371881 -1 -1 -1 
6151 5 0.498255 0.365993 0.0556856 0 4 4 
8212 6 0.507174 0.380919 0.0279771 2 1 1 
6855 5 0.727325 0.378212 0.0320773 -2 0 0 
8222 6 0.940052 0.368542 0.0430155 0 -3 4 
6074 6 0.0969573 0.410208 0.0847185 -5 3 1 
6103 5 0.430027 0.460147 0.049597 -1 5 2 
5404 5 0.380104 0.420085 0.0555174 -3 0 3 
6430 5 0.153647 0.456669 0.057399 -1 3 2 
5231 5 0.456193 0.419356 0.0310494 -2 -2 4 
8179 6 0.979328 0.464205 0.023282 2 1 2 
8419 5 0.537795 0.487263 0.0325135 -1 -1 -5 
5170 5 0.972058 0.449596 0.0436518 3 -1 8 
8199 5 0.0288258 0.429134 0.0243707 1 7 -1 
6064 6 0.726695 0.486472 0.0419607 -4 1 0 
8062 5 0.522224 0.486507 0.0472052 3 1 1 
8775 5 0.290945 0.522126 0.0327981 2 -4 1 
8632 5 0.555237 0.516415 0.0654612 8 0 -4 
5519 6 0.809083 0.559971 0.0295159 -5 2 -4 
8562 5 0.187464 0.535745 0.0487602 5 0 0 
7064 6 0.517676 0.568366 0.0400784 0 -2 1 
8560 5 0.251548 0.594553 0.0210443 -1 -1 5 
5418 5 0.424001 0.575211 0.0372494 0 -4 -2 
5374 6 0.43006 0.616909 0.0336419 -1 -2 2 
7277 5 0.510483 0.643827 0.0425241 -1 -2 0 
5131 6 0.531914 0.608691 0.00543929 -1 -2 6 
5741 6 0.891013 0.583502 0.0657125 -2 1 1 
7557 6 0.248363 0.62196 0.0382202 5 -10 0 
8392 6 0.980969 0.647375 0.0312421 -2 0 -3 
6711 5 0.0285589 0.642598 0.0405193 2 -1 -1 
5918 6 0.478408 0.59943 0.078331 -3 -4 -2 
8001 5 0.550411 0.666787 0.0325273 6 -4 4 
5865 6 0.870206 0.621581 0.0691764 -1 2 -5 
7934 6 0.466312 0.685297 0.0199999 1 2 3 
8485 6 0.50144 0.670306 0.011967 0 -1 0 
5565 6 0.527358 0.676568 0.042162 -4 -3 1 
5362 5 0.879696 0.708616 0.0242862 3 -2 1 
6677 5 0.101013 0.680031 0.0357965 -5 1 -3 
6176 5 0.596963 0.684955 0.077182 0 -5 0 
6718 5 0.958072 0.69792 0.0429524 -2 -1 1 
6419 6 0.542302 0.721767 0.986457 1 -4 -1 
8650 6 0.377613 0.720486 0.00942953 -5 0 -5 
6099 6 0.644744 0.754196 0.075282 3 -2 0 
8093 6 0.678072 0.718865 0.0709518 -1 9 3 
5378 5 0.988219 0.752453 0.0386457 0 -3 -4 
7146 5 0.65391 0.760705 0.0629983 0 5 1 
5577 5 0.956102 0.768119 0.0113391 0 2 -1 
8953 5 0.879295 0.767463 0.0667321 3 -1 -1 
5477 6 0.927472 0.778045 0.0243512 -4 -4 -1 
7799 5 0.0817832 0.81146 0.0462845 0 -1 5 
8513 5 0.296003 0.812632 0.0233461 -3 -1 -2 
8096 6 0.579476 0.824475 0.0302082 5 -2 -3 
6885 6 0.838554 0.831234 0.00497997 -1 -1 2 
8483 5 0.915525 0.796232 0.0386612 -1 0 -1 
7312 5 0.170379 0.854633 0.0405666 -1 -4 -5 
6858 6 0.452835 0.840163 0.076373 1 6 2 
8641 6 0.672252 0.84515 0.0287059 4 -3 1 
8126 6 0.890572 0.872408 0.0359821 2 0 0 
7652 6 0.873992 0.829857 0.0284747 -4 -3 -3 
8769 6 0.217098 0.893503 0.0588348 -2 1 -1 
6952 5 0.481662 0.890663 0.0553663 -4 -2 0 
5055 6 0.552229 0.913897 0.0468214 2 -2 1 
5545 6 0.687378 0.904683 0.0410878 3 -5 1 
6476 6 0.976064 0.928013 0.0497309 1 -4 -2 
7050 5 0.301139 0.94627 0.00640336 1 -1 2 
6909 5 0.289333 0.941595 0.0409887 -1 1 6 
7173 6 0.381675 0.930287 0.0542314 4 7 1 
5529 6 0.0859575 0.970667 0.071098 4 -6 -1 
7961 5 0.973199 0.98838 0.0238991 1 0 -4 
6520 5 0.72544 0.996816 0.0204296 1 -1 -2 
7830 5 0.92493 0.969512 0.0238985 -5 4 1 
8314 5 0.998587 0.985287 0.0494981 -6 -2 -1 
6215 6 0.119924 0.0185057 0.0565317 -1 3 -4 
5037 6 0.840384 0.00764045 0.0688858 0 0 1 
8892 6 0.884654 0.0256052 0.0636035 -4 -1 0 
6661 5 0.942332 0.0342757 0.0466287 3 5 -2 
8858 6 0.284763 0.0845876 0.0477858 6 0 4 
7115 5 0.85977 0.0851044 0.0705636 -5 -1 1 
8497 5 0.118878 0.134101 0.0464517 2 2 3 
5446 6 0.55583 0.104941 0.0420541 8 -7 2 
6751 5 0.296856 0.188356 0.0326989 3 -2 1 
8491 6 0.404766 0.169956 0.0321188 1 -1 1 
5395 5 0.93697 0.182649 0.0542646 -1 4 2 
6555 6 0.482512 0.203019 0.0525718 -3 2 6 
6217 5 0.574976 0.226738 0.0198541 2 1 -4 
6656 5 0.339383 0.319006 0.0252795 2 1 0 
6997 5 0.244708 0.32776 0.038274 4 3 -1 
6365 6 0.70851 0.333972 0.0780862 0 3 3 
8890 6 0.639931 0.363499 0.0326697 -2 -5 0 
6690 6 0.0806554 0.410965 0.0446806 3 0 -2 
5967 5 0.128535 0.412421 0.0409724 4 0 -2 
6662 6 0.23653 0.431533 0.0407937 1 2 5 
8795 6 0.806834 0.433348 0.0667736 -1 2 -4 
6285 6 0.164468 0.479685 0.0395569 3 6 6 
5978 5 0.50782 0.453452 0.0343087 -1 3 -1 
7825 6 0.869009 0.453295 0.0777413 1 7 3 
7703 6 0.0436017 0.494194 0.0478614 2 -1 -2 
5295 5 0.893278 0.508211 0.0529242 3 0 -3 
8306 6 0.689085 0.50901 0.0397128 5 1 -6 
6108 6 0.185981 0.577511 0.0562829 -2 2 2 
6506 5 0.882408 0.542371 0.0817043 3 0 -3 
5556 5 0.929742 0.539763 0.0856509 0 0 1 
7925 5 0.533818 0.588548 0.100415 2 -4 -2 
5333 5 0.757264 0.609202 0.0434949 -2 1 -1 
5219 6 0.805161 0.568047 0.0633014 1 -2 -1 
8059 5 0.879986 0.596475 0.0970078 -4 -4 1 
6554 6 0.97588 0.626979 0.0358741 0 2 1 
5716 5 0.0903474 0.64527 0.059221 -2 -1 6 
7555 5 0.383439 0.62106 0.0343668 -1 -2 0 
7233 6 0.830291 0.599674 0.0917471 0 -2 -1 
5028 5 0.67092 0.600082 0.0769655 -1 1 -1 
6172 5 0.631247 0.626395 0.0570609 0 6 -2 
7224 6 0.978947 0.710283 0.0342321 2 -4 5 
7625 5 0.520788 0.731481 0.0897587 -2 -6 2 
7757 6 0.648282 0.686182 0.0585197 -2 2 7 
7863 6 0.00946082 0.729464 0.0595923 1 -3 5 
6877 5 0.155523 0.758622 0.048361 4 2 4 
5819 6 0.185019 0.751155 0.0286297 -1 -3 -9 
6734 6 0.256871 0.736905 0.0941036 -3 -6 -1 
7778 5 0.625379 0.746824 0.0659242 8 0 0 
5187 5 0.949212 0.754028 0.0573337 1 0 2 
6272 6 0.503785 0.812996 0.0817947 -1 -1 0 
7206 6 0.566559 0.803768 0.054508 0 2 -1 
6297 6 0.0170158 0.827438 0.0326034 -4 -4 -1 
8201 6 0.377924 0.817081 0.085951 0 0 -3 
8816 6 0.023498 0.875918 0.0412529 -1 -2 -2 
5666 5 0.423195 0.88272 0.0693677 -3 1 -4 
8995 5 0.569175 0.81008 0.0677532 1 0 4 
7105 5 0.516613 0.859458 0.00706158 2 0 0 
8671 6 0.107341 0.919743 0.0124956 3 2 3 
6309 5 0.182715 0.90115 0.0526325 4 -2 4 
7506 6 0.779915 0.902801 0.0257216 3 0 4 
7971 6 0.558318 0.909005 0.0287492 0 2 -1 
6139 6 0.277262 0.991193 0.0507463 -5 1 0 
8687 5 0.617279 0.980077 0.0822043 -2 -1 2 
5648 6 0.807165 0.96681 0.0680879 0 2 -3 
8672 6 0.633205 0.97895 0.0661629 5 2 -2 
8521 6 0.833427 0.0399543 0.0563618 -4 -6 0 
7455 6 0.847682 0.995854 0.104582 1 1 3 
5734 6 0.745436 0.0519002 0.09952 1 0 0 
6091 6 0.00138023 0.0329636 0.0843951 -1 8 0 
6106 6 0.175472 0.141319 0.0827271 -1 -3 2 
5087 6 0.523208 0.0760216 0.0980052 4 6 0 
6914 6 0.177478 0.129608 0.128577 3 0 -3 
7728 6 0.213914 0.148392 0.0668183 -4 5 5 
7722 6 0.842153 0.118948 0.0820392 -2 2 -1 
7274 5 0.900785 0.102431 0.0704901 2 -4 2 
5410 6 0.502198 0.125223 0.0565603 2 0 -4 
5024 6 0.556987 0.140535 0.066769 1 -1 5 
5162 6 0.787552 0.127555 0.0845961 -3 1 1 
6388 6 0.625757 0.168855 0.0705542 2 1 4 
8984 6 0.709425 0.210281 0.0845535 3 -3 0 
5463 6 0.841099 0.194369 0.0843026 4 2 2 
5012 5 0.986073 0.177629 0.0855026 -2 2 -5 
7113 6 0.369069 0.190483 0.0742713 3 0 1 
8178 6 0.967702 0.2235 0.0772467 -2 3 -1 
5063 6 0.478304 0.269599 0.0918772 0 2 -3 
6488 5 0.468229 0.310222 0.0772952 3 2 -2 
6445 6 0.58208 0.249388 0.0972392 -1 4 6 
6429 5 0.976237 0.31203 0.101623 2 1 -3 
8284 6 0.334555 0.275068 0.0736265 -4 -3 4 
8556 6 0.633952 0.289969 0.0346227 2 4 5 
6149 6 0.667029 0.308179 0.0848257 1 0 -2 
6618 6 0.290013 0.327942 0.0754302 -4 2 -1 
7944 5 0.0523305 0.345959 0.0591771 -1 -6 0 
6986 6 0.368786 0.377298 0.0843685 -1 -2 3 
7839 5 0.527993 0.370244 0.0725334 -2 -1 1 
7730 6 0.853956 0.369959 0.0766919 -2 -1 0 
5788 6 0.484452 0.376831 0.0620091 -2 1 4 
5099 6 0.7081 0.417894 0.0785679 0 1 0 
7828 6 0.00610445 0.47048 0.0876585 0 -1 -4 
5606 6 0.139882 0.411597 0.0846152 2 -1 -5 
7510 5 0.281588 0.410505 0.0621007 1 -1 1 
5449 6 0.38931 0.381434 0.0693687 -4 2 -1 
5715 6 0.16953 0.424733 0.0693576 5 -1 0 
8434 5 0.602601 0.423757 0.0881965 -6 0 4 
7843 5 0.773913 0.462737 0.0872691 3 3 -5 
6530 6 0.0374903 0.462072 0.0730567 -2 -4 3 
5667 6 0.50947 0.557022 0.0545345 0 0 -1 
8868 6 0.843022 0.520984 0.12413 -1 -3 -2 
6792 5 0.513333 0.489108 0.0906093 -6 -2 -6 
8414 5 0.0603408 0.550341 0.10143 2 -1 0 
8411 5 0.0677786 0.550518 0.0989291 2 4 -1 
8653 6 0.58056 0.517137 0.0941907 4 2 5 
7984 5 0.649864 0.560708 0.0978309 4 -2 -1 
8621 5 0.939071 0.553147 0.0936548 1 -4 2 
7054 6 0.54043 0.605373 0.070008 1 1 3 
6678 6 0.531105 0.59031 0.0827869 5 -3 0 
6101 6 0.411068 0.653018 0.0880108 -1 -5 -1 
8493 5 0.748286 0.67165 0.111238 2 4 6 
7266 5 0.0433004 0.664669 0.100713 -1 5 3 
6175 6 0.134863 0.678644 0.100347 4 -5 2 
8709 6 0.5819 0.680355 0.0757592 -2 -3 9 
6155 5 0.111964 0.69646 0.102861 1 4 -2 
5966 5 0.696869 0.702292 0.0511549 -4 6 1 
5432 6 0.825601 0.742184 0.0645267 -3 2 1 
5558 5 0.272577 0.745611 0.073066 0 -1 1 
7560 5 0.997741 0.780621 0.064046 0 -3 0 
5071 5 0.0912121 0.797104 0.0619142 2 0 2 
7253 6 0.222618 0.794492 0.0523942 2 -4 1 
6414 5 0.621333 0.750089 0.0940417 2 -6 -2 
5165 6 0.768102 0.790397 0.0850835 2 -2 4 
8101 6 0.794827 0.718153 0.102291 1 4 -7 
7327 6 0.0407995 0.838303 0.103432 0 6 4 
7324 6 0.406699 0.822774 0.0787994 -2 3 -2 
5116 6 0.611758 0.809666 0.0975774 0 -3 4 
8274 5 0.077183 0.830841 0.0838131 -4 3 1 
5640 5 0.19786 0.882212 0.0735725 -8 -1 4 
6738 6 0.40667 0.876787 0.100084 2 -1 -3 
5009 5 0.594566 0.874035 0.105378 -1 -2 -2 
6996 5 0.671113 0.865983 0.0937276 1 -1 -2 
8909 6 0.701443 0.902188 0.0754773 -3 3 -2 
8400 6 0.756002 0.952165 0.0666703 -3 2 4 
5962 6 0.874116 0.905541 0.0690828 0 2 1 
5290 6 0.261958 0.91033 0.0804688 2 0 0 
6870 5 0.430365 0.947572 0.110481 -1 2 4 
7314 5 0.617621 0.969712 0.106769 1 1 -3 
8549 5 0.19679 0.00203025 0.0999034 2 0 0 
6772 6 0.277938 0.974618 0.0609783 4 1 1 
7959 6 0.63802 0.972843 0.0754505 0 -1 3 
8327 5 0.918625 0.00507313 0.076053 0 3 1 
6142 6 0.50994 0.0110317 0.0940007 -1 1 1 
7211 6 0.601274 0.998299 0.132907 7 -3 2 
6001 6 0.188026 0.0158731 0.120215 -2 0 -4 
8334 6 0.719575 0.021469 0.0969179 1 -4 -1 
8056 5 0.536759 0.106146 0.10512 -1 -1 -2 
8196 6 0.291661 0.0648387 0.101016 0 -1 -1 
5145 5 0.487332 0.0368824 0.0840916 -1 2 -3 
7421 6 0.239276 0.0467206 0.0849902 0 2 8 
6434 5 0.179315 0.105333 0.123801 -1 3 2 
5287 6 0.214173 0.13855 0.0996179 0 -1 4 
5720 6 0.245364 0.132063 0.14183 -7 3 -1 
8652 5 0.366356 0.100418 0.0847365 -3 0 0 
5297 5 0.732151 0.100061 0.126126 1 -1 -3 
5228 6 0.85506 0.110916 0.10674 -6 2 -3 
6775 5 0.570134 0.145212 0.134332 2 0 0 
6446 5 0.737789 0.17682 0.106749 -7 1 -3 
8777 5 0.762671 0.188069 0.0871075 -2 0 0 
7002 6 0.950686 0.169125 0.130335 0 5 3 
8725 6 0.0772105 0.138185 0.0874339 0 4 5 
6648 6 0.249826 0.162071 0.0958451 -4 3 -2 
6298 6 0.981507 0.218895 0.104176 2 4 9 
5210 5 0.838842 0.175909 0.089143 1 2 -1 
5465 6 0.0884004 0.216152 0.106892 7 0 -1 
6316 6 0.167888 0.194048 0.131261 3 1 0 
7871 5 0.107434 0.217564 0.116436 -1 2 5 
8646 6 0.113122 0.22954 0.115848 1 -3 2 
7292 6 0.417689 0.217154 0.103947 -2 0 0 
5724 5 0.207989 0.274713 0.126175 2 -4 -2 
7051 6 0.662595 0.27418 0.0686049 -3 -1 3 
6779 5 0.251647 0.334937 0.109875 -4 2 5 
5974 6 0.971601 0.335473 0.0844644 -2 3 4 
8168 5 0.725759 0.326104 0.111277 5 1 3 
8326 6 0.374065 0.384142 0.0878906 0 -5 0 
6361 5 0.752939 0.370575 0.132641 3 4 -3 
8203 6 0.146191 0.450877 0.123004 -1 -5 4 
7276 6 0.411866 0.407407 0.103567 0 -1 -1 
5147 6 0.646883 0.373225 0.0668405 1 2 1 
7296 6 0.986034 0.399441 0.0986535 0 -1 -1 
7058 6 0.12893 0.422453 0.12257 1 -1 0 
6881 5 0.287553 0.389778 0.112143 -3 0 1 
7759 6 0.39489 0.435876 0.128879 4 -2 0 
5042 6 0.190596 0.454643 0.0899791 3 3 4 
7637 6 0.554784 0.500317 0.0925652 0 2 0 
8301 5 0.657384 0.468498 0.072184 0 2 -4 
8861 6 0.562092 0.471122 0.118602 1 5 1 
7413 5 0.219956 0.509879 0.11192 -2 3 2 
6937 6 0.365944 0.506818 0.139395 -1 -4 3 
6269 5 0.00340245 0.551911 0.0937411 -1 -1 5 
7928 5 0.141396 0.533004 0.108594 5 2 -1 
6262 5 0.321102 0.540045 0.139616 -1 0 0 
5925 6 0.512555 0.566746 0.115761 1 0 -1 
8467 6 0.686391 0.560594 0.0890608 3 -3 -5 
6145 5 0.99674 0.569463 0.0897779 0 3 -2 
5534 5 0.54394 0.606651 0.141006 -1 -7 0 
8643 6 0.663577 0.568094 0.135825 -2 7 -2 
6736 6 0.685287 0.674492 0.107094 -1 -5 8 
6563 5 0.152671 0.663859 0.0885556 -3 0 2 
8351 6 0.584925 0.668871 0.0867665 -2 4 4 
6508 6 0.515341 0.676532 0.109443 1 -2 -1 
7476 5 0.529899 0.69522 0.162971 -2 1 3 
6072 5 0.116511 0.711881 0.0764183 1 1 0 
6642 6 0.432339 0.778472 0.0854547 1 5 -2 
8243 5 0.485928 0.726051 0.133478 -4 3 -1 
6169 6 0.511463 0.722807 0.122376 0 -3 0 
8780 5 0.95424 0.739292 0.120015 -2 -2 -3 
6248 6 0.34174 0.768809 0.0556731 2 0 2 
5942 6 0.109603 0.807362 0.102847 -1 3 0 
7017 6 0.426288 0.80603 0.11165 -2 1 1 
6318 5 0.490833 0.8317 0.0982401 3 -1 -2 
5167 5 0.504963 0.864277 0.115592 -1 -4 2 
6051 6 0.0628493 0.823517 0.129909 0 1 0 
5526 6 0.386835 0.83768 0.102408 3 -3 0 
5467 5 0.497727 0.847567 0.10542 0 -6 3 
7850 6 0.748489 0.813036 0.0966269 -4 -3 0 
7754 6 0.358242 0.856101 0.0690412 3 -2 0 
5468 5 0.91501 0.851751 0.107109 5 0 0 
6379 5 0.344989 0.893029 0.0932616 -5 3 1 
5113 6 0.0334255 0.863392 0.0860064 2 4 -2 
7796 5 0.0478865 0.903144 0.0935863 0 1 -3 
6613 5 0.487638 0.880368 0.116497 -2 2 -5 
5497 6 0.493488 0.916469 0.0769623 2 -5 0 
7893 6 0.38835 0.936003 0.123565 -1 2 6 
8468 5 0.426486 0.898329 0.0625856 2 -5 -2 
8838 6 0.5903 0.91266 0.105748 -1 1 -2 
8378 5 0.229893 0.942394 0.0860475 1 -5 2 
8081 6 0.704931 0.946297 0.0966319 -1 0 -1 
8429 5 0.929075 0.90553 0.0827203 -4 -3 3 
6362 5 0.968383 0.911258 0.0727325 3 -7 3 
5304 6 0.288228 0.956515 0.0895206 1 0 0 
7262 5 0.523936 0.949259 0.109206 5 -4 3 
8913 6 0.298974 0.989878 0.106865 -1 -1 0 
8033 6 0.30991 0.0168403 0.128878 2 -1 -2 
7978 5 0.83863 0.994423 0.117939 -3 3 -5 
7332 5 0.960531 0.0428766 0.110211 1 -3 4 
6653 6 0.591676 0.0492518 0.121117 -2 0 -6 
5679 6 0.653345 0.999027 0.103855 -5 -1 7 
5039 5 0.287981 0.0787406 0.108825 2 -1 2 
5350 5 0.507085 0.0625195 0.10794 2 -1 1 
5560 5 0.695163 0.0424063 0.149601 2 1 -1 
5857 6 0.747148 0.106703 0.140311 -4 5 -1 
7470 5 0.802996 0.0997481 0.124085 4 2 5 
6083 5 0.34904 0.0833053 0.0932232 1 3 2 
8809 6 0.107865 0.102169 0.156229 0 -1 -3 
5140 6 0.813001 0.0943621 0.138271 1 2 0 
6670 6 0.876491 0.138313 0.160218 0 3 4 
7908 5 0.960767 0.145834 0.11312 -5 3 4 
7149 6 0.0491381 0.215959 0.149969 4 -4 3 
7009 5 0.184727 0.15904 0.112449 5 0 -1 
7029 5 0.178004 0.205276 0.116531 1 2 2 
7140 5 0.494175 0.195321 0.0678262 4 2 1 
8020 5 0.756629 0.169857 0.107622 1 -1 -5 
5663 6 0.322672 0.193057 0.176724 0 4 5 
8747 5 0.767837 0.229118 0.128288 2 -3 0 
7030 6 0.143784 0.303052 0.129057 2 -1 -3 
8053 5 0.50849 0.277086 0.132501 2 0 0 
7204 5 0.840371 0.308397 0.161443 0 2 0 
5772 6 0.222972 0.354192 0.130506 2 -1 6 
8118 5 0.315905 0.351379 0.148714 -1 2 4 
6528 5 0.633941 0.364299 0.11027 -4 6 3 
8366 6 0.201644 0.347286 0.0958127 -2 -4 -5 
5158 6 0.204618 0.394255 0.115118 4 2 3 
8369 6 0.565856 0.333241 0.1332 -1 2 -2 
7218 6 0.616828 0.395439 0.119218 0 -2 -4 
7120 6 0.424077 0.406352 0.133635 0 -3 4 
6884 5 0.560251 0.373415 0.101791 -3 -2 -1 
6201 6 0.675055 0.434879 0.0983768 -1 4 1 
7887 6 0.718749 0.408501 0.142463 2 -6 2 
5132 5 0.88348 0.405785 0.141257 -4 0 -1 
7574 6 0.642603 0.399237 0.137023 3 3 -3 
6243 5 0.734112 0.402532 0.121109 -6 0 0 
5971 5 0.899335 0.407524 0.0884985 -2 4 -2 
5659 6 0.507476 0.45831 0.120468 3 3 -1 
5836 5 0.756381 0.473318 0.120949 3 0 1 
8694 6 0.214612 0.516264 0.149444 -3 1 1 
5542 5 0.340173 0.470823 0.153518 3 0 4 
6564 5 0.770852 0.501629 0.125335 -4 1 -3 
7649 5 0.898721 0.511485 0.118517 -1 -2 0 
6322 5 0.816165 0.532312 0.125115 -3 0 0 
6921 5 0.953459 0.510109 0.12548 -1 0 -5 
7808 5 0.25652 0.542466 0.121028 4 1 1 
5053 6 0.36143 0.54878 0.13829 0 -5 -2 
6070 6 0.688234 0.50069 0.15444 2 0 -1 
7542 5 0.493021 0.545367 0.180444 5 1 -1 
5224 5 0.705604 0.569996 0.0961221 5 4 5 
8815 6 0.830814 0.587161 0.114836 0 4 2 
6929 5 0.951588 0.571395 0.162433 0 -1 -3 
5139 5 0.0529539 0.6345 0.0888719 0 -5 6 
6115 5 0.252532 0.613537 0.11486 -3 2 1 
7241 6 0.0411583 0.600916 0.143786 -4 2 2 
7772 5 0.27971 0.644205 0.139688 -5 4 1 
8329 6 0.881022 0.622676 0.14161 0 0 5 
8828 6 0.265775 0.604166 0.12611 -1 2 9 
6381 6 0.409253 0.637104 0.131478 -3 1 -1 
7527 6 0.276705 0.713273 0.117172 0 2 0 
5226 6 0.158597 0.69478 0.149334 4 -4 0 
8523 6 0.191344 0.688109 0.1554 1 -5 -4 
6571 5 0.456774 0.702769 0.107625 2 1 -6 
6146 6 0.0654355 0.686893 0.108967 -4 1 0 
8940 5 0.250121 0.724579 0.0935214 3 3 0 
6252 6 0.766312 0.702757 0.147104 0 -1 1 
5283 6 0.119656 0.774192 0.101897 1 1 4 
8465 6 0.244884 0.732584 0.156722 1 -2 0 
8248 5 0.715091 0.826092 0.127467 1 -1 3 
8140 6 0.893203 0.791678 0.0906571 -3 1 -4 
5279 5 0.202487 0.831496 0.116487 4 5 -4 
6849 6 0.247953 0.81816 0.119332 2 -1 2 
8628 6 0.283881 0.846175 0.101813 1 5 -1 
7946 5 0.419118 0.851102 0.123755 -3 3 -2 
5889 6 0.772218 0.888914 0.124059 -1 0 -5 
5111 6 0.0556427 0.888368 0.137279 1 -2 -5 
7777 6 0.698894 0.840779 0.139004 -5 0 8 
6453 6 0.309421 0.916349 0.129539 1 -1 1 
5312 6 0.488475 0.926645 0.10484 1 3 -2 
8177 5 0.325175 0.914357 0.119363 -3 2 -4 
8321 5 0.0306172 0.0125536 0.130889 2 2 0 
5563 6 0.363746 0.977187 0.123337 -2 2 3 
8453 5 0.709582 0.950896 0.115707 1 3 -2 
5237 5 0.938867 0.924063 0.0928115 1 1 -3 
8944 5 0.184332 0.985591 0.136713 5 0 0 
6046 5 0.455919 0.986 0.124884 5 -3 1 
6461 5 0.29951 0.0329932 0.117437 -2 7 5 
5001 6 0.551178 0.980353 0.162967 -2 -4 -1 
7446 6 0.762235 0.0166814 0.16255 0 -1 0 
6184 6 0.409905 0.0634173 0.159143 0 -2 -2 
6126 5 0.903212 0.0676126 0.158991 -5 -4 1 
5518 5 0.0544803 0.0173124 0.118485 -1 2 -2 
6503 6 0.635491 0.0792898 0.158193 -2 6 0 
6270 5 0.64234 0.0529255 0.124837 0 1 -3 
5601 5 0.0322456 0.10392 0.140019 5 -1 2 
6467 6 0.975113 0.0626157 0.137459 -1 0 5 
6776 5 0.10463 0.128733 0.10276 4 0 2 
6905 6 0.391277 0.171005 0.164707 1 1 0 
5646 5 0.452488 0.121888 0.168758 0 6 1 
5827 5 0.54931 0.153056 0.127017 -4 1 5 
6558 6 0.718392 0.171523 0.166099 -2 -5 -3 
6465 5 0.794941 0.124387 0.158664 -5 -5 -1 
6351 5 0.0564158 0.238108 0.126286 1 5 2 
7021 5 0.410154 0.197692 0.147401 -3 0 -2 
6539 6 0.116457 0.252685 0.178785 -2 0 -2 
5128 6 0.812908 0.233206 0.1375 2 -1 2 
8026 6 0.163286 0.262798 0.147121 4 2 1 
5258 6 0.359929 0.273896 0.137595 1 -2 3 
8462 6 0.778842 0.314902 0.137774 -2 1 -5 
7593 5 0.564044 0.29336 0.169138 1 4 -4 
6949 6 0.634781 0.272118 0.145671 0 5 2 
7884 5 0.269018 0.342962 0.131082 -3 6 4 
6068 5 0.947241 0.341049 0.124004 -1 -1 -1 
6052 6 0.102346 0.395969 0.160032 -2 -1 3 
5029 6 0.110414 0.35819 0.169663 0 -1 2 
6926 5 0.0992105 0.34936 0.124603 4 1 2 
5473 5 0.379397 0.374053 0.169727 4 -3 8 
6641 5 0.858745 0.367136 0.174788 -5 0 -1 
7065 5 0.112341 0.344135 0.145256 -6 -3 7 
5810 5 0.864589 0.398526 0.118463 1 -1 -2 
6892 5 0.995713 0.435955 0.142235 1 6 0 
6321 6 0.817974 0.449646 0.167972 0 -3 4 
6452 6 0.861289 0.461387 0.174948 3 2 -1 
6227 5 0.926478 0.409172 0.12606 -4 -1 1 
6104 5 0.706622 0.455485 0.138951 -1 6 3 
8525 5 0.895884 0.390223 0.181353 5 -2 -2 
7270 5 0.129776 0.45254 0.17112 -3 3 3 
5457 6 0.268506 0.468609 0.139334 -2 -3 1 
5002 6 0.468936 0.52473 0.13398 -1 -3 -4 
7989 5 0.230534 0.546184 0.149552 0 3 0 
5483 6 0.44651 0.58387 0.138113 -1 -1 -1 
8354 6 0.559813 0.547009 0.170439 3 6 4 
7696 6 0.898847 0.551899 0.127037 -2 -1 -1 
6947 5 0.0186834 0.645788 0.123741 1 -1 2 
7248 6 0.491169 0.620489 0.16352 -3 2 3 
7795 6 0.598543 0.669926 0.105674 -2 -2 1 
5319 6 0.156877 0.654489 0.132877 3 -8 -4 
6700 5 0.505442 0.668629 0.155575 -3 0 3 
6825 5 0.719272 0.663862 0.131701 0 1 7 
7539 6 0.819187 0.714008 0.165334 -6 0 1 
8946 5 0.587727 0.692411 0.151173 -1 -1 -1 
7965 6 0.323854 0.763865 0.123183 -3 -2 1 
7866 6 0.382195 0.764575 0.169425 -2 -1 -1 
6791 5 0.604932 0.759723 0.15106 -2 2 1 
6553 5 0.482167 0.784257 0.19114 -1 0 -6 
8732 6 0.343107 0.746741 0.136968 -2 3 -3 
8856 5 0.656156 0.813119 0.144926 -4 -1 1 
6911 6 0.186283 0.829749 0.172754 3 -1 0 
6960 6 0.317543 0.841935 0.0992292 -4 -4 -3 
7063 6 0.698847 0.830116 0.130411 2 2 -3 
5583 5 0.205189 0.883372 0.16096 -2 0 5 
8934 5 0.315578 0.829151 0.112459 6 0 0 
6186 6 0.469869 0.865431 0.18462 1 5 3 
5847 6 0.150448 0.893424 0.118723 1 -5 -4 
8530 6 0.812286 0.924392 0.174556 -2 0 3 
7852 5 0.893901 0.899705 0.153172 -1 -2 -4 
6857 5 0.88376 0.957241 0.154614 -3 -2 0 
6294 6 0.185808 0.965511 0.120008 2 2 1 
5760 5 0.412194 0.991829 0.15053 -5 0 3 
5867 6 0.58882 0.9921 0.17233 5 2 -5 
6778 6 0.0228533 0.005794 0.170311 -3 -1 -2 
8050 6 0.0778173 0.0238715 0.188022 1 0 -3 
8339 5 0.067116 0.0134997 0.177638 -1 1 3 
5285 5 0.921195 0.0406524 0.159879 -1 -1 3 
6601 6 0.465654 0.073094 0.157165 -2 1 -1 
8903 5 0.48688 0.118393 0.176967 1 -4 3 
6557 6 0.649135 0.0765601 0.173684 -5 -1 4 
6927 6 0.072379 0.182782 0.19525 3 2 4 
8285 5 0.163045 0.188561 0.18663 -1 0 -2 
6944 6 0.351213 0.209801 0.177313 -3 5 5 
5201 6 0.507893 0.176984 0.157332 -2 0 -2 
6435 6 0.650425 0.202736 0.204136 1 -1 0 
6956 5 0.114549 0.16455 0.199828 1 1 1 
8535 6 0.756826 0.195176 0.171434 2 2 5 
8345 5 0.143191 0.213118 0.150678 1 -2 -4 
5803 6 0.352756 0.217787 0.164707 -1 1 -5 
8893 6 0.952883 0.204633 0.172748 -2 -5 -2 
5658 5 0.0048725 0.257613 0.134953 4 -1 2 
8899 6 0.147042 0.31058 0.189078 -6 -1 2 
6292 6 0.358885 0.256272 0.16984 -1 -3 1 
8912 6 0.725597 0.254019 0.158382 -3 2 0 
7910 6 0.734698 0.258459 0.20967 2 5 3 
5083 6 0.875596 0.244454 0.162615 4 1 2 
6148 5 0.0236269 0.271367 0.169289 1 -2 -4 
5240 6 0.274555 0.257587 0.183607 -7 -4 3 
7482 5 0.599875 0.227123 0.189998 0 4 1 
6813 5 0.739915 0.253727 0.182947 -7 2 5 
6010 6 0.370709 0.337187 0.186047 1 2 -2 
7721 6 0.479808 0.311053 0.148353 2 4 4 
5361 5 0.878113 0.273706 0.157307 0 1 1 
8617 5 0.483807 0.341875 0.181622 4 1 -1 
7640 5 0.795842 0.323957 0.145376 0 -4 1 
7401 6 0.48647 0.328935 0.171671 1 0 1 
8718 6 0.625601 0.371274 0.172964 1 -3 -1 
7964 6 0.23275 0.356769 0.163517 0 0 3 
5409 6 0.162195 0.404421 0.172348 -4 2 2 
7698 6 0.179968 0.382201 0.182974 -2 -1 5 
5262 5 0.397293 0.359328 0.211504 1 -3 2 
6702 6 0.505439 0.393865 0.174047 0 0 -1 
6726 5 0.493595 0.411435 0.155253 1 -1 -2 
7069 5 0.0905214 0.378655 0.157388 -3 -2 -3 
6100 5 0.185078 0.430743 0.154613 5 1 -1 
5912 6 0.349695 0.433868 0.154291 6 0 0 
6478 6 0.53649 0.413794 0.140119 -1 2 -2 
7518 6 0.608565 0.426774 0.181349 -2 -5 -4 
8240 5 0.689451 0.450368 0.140294 -6 8 3 
6324 5 0.968508 0.397173 0.195994 -4 1 2 
5622 5 0.13987 0.496158 0.154072 2 -2 -1 
7184 6 0.187857 0.541369 0.179682 3 -4 -4 
8182 6 0.208961 0.520245 0.164282 -3 -4 2 
5341 6 0.315034 0.519577 0.173917 0 -1 4 
7814 6 0.383915 0.569584 0.157 0 -4 5 
8447 6 0.983932 0.603032 0.195346 -2 2 1 
7391 6 0.939319 0.592566 0.148344 2 4 -1 
5399 5 0.0778587 0.622094 0.172767 8 1 5 
6043 5 0.381455 0.627463 0.203137 1 3 4 
6489 6 0.889955 0.631974 0.169363 4 3 5 
6234 6 0.457558 0.629818 0.21522 3 0 -1 
8080 6 0.703525 0.631098 0.165135 -1 -4 1 
7340 6 0.478678 0.620959 0.178451 -1 2 -1 
5848 5 0.0915505 0.701454 0.191132 2 -1 -8 
5584 6 0.871039 0.699673 0.18561 9 -3 3 
5885 6 0.221305 0.710577 0.225725 -3 0 1 
8208 6 0.632157 0.729073 0.138061 -1 1 -2 
6207 6 0.426619 0.748922 0.116089 2 -3 1 
5627 6 0.705711 0.765331 0.193452 -5 -5 2 
6085 6 0.864844 0.745514 0.178757 -5 0 2 
5095 5 0.206343 0.76806 0.219011 0 -3 -3 
7838 5 0.374612 0.722023 0.166719 -3 -2 -2 
5241 6 0.326136 0.728606 0.150941 -3 2 1 
8077 5 0.363706 0.753385 0.116655 -6 -1 -3 
8043 6 0.683047 0.763253 0.167868 1 -5 1 
8146 6 0.729956 0.82082 0.171038 2 -3 1 
6513 5 0.0456357 0.784616 0.145068 5 -4 -2 
6210 6 0.766707 0.804113 0.138993 -6 0 5 
8855 6 0.673684 0.849341 0.126731 -2 -2 -2 
7067 5 0.758992 0.854255 0.147041 1 -1 6 
7911 6 0.309847 0.844691 0.183552 -5 -5 0 
7501 6 0.108049 0.860219 0.103027 0 1 -2 
6694 5 0.372566 0.872452 0.180408 -3 4 3 
6277 6 0.851594 0.877994 0.204891 -4 1 5 
6764 6 0.894003 0.881664 0.115738 -4 0 8 
8896 6 0.177476 0.938445 0.159346 -3 -1 0 
6502 5 0.745744 0.947134 0.196892 3 -3 4 
5946 6 0.778042 0.933067 0.127807 3 4 -2 
7534 5 0.089544 0.98136 0.17615 2 2 -1 
8191 6 0.421596 0.972007 0.165977 4 2 -2 
5268 5 0.44492 0.966569 0.17358 1 -1 -3 
5775 6 0.285799 0.984688 0.136449 6 2 1 
7812 5 0.858997 0.979546 0.141455 3 -2 5 
7231 6 0.853184 0.014556 0.187489 -2 6 1 
5381 5 0.120569 0.0332026 0.170649 -1 0 3 
5364 5 0.578206 0.0460388 0.232169 8 -1 1 
8715 5 0.59601 0.987818 0.210481 -4 1 7 
6265 6 0.468218 0.0566107 0.242354 3 6 8 
7041 5 0.301876 0.0616758 0.133082 3 2 1 
8386 5 0.454183 0.0690243 0.2067 1 0 1 
6540 6 0.986698 0.0931688 0.173309 1 -3 2 
5766 6 0.906912 0.131434 0.20599 3 -3 -2 
5089 6 0.924912 0.141611 0.181147 -6 3 4 
8412 5 0.149918 0.149046 0.163847 -1 1 0 