ITEM: TIMESTEP
20000000
ITEM: NUMBER OF ATOMS
9000
ITEM: BOX BOUNDS pp pp pp
-75 75
-75 75
-75 75
ITEM: ATOMS id type xs ys zs ix iy iz 
6817 6 0.195957 0.0078481 0.0168457 1 -3 -3 
6310 5 0.256655 0.0241341 0.0522528 2 -1 1 
6400 6 0.58533 0.983763 0.00582022 0 0 1 
6166 5 0.888236 -0.00106054 0.0534754 -8 0 4 
6676 5 0.0416433 0.0374759 0.997704 -4 3 -1 
6124 6 0.579166 0.0408214 0.00337625 -3 3 5 
8784 5 0.5097 0.0529772 0.99986 2 0 0 
5885 5 0.918035 0.0751195 0.97495 2 1 0 
5440 6 0.328706 0.0551447 0.0521598 5 1 -2 
8785 6 0.545793 0.0964215 0.0121799 2 -1 0 
7470 6 0.611237 0.0768007 0.0247158 -5 0 4 
5301 6 0.176818 0.101792 0.997885 -1 3 3 
5172 6 0.534358 0.0834345 0.994949 -2 -2 0 
7480 6 0.103464 0.107776 0.0544943 -1 1 4 
6250 6 0.103004 0.165733 0.998045 -1 -1 -4 
6527 6 0.596331 0.149986 0.00868626 -3 5 1 
8644 6 0.370633 0.169449 0.0126607 7 3 -5 
7616 6 0.0480824 0.195036 0.00311395 -2 4 -4 
7428 5 0.351994 0.208681 0.0296496 -7 -4 -2 
8971 5 0.548162 0.176363 0.0236129 -2 -3 2 
6791 6 0.824789 0.226327 0.0323325 0 2 2 
6438 5 0.197746 0.234232 0.995272 3 -1 4 
5871 5 0.605881 0.231274 0.0342921 3 -2 -3 
8879 6 0.629894 0.26657 0.0267739 -3 0 4 
8236 5 0.647369 0.255702 0.975329 2 -1 -6 
5031 6 0.675169 0.229317 0.028568 -2 2 3 
8662 6 0.907603 0.244939 0.97657 0 0 -2 
7156 5 0.409962 0.306274 0.00974752 -5 -4 1 
7300 5 0.538105 0.279497 0.996089 -5 -1 -3 
5687 5 0.597212 0.29174 0.983105 2 2 -1 
6009 5 0.0420261 0.327497 0.012138 -4 1 3 
7431 5 0.0963995 0.299561 -0.00120099 1 -1 -1 
7116 6 0.372724 0.321863 0.017339 -3 -3 1 
7941 6 0.932569 0.318778 0.0246034 1 -1 -4 
7388 6 0.0366083 0.355 0.0345041 -4 -2 6 
5773 5 0.0456706 0.350457 0.0423512 -1 -1 1 
5469 5 0.410215 0.353992 0.039147 4 -1 -1 
7481 5 0.559663 0.34537 0.000552271 -5 1 0 
8089 6 0.283296 0.387267 0.0225878 5 -1 3 
5676 6 0.692585 0.344764 0.00752305 2 0 -3 
7606 5 0.100585 0.424454 0.985717 2 3 -3 
6879 5 0.297091 0.446081 0.988712 2 0 -6 
8233 5 0.546341 0.430589 0.0480798 -3 1 2 
7855 5 0.313662 0.497211 0.996932 4 -4 -6 
6524 6 0.544407 0.481982 0.00921854 -1 0 -2 
8729 6 0.731807 0.453144 0.0631112 0 2 -4 
7812 5 0.104113 0.488454 0.995714 -2 1 -2 
7266 6 0.364551 0.538501 0.0206497 4 0 0 
8172 5 0.509554 0.469717 1.00002 -3 -6 0 
5270 6 0.906099 0.518083 0.0123508 3 2 2 
8861 5 0.274762 0.512591 0.00998899 -2 0 2 
5812 6 0.389931 0.54073 0.0318686 5 0 1 
6525 6 0.680327 0.546838 0.999665 -5 -1 -1 
6146 5 0.696043 0.502942 0.0184505 -1 0 -2 
6947 5 0.802998 0.519686 0.996827 1 6 0 
6832 6 0.434363 0.509301 0.979747 -2 -1 -2 
7234 6 0.455722 0.544379 0.995087 -1 0 -1 
7135 5 0.508164 0.526552 0.0117235 2 -2 0 
5386 6 0.619601 0.509605 0.0110609 4 0 2 
5874 5 0.00630063 0.527038 0.00868579 -3 4 2 
5634 6 0.288626 0.57359 0.973588 1 1 0 
6063 5 0.61729 0.600255 0.997102 -1 0 -4 
6432 6 0.0745951 0.674207 0.0261352 -6 0 -1 
5212 6 0.286331 0.60094 0.0512628 0 5 2 
7896 5 0.614594 0.623407 0.0398212 3 1 5 
7265 6 0.664251 0.622558 0.00835206 2 -4 0 
6494 5 0.900854 0.60699 0.0323619 1 -2 3 
6660 6 0.927972 0.667163 0.0129246 0 -4 -5 
6681 5 0.219383 0.639697 0.988735 0 2 -2 
8645 6 0.523114 0.630557 0.0024304 0 0 4 
7909 6 0.684421 0.699859 0.0561195 4 -4 3 
8812 5 0.73663 0.744726 0.0628747 -2 -4 -3 
8418 6 0.961581 0.732004 0.0152725 0 1 -2 
5799 5 0.291928 0.735754 0.0424153 -5 -1 -5 
6380 6 0.470266 0.758516 0.014609 5 2 0 
8398 6 0.373902 0.809325 0.0219919 -2 -1 4 
5237 6 0.399807 0.853672 0.0218663 -2 -1 0 
5164 5 0.429556 0.874804 0.97877 1 0 -1 
6870 5 0.730566 0.872143 0.0189704 -3 2 5 
7857 5 0.114748 0.928485 0.0242761 1 -1 2 
7041 6 0.436205 0.94338 0.995856 -5 0 -3 
8875 5 0.664252 0.933494 0.979741 -1 1 -4 
7299 6 0.895315 0.937577 0.0269514 -4 -2 -1 
5792 6 0.0646337 0.997495 0.997867 1 -3 -6 
6956 6 0.0165118 0.0432761 0.0964944 1 0 2 
6170 5 0.59529 0.00559811 0.0445686 0 -2 2 
8002 5 0.123226 0.0387119 0.0236816 2 -1 5 
7403 5 0.399955 0.0673968 0.0573065 2 0 1 
5668 6 0.864193 0.0357842 0.0505615 1 1 1 
8992 5 0.213254 0.0450301 0.0386802 1 0 0 
6590 6 0.496416 0.0806788 0.0211742 2 0 -5 
6553 6 0.506828 0.108314 0.0298646 -8 -2 3 
6691 5 0.896982 0.0908954 0.0367511 2 4 0 
5808 6 0.0805937 0.0914649 0.0668632 -4 1 -1 
6720 6 0.159905 0.140794 0.0196421 -3 -1 -1 
5468 6 0.68479 0.0862295 0.0670359 0 -2 1 
8882 5 0.314456 0.0995491 0.0442802 3 1 -1 
5669 5 0.396186 0.15144 0.0316324 1 0 0 
5738 5 0.15187 0.173482 0.0464525 0 2 4 
6077 5 0.691148 0.157696 0.0631257 -4 -4 0 
8538 6 0.198266 0.184844 0.00293958 -3 3 3 
6904 6 0.257859 0.166844 0.0217332 5 -1 3 
6570 5 0.862582 0.224952 0.0712462 2 -3 2 
8118 6 0.132033 0.262312 0.0620278 0 1 -1 
5358 6 0.534302 0.234785 0.0101369 0 0 2 
7564 6 0.991276 0.246904 0.0425575 2 1 -6 
7864 6 0.373861 0.239529 0.0326581 -1 -1 0 
8721 5 0.98055 0.250102 0.0469501 1 1 -3 
5450 6 0.734811 0.273578 0.0371181 -2 -2 -1 
8266 5 0.796224 0.283923 0.0310579 -4 0 -8 
8078 6 0.655944 0.285825 0.0520074 -6 -4 -3 
8400 5 0.164587 0.339007 0.01744 1 0 2 
8713 5 0.34534 0.339215 0.0180539 -4 2 -2 
5055 6 0.355297 0.377886 0.0256593 -4 0 -1 
5293 5 0.965398 0.357391 0.0398842 -2 -1 -2 
5934 5 0.0350928 0.406459 0.0542339 -2 2 1 
5090 6 0.377048 0.409979 0.0246105 5 0 -1 
8840 6 0.450718 0.404823 0.0442982 4 1 2 
5098 5 0.504189 0.453064 0.059854 4 2 2 
8636 6 0.0742227 0.448378 0.0105049 6 3 8 
8939 6 0.581934 0.466697 0.0753805 -2 3 1 
5351 5 0.631131 0.477628 0.0138944 3 -1 2 
7194 5 0.80897 0.49469 0.983172 -4 -5 2 
6272 6 0.622408 0.502468 0.0216041 -1 2 2 
7677 5 0.0102398 0.509462 0.00683118 2 5 3 
5290 5 0.844967 0.524092 0.0305375 0 2 2 
7290 6 0.310047 0.593811 0.064559 2 -1 -2 
6753 5 0.758438 0.50999 0.0546502 0 0 7 
7400 6 0.0629078 0.563287 0.0622768 -1 -3 -3 
6938 5 0.170012 0.567509 0.0604919 6 -7 1 
8455 6 0.715515 0.589041 0.0232886 -5 -5 5 
6162 6 0.812671 0.564109 0.057679 -5 -3 2 
8100 5 0.561248 0.611756 0.0218979 -1 3 -1 
8267 6 0.629079 0.636232 0.00844539 3 -6 -1 
7902 6 0.969389 0.633931 0.0295739 0 -4 -1 
5480 5 0.238389 0.663618 0.0548767 2 -5 -6 
8697 5 0.509345 0.644842 0.0712703 1 -1 -1 
6976 5 0.603423 0.64262 0.0154822 -2 2 -1 
8869 6 0.674813 0.65306 0.0287374 1 -3 2 
6499 6 0.77526 0.677249 0.0332438 -1 -4 2 
8011 5 0.965156 0.66992 0.0334962 -1 0 3 
5624 5 0.294499 0.781469 0.986183 3 1 3 
7615 5 0.487094 0.692559 0.0643022 1 -1 -1 
6951 6 0.510937 0.714441 0.0161616 -3 -2 4 
7725 5 0.846229 0.706354 0.00143679 2 -3 3 
6180 5 0.243476 0.712613 0.0304397 -4 -2 0 
5329 6 0.325075 0.739901 0.999511 -1 -2 -1 
8035 6 0.198579 0.781758 0.030713 1 0 2 
5509 5 0.13546 0.813329 0.0157922 -2 -5 -6 
6389 6 0.71836 0.788924 0.0344953 3 1 0 
8877 5 0.325183 0.845041 0.0212799 3 -4 -1 
7338 5 0.808102 0.839287 0.0424186 -3 0 4 
6158 6 0.916935 0.814347 0.0797189 3 2 3 
7912 5 0.966641 0.828717 0.976807 -7 -1 2 
7181 5 0.761798 0.842715 0.0320775 0 -1 3 
6985 6 0.385779 0.911065 0.00973421 1 -4 -3 
7140 6 0.982724 0.937909 0.0414117 -4 3 3 
6091 5 0.692642 0.921544 0.0370736 -1 3 0 
6226 6 0.893114 0.935468 0.0679878 3 1 -7 
7953 6 0.0295398 0.926461 0.0422614 -1 -3 2 
5660 5 0.957481 0.97934 0.0226815 0 -2 -3 
5208 6 0.954555 0.898625 0.0424092 4 -3 0 
8383 5 0.212368 0.972487 0.0539024 -3 -2 0 
5876 5 0.544956 0.948978 0.0352131 -1 -1 -1 
5224 5 0.463674 0.989362 0.0320086 0 -1 3 
8245 5 0.617795 0.0216731 0.992168 -5 3 -4 
7940 5 0.642028 0.985269 0.0540953 0 -1 2 
8320 6 0.876282 0.974802 0.0310763 -5 -2 3 
5677 6 0.940704 0.998092 0.0424804 0 4 1 
6070 6 0.0955959 0.0678937 0.0616924 -3 -3 1 
7964 6 0.351988 0.0195323 0.0386713 2 -2 3 
6341 6 0.882635 0.0217847 0.0601744 1 -3 0 
8413 6 0.709042 0.992958 0.0588816 -2 -2 -1 
8470 6 0.755586 0.0419092 0.0586963 -2 5 3 
6019 6 0.499829 0.0590671 0.072104 2 -5 -2 
5654 6 0.527435 0.0751824 0.0725484 -1 -1 0 
8029 6 0.815487 0.067491 0.0702654 -1 1 1 
7441 6 0.469584 0.0789183 0.0836065 -1 2 3 
7765 5 0.559198 0.0865946 0.0595649 -2 -1 -3 
5121 6 0.594013 0.0506782 0.0386165 -1 3 -3 
7860 6 0.939139 0.0727619 0.0727589 -1 3 1 
6828 6 0.0523566 0.107472 0.0825361 -1 -1 2 
8150 5 0.0725731 0.0834785 0.061447 0 -5 -1 
8437 5 0.444555 0.108542 0.0473687 2 4 2 
6597 5 0.743297 0.139597 0.03014 1 -5 2 
7815 5 0.92628 0.158744 0.0716103 -5 -3 2 
6051 6 0.104447 0.184664 0.0680207 -6 -1 3 
8795 6 0.538528 0.164802 0.0478867 5 3 0 
7034 6 0.107678 0.200708 0.090733 -2 5 2 
7467 5 0.627791 0.187126 0.0484338 0 1 -1 
5311 5 0.742889 0.212909 0.0684615 3 1 0 
7744 6 0.859154 0.19537 0.0186294 -4 -2 3 
6059 5 0.323115 0.196947 0.0673842 -1 0 4 
6652 6 0.50979 0.17937 0.0524463 2 -3 -6 
6983 6 0.579378 0.247696 0.0828127 -5 0 4 
7818 6 0.442428 0.231663 0.0769393 4 1 0 
7800 5 0.472862 0.208733 0.0840505 -2 -1 2 
7153 5 0.0792116 0.318579 0.0853385 -3 0 6 
8057 6 0.333365 0.282597 0.0520578 0 -2 3 
6566 6 0.0615451 0.322938 0.0554231 -1 4 0 
6370 6 0.796367 0.320965 0.0513747 -3 2 1 
6298 6 0.772229 0.340181 0.0489971 2 3 -5 
8252 5 0.36553 0.351006 0.00923645 -5 2 3 
6811 5 0.581883 0.347497 0.0657298 -5 4 4 
8744 6 0.363072 0.388055 0.0675566 4 1 0 
5395 5 0.543984 0.37757 0.0493682 -3 2 6 
7843 5 0.795216 0.383516 0.0279849 0 0 1 
5960 6 0.811585 0.399897 0.103512 -5 3 5 
7533 6 0.243089 0.435118 0.0516353 -4 2 -1 
8328 6 0.865039 0.438362 0.0225395 -4 0 1 
8953 5 0.469752 0.449743 0.0906529 0 1 -2 
5565 6 0.614926 0.421019 0.0520614 -2 1 -2 
8555 6 0.998677 0.447224 0.0778696 0 3 3 
8698 6 0.366596 0.452876 0.0603769 -2 0 -2 
5798 6 0.33981 0.470067 0.0389057 -2 -4 4 
8846 5 0.681807 0.484881 0.0543195 0 2 0 
8296 5 0.981229 0.47655 0.0444267 -6 1 2 
7625 5 0.0876232 0.499194 0.0929295 -2 0 1 
7482 5 0.2728 0.51377 0.0740844 4 6 0 
8613 6 0.356427 0.539882 0.0959006 -1 -4 -1 
7671 5 0.963214 0.56742 0.0534615 -3 4 2 
5323 5 0.566947 0.564704 0.0457964 4 2 2 
8671 5 0.693026 0.545112 0.0717102 -2 1 -1 
7807 5 0.832674 0.607496 0.0563757 -1 -3 -1 
6999 5 0.339812 0.625014 0.0677942 -1 2 -3 
8946 5 0.90753 0.600532 0.115142 3 3 -2 
7601 6 0.0050439 0.629062 0.0252613 3 1 3 
8892 6 0.459152 0.636235 0.0440811 9 2 2 
6944 6 0.661281 0.613171 0.0600508 4 1 -2 
5567 6 0.993941 0.643256 0.0739954 1 1 3 
6514 5 0.930772 0.657317 0.0402143 -7 2 3 
7692 5 0.92524 0.605128 0.0480304 -1 -3 4 
7943 6 0.979505 0.613414 0.0685006 9 -1 -3 
7808 6 0.0573476 0.674463 0.0393097 3 -1 2 
7866 6 0.0488034 0.655734 0.0579655 3 -5 -2 
6115 5 0.200134 0.642473 0.0463543 -2 1 4 
5772 6 0.788892 0.691474 0.0681228 0 -8 -4 
5670 5 0.935448 0.68793 0.0263452 1 6 1 
6585 6 0.024219 0.636902 0.063114 -2 3 1 
8921 5 0.332343 0.680225 0.0439005 2 -2 1 
7078 5 0.450151 0.731872 0.0513698 0 -4 0 
8120 6 0.563385 0.756593 0.0710717 0 -3 2 
6686 6 0.92314 0.770409 0.0544733 2 -1 -1 
6505 5 0.314027 0.803318 0.0785002 11 -4 -1 
6531 5 0.873615 0.819415 0.0526863 -2 -2 1 
6596 6 0.941615 0.832927 0.066842 1 3 -3 
8770 6 0.999945 0.834132 0.0405495 2 -2 -2 
7131 6 0.513525 0.893126 0.0883513 3 0 2 
7947 6 0.705802 0.873911 0.0804476 0 -3 -1 
5730 5 0.956168 0.873501 0.0668008 -3 5 2 
8377 6 0.261915 0.867808 0.0806992 -3 -3 -5 
8657 6 0.516534 0.897734 0.051299 4 0 -2 
8937 6 0.0753667 0.922043 0.0720243 -2 -3 -2 
6490 6 0.127143 0.92984 0.0439222 0 -1 7 
6648 5 0.260203 0.90024 0.038915 0 -1 1 
8955 6 0.369979 0.933271 0.0786798 3 1 4 
5867 6 0.550008 0.989351 0.0687686 3 -3 -3 
7682 5 0.546333 0.960036 0.042513 -4 2 2 
8870 6 0.557 0.987028 0.058685 2 1 3 
5970 6 0.55646 0.948777 0.0761651 -6 -5 -1 
8881 5 0.950394 0.973785 0.0749927 5 -2 -5 
7337 5 0.038253 0.01365 0.0502156 2 4 2 
7476 5 0.334131 0.0803103 0.0764588 1 4 -8 
5267 6 0.673987 0.0052099 0.0328554 3 2 -2 
7965 6 0.73441 0.0872233 0.089957 0 -1 -2 
6705 6 0.0866239 0.0734206 0.0433177 0 -3 3 
7593 5 0.210508 0.0498514 0.0783479 7 -1 1 
6123 5 0.780549 0.12453 0.0766042 -1 7 3 
8913 6 0.165718 0.104828 0.0975865 -4 -1 1 
6733 5 0.648953 0.14154 0.0915338 -1 7 1 
7571 6 0.724938 0.184876 0.0919432 -3 1 -3 
7831 5 0.0172696 0.155137 0.0650156 1 0 -4 
6327 5 0.143565 0.160423 0.0656087 -1 -1 -1 
8016 6 0.543417 0.120236 0.0723777 3 5 5 
8373 5 0.850266 0.196766 0.0760449 -1 0 3 
8397 5 0.0321387 0.284212 0.0466578 3 2 2 
5552 6 0.413178 0.270481 0.0724804 -1 5 2 
5477 5 0.249015 0.320769 0.108824 1 1 2 
5135 6 0.797393 0.318843 0.071998 0 -5 -5 
5192 6 0.890975 0.268927 0.0442497 1 -2 -4 
5983 6 0.413908 0.329974 0.0896493 -1 0 6 
7317 6 0.596042 0.378702 0.0881087 2 -6 -2 
8365 6 0.543584 0.377816 0.0232126 -6 2 4 
5157 6 0.234152 0.398423 0.091807 0 1 2 
5030 5 0.38608 0.393585 0.0690206 1 -4 -2 
8690 5 0.258253 0.407619 0.126329 1 -2 2 
8384 5 0.394856 0.432892 0.0750718 -3 4 0 
5782 6 0.394794 0.389367 0.0706835 2 0 0 
8725 6 0.897577 0.439297 0.0898206 0 2 1 
5728 5 0.0700639 0.455588 0.0878117 1 1 -4 
7525 5 0.580997 0.429792 0.12316 -2 3 -5 
8139 5 0.657868 0.429054 0.0279296 -2 5 4 
5163 6 0.357825 0.465264 0.105908 2 0 -2 
7755 6 0.684675 0.505006 0.0641076 -1 -4 -1 
8839 5 0.901085 0.525811 0.077375 -2 1 1 
6277 5 0.159224 0.528978 0.0782585 1 -2 -3 
8650 5 0.650561 0.537818 0.110062 -2 5 1 
5257 6 0.461256 0.576857 0.0961662 0 4 0 
7994 6 0.64611 0.545137 0.0787386 0 3 -2 
8838 6 0.641764 0.532965 0.116193 -4 0 -3 
5363 6 0.393917 0.623735 0.0769296 7 -5 -3 
6020 6 0.53325 0.569828 0.0883219 1 2 3 
5044 5 0.349453 0.586234 0.0498853 -1 1 -2 
5233 6 0.978253 0.598174 0.119454 -4 2 -4 
5261 6 0.138494 0.638862 0.0653249 7 -2 4 
6163 5 0.166186 0.651139 0.0682584 -2 -5 -1 
8760 6 0.655355 0.63292 0.105066 -3 3 0 
8392 6 0.847088 0.672064 0.0976563 2 -2 1 
6980 6 0.92704 0.680051 0.0989961 4 7 -1 
5560 5 0.958833 0.684187 0.130061 5 0 -1 
6848 5 0.0632309 0.706166 0.0631769 -1 -1 2 
8467 6 0.0712213 0.681553 0.0581887 2 -3 0 
5050 5 0.793729 0.704676 0.0952428 1 -5 -5 
5211 5 0.0586332 0.76069 0.0873111 -1 1 -3 
8589 5 0.235564 0.77187 0.076067 1 -6 3 
6391 5 0.489198 0.690071 0.0917061 2 -3 -2 
6346 6 0.949993 0.732109 0.0272532 -1 -3 -5 
5831 5 0.536077 0.749361 0.103298 -1 2 -3 
5888 6 0.310656 0.771437 0.0693627 3 0 0 
6177 6 0.463972 0.730047 0.0648205 -3 -1 2 
8389 5 0.6519 0.767995 0.0865649 -2 3 2 
7568 6 0.873285 0.748679 0.0792504 0 -5 3 
7014 6 0.399182 0.735548 0.0753479 3 0 4 
5096 5 0.57471 0.875884 0.12052 -1 0 3 
7456 5 0.948261 0.842079 0.066118 -4 -2 -3 
8025 5 0.231846 0.84314 0.0670033 1 0 -5 
5527 5 0.246408 0.859485 0.070957 -3 4 2 
6413 5 0.84838 0.872899 0.0791032 1 -1 0 
6821 6 0.411655 0.886596 0.0625722 1 -1 -1 
5902 5 0.692603 0.896726 0.0955872 1 -1 0 
7514 5 0.914732 0.927844 0.0995058 1 -4 2 
6052 6 0.288933 0.926194 0.0982136 0 2 0 
7869 6 0.480863 0.981997 0.0367608 -1 -1 2 
5305 6 0.585514 0.942065 0.102519 7 1 0 
7723 5 0.88599 0.968297 0.0624297 1 -1 -3 
5952 5 0.249869 0.953764 0.065015 0 4 4 
5826 5 0.918096 0.978896 0.0659017 -3 1 -5 
8588 5 0.945224 0.97926 0.0939597 1 0 -1 
5123 5 0.0679653 0.99752 0.0797079 -1 3 0 
5309 6 0.911102 0.956264 0.0696703 -5 -3 -3 
6603 5 0.951204 0.983833 0.0818644 3 -2 0 
8061 5 0.263817 0.0245872 0.100651 2 -6 -2 
7647 6 0.275834 0.0630356 0.0999558 -3 2 -3 
7532 6 0.816126 0.0448184 0.116754 3 -1 -3 
6724 6 0.100579 0.0654491 0.0938087 1 -4 0 
6454 6 0.796938 0.00935701 0.0889681 -2 3 4 
7930 6 0.360622 0.0222597 0.115419 -1 -1 5 
7923 5 0.876556 0.0471138 0.0947919 -3 -5 3 
6464 5 0.41075 0.107857 0.111216 -2 -1 4 
5191 6 0.46138 0.128561 0.105463 -1 1 2 
7274 6 0.231453 0.0946298 0.0517882 1 0 2 
7585 6 0.920579 0.0947849 0.0719866 1 3 0 
7125 6 0.88709 0.131092 0.0970375 3 3 -2 
5240 6 0.571548 0.15524 0.118317 2 0 6 
8031 6 0.0253171 0.180448 0.120544 1 2 -2 
5016 5 0.784063 0.188949 0.0742658 -2 -8 4 
5060 6 0.755461 0.248992 0.126212 2 -2 -1 
6675 5 0.78456 0.181127 0.145096 -1 3 0 
7151 5 0.657347 0.224774 0.104 -1 1 0 
7703 6 0.338575 0.259028 0.131629 1 -2 0 
7492 5 0.452164 0.24161 0.105456 -2 -1 -1 
7260 6 0.585612 0.275345 0.0973742 2 -7 0 
8638 5 0.251596 0.312 0.128511 -2 3 0 
8562 5 0.350175 0.324046 0.0626202 -3 0 -3 
7139 6 0.243929 0.347662 0.137191 1 -2 2 
8843 5 0.636839 0.282189 0.0557064 -1 0 2 
6887 6 0.654174 0.365392 0.0824906 -6 2 5 
8716 5 0.126677 0.419259 0.0897974 2 -1 1 
5180 6 0.294922 0.359555 0.125127 -1 2 0 
7187 6 0.732113 0.379605 0.0925487 2 -1 0 
8871 6 0.363439 0.360807 0.120042 1 -2 -5 
7999 6 0.383897 0.383707 0.100985 1 -3 0 
6682 6 0.549535 0.384479 0.144586 -3 -1 -4 
5481 6 0.911488 0.436972 0.111061 1 2 -8 
8565 5 1.00028 0.35776 0.111954 2 -6 8 
6721 6 0.354784 0.461273 0.0689361 1 -3 1 
6713 6 0.470739 0.422974 0.120178 -3 -1 2 
6408 5 0.133017 0.484621 0.0770896 -2 -5 3 
8166 5 0.510916 0.462608 0.0709728 -4 3 -2 
8152 5 0.237885 0.497552 0.0760389 3 -1 -1 
5284 6 0.331849 0.490658 0.111361 0 -3 -2 
5217 6 0.766914 0.488185 0.137968 0 4 -6 
6762 5 0.946051 0.505342 0.121737 0 -1 -7 
7574 5 0.721578 0.439198 0.0904228 5 1 -1 
5357 6 0.937852 0.509583 0.101135 -2 2 -2 
8316 6 0.0260636 0.498219 0.140458 -5 -3 0 
6385 5 0.120254 0.478209 0.096966 2 0 1 
5966 5 0.242726 0.539683 0.113105 1 -3 0 
8655 6 0.308105 0.577018 0.110248 2 -4 1 
8524 6 0.804821 0.546562 0.1264 -4 3 -6 
7378 5 0.19193 0.579534 0.0937815 -1 2 -3 
5054 6 0.459325 0.549996 0.104372 0 5 1 
6794 6 0.161392 0.566387 0.0920532 0 -3 -6 
7427 6 0.915466 0.597803 0.108643 -1 -2 -1 
8260 5 0.319777 0.60564 0.0806788 -2 -3 3 
5154 6 0.691092 0.641585 0.0699329 -1 4 0 
5005 5 0.113895 0.651247 0.0935438 4 -2 -2 
6958 5 0.362472 0.634915 0.118831 4 2 0 
7523 6 0.042811 0.690582 0.0639062 5 0 0 
8559 5 0.186671 0.673815 0.0989136 0 2 3 
5583 5 0.157325 0.685161 0.137197 -5 -1 3 
6972 6 0.469179 0.672334 0.0957507 -1 -3 -1 
7436 5 0.497237 0.715182 0.103595 -1 0 -1 
8858 5 0.805712 0.760953 0.108746 -1 2 1 
5870 6 0.299067 0.660527 0.127072 1 -8 4 
7530 5 0.707236 0.71607 0.0866471 -1 5 -1 
7872 5 0.312375 0.744775 0.0889722 -7 -4 3 
7460 5 0.689574 0.759002 0.114985 4 1 1 
7890 6 0.712781 0.756513 0.114327 1 1 1 
6233 5 0.752066 0.741411 0.133696 -2 -2 -1 
7801 6 0.818132 0.726395 0.103855 0 1 -5 
7050 6 0.350442 0.765167 0.05682 4 3 2 
6656 6 0.947938 0.741575 0.0999806 -1 0 1 
8556 5 0.43903 0.795359 0.0849184 -2 2 3 
7019 6 0.0980239 0.828943 0.0764497 -6 0 5 
6576 6 0.331865 0.812769 0.0408256 0 0 3 
8071 5 0.707179 0.89709 0.113138 -6 2 2 
7363 6 0.675649 0.893266 0.0902694 3 -1 -3 
5596 6 0.722344 0.910276 0.115139 4 3 0 
5502 5 0.0932344 0.929983 0.0810512 2 -1 0 
5495 5 0.395805 0.911053 0.0641027 2 1 -1 
6090 6 0.150897 0.979995 0.0645265 2 3 0 
6822 6 0.0817027 0.0195506 0.0719285 -1 2 -2 
5281 6 0.466218 0.0139364 0.131982 -5 4 6 
7080 5 0.550075 0.967073 0.10819 4 -4 -3 
8774 5 0.552484 0.0311878 0.0958793 1 0 1 
6599 6 0.749671 0.0287616 0.111331 8 -2 2 
7218 5 0.884714 0.0245348 0.144633 1 3 -3 
5680 6 0.393526 0.0913463 0.142506 4 -3 -1 
8380 6 0.761909 0.133946 0.118417 -8 0 2 
7867 6 0.7033 0.0946276 0.11073 2 -2 4 
8060 6 0.957338 0.117792 0.127038 7 -8 0 
7737 5 0.366711 0.179091 0.0801276 5 1 7 
8841 6 0.904494 0.153275 0.121517 -1 -1 3 
6815 5 0.363456 0.139464 0.145433 3 -1 -1 
5228 6 0.81966 0.148254 0.13054 -1 3 -2 
8363 5 0.384101 0.182198 0.132973 2 -6 1 
5637 5 0.492987 0.211002 0.130981 8 0 3 
5755 5 0.537431 0.200932 0.134174 0 4 -1 
5675 6 0.0304001 0.229891 0.122457 -2 -4 -1 
5451 6 0.137586 0.279879 0.115313 1 0 2 
7398 5 0.309322 0.271741 0.150314 0 -1 -2 
8966 6 0.710801 0.250155 0.139542 -2 -1 2 
5432 6 0.642104 0.279904 0.131535 2 0 0 
6601 6 0.987164 0.239628 0.141723 1 1 -3 
7321 5 0.348281 0.298612 0.103476 1 1 1 
8893 6 0.396537 0.2936 0.0823475 2 0 5 
7899 6 0.252188 0.356913 0.121625 2 -1 1 
8094 5 0.444619 0.345114 0.122213 -1 1 -5 
5824 5 0.936246 0.313436 0.122829 0 -9 7 
6125 6 0.937435 0.322692 0.158324 -4 -1 2 
6767 6 0.966136 0.360798 0.123114 -4 1 0 
6896 6 0.0944344 0.33936 0.125461 1 4 4 
8494 5 0.173883 0.354052 0.130976 3 -5 -2 
7670 5 0.418586 0.318278 0.124162 2 0 0 
7506 6 0.456305 0.369483 0.113487 2 -2 -1 
7393 5 0.151919 0.328134 0.141025 -2 0 -2 
8828 6 0.3105 0.368053 0.110186 -2 3 -3 
8949 6 0.8944 0.379892 0.0597492 3 -2 -4 
6534 5 0.335446 0.406504 0.0684272 7 0 -3 
8895 5 0.278616 0.427295 0.121232 1 4 -1 
8259 5 0.971942 0.416104 0.103276 -2 -3 3 
5402 6 0.102913 0.44104 0.123891 -1 6 2 
7632 6 0.268725 0.423831 0.108483 8 -4 1 
5152 5 0.766623 0.44201 0.130496 0 3 -3 
7384 6 0.826608 0.399315 0.136361 2 3 -1 
6031 6 0.949478 0.460842 0.136017 -2 1 2 
5609 5 0.0694615 0.443114 0.150471 -2 5 -1 
6900 5 0.477845 0.498523 0.126331 1 4 3 
6340 5 0.220253 0.464926 0.111094 1 1 -3 
5389 6 0.401425 0.513108 0.137728 -2 2 6 
8836 6 0.615362 0.533607 0.14309 5 0 -6 
7658 5 0.693267 0.487149 0.136526 2 0 4 
8349 6 0.694674 0.512067 0.0996555 -2 -1 1 
8066 6 0.855466 0.536868 0.127321 2 -1 -1 
7003 5 0.113286 0.543682 0.121614 -1 2 -5 
8915 5 0.387201 0.559253 0.0949896 3 -2 -2 
7951 5 0.73055 0.559372 0.116603 3 -1 1 
7020 6 0.465782 0.565459 0.119543 -1 -2 -5 
7927 6 0.536342 0.59882 0.153286 -2 -3 2 
7468 5 0.826173 0.617049 0.101035 0 0 -5 
8141 6 0.938665 0.584048 0.140513 -3 -2 -2 
7111 6 0.947118 0.627154 0.113009 -1 4 1 
8730 6 0.349352 0.659672 0.10265 1 -2 -2 
7845 5 0.736724 0.678112 0.136676 -2 -3 2 
7390 5 0.816228 0.607713 0.115308 -2 -1 -1 
7709 6 0.513396 0.669491 0.108255 1 -3 6 
8965 6 0.702099 0.650045 0.109622 -5 0 2 
6348 5 0.608331 0.656889 0.117999 -1 5 -1 
7932 6 0.0166336 0.677282 0.158552 -1 3 4 
6868 5 0.0884213 0.700393 0.157412 -2 1 2 
8907 6 0.21828 0.657336 0.134235 -6 1 3 
8028 5 0.892846 0.689076 0.124805 3 -2 5 
5497 5 0.118005 0.729174 0.11677 -1 2 7 
6305 5 0.167402 0.695747 0.130574 -2 0 1 
7485 6 0.655296 0.718442 0.16801 0 -3 1 
8640 5 0.737703 0.718099 0.141526 -2 -2 1 
5048 6 0.661179 0.732687 0.160829 0 -1 0 
7621 6 0.689769 0.752062 0.113687 0 5 1 
5378 5 0.709764 0.707242 0.134824 0 -2 4 
6210 5 0.778789 0.791045 0.12334 0 3 3 
7858 6 0.254937 0.764444 0.107418 0 -3 0 
8908 6 0.102075 0.777464 0.13713 0 -1 0 
7178 5 0.25602 0.797774 0.0918171 -1 -2 -5 
8536 5 0.408898 0.83543 0.117043 -1 -1 1 
7551 6 0.571707 0.814865 0.0955611 -4 -3 1 
5283 6 0.203298 0.859797 0.113083 -2 0 3 
5113 6 0.49978 0.859206 0.088802 7 2 0 
6211 6 0.416484 0.853952 0.103779 0 -2 2 
6798 6 0.700317 0.908591 0.100992 0 2 3 
7959 6 0.74217 0.868542 0.162806 -3 -1 4 
8269 6 0.967836 0.910344 0.110998 3 2 0 
8653 6 0.643291 0.865631 0.106487 -2 1 -1 
6443 6 0.0701748 0.944896 0.116443 3 0 3 
6726 6 0.63119 0.908211 0.140699 3 -4 -6 
7332 5 0.843084 0.901505 0.146817 -3 4 2 
8206 5 0.543275 0.952554 0.12056 4 -1 3 
8676 6 0.587426 0.960486 0.102208 -8 -6 4 
7666 5 0.933451 0.9477 0.132508 3 3 -4 
6965 5 0.98786 0.00892393 0.102571 1 0 1 
8038 6 0.0253136 0.0382205 0.151135 3 2 2 
7516 6 0.116106 0.0595351 0.115411 -5 -2 -1 
8407 6 0.170027 0.0052833 0.160908 -3 -1 2 
7374 6 0.708375 0.0915834 0.107593 3 -2 2 
6359 5 0.198213 0.0497707 0.174929 -2 3 0 
5053 6 0.555369 0.111967 0.12922 8 -1 3 
6011 6 0.213265 0.0794767 0.142787 -2 -2 0 
8776 6 0.443661 0.0934106 0.123361 -6 -1 -2 
6240 6 0.131056 0.0984238 0.138405 -3 -1 -1 
5040 6 0.324679 0.104637 0.173139 1 -1 -3 
8359 5 0.74132 0.161084 0.174378 -2 1 -3 
8910 6 0.759081 0.124563 0.145596 3 3 -6 
8541 6 0.780042 0.1281 0.146909 -3 6 2 
5715 6 0.750277 0.148023 0.128435 0 -3 2 
6549 6 0.71714 0.152054 0.186127 3 6 -1 
7563 6 0.800301 0.198479 0.125909 2 1 1 
6079 5 0.055187 0.211939 0.157866 6 -4 2 
8459 6 0.0966732 0.21211 0.160919 0 1 -2 
6299 6 0.147688 0.210479 0.108288 -4 -1 4 
8595 5 0.30538 0.232886 0.184192 -3 1 -2 
6717 5 0.340735 0.1735 0.135241 6 -3 -1 
7453 5 0.27632 0.217341 0.174365 1 -2 1 
8920 5 0.781606 0.25052 0.167195 -7 -5 4 
5891 5 0.20582 0.258938 0.164581 -6 -1 0 
5198 5 0.459709 0.253903 0.132756 0 -2 2 
7935 6 0.602854 0.277503 0.183572 -1 -2 7 
8067 5 0.123667 0.301108 0.150294 3 0 -3 
6473 5 0.217783 0.30398 0.151944 4 4 3 
6608 6 0.885353 0.309921 0.135676 3 3 -4 
8652 6 0.603057 0.328409 0.176106 1 2 -2 
7024 6 0.155812 0.360147 0.100176 -1 -1 5 
8048 6 0.161002 0.305685 0.122828 2 4 1 
8072 6 0.395286 0.334249 0.180357 1 0 1 
6643 6 0.340433 0.357644 0.132765 -2 -6 1 
6049 6 0.792829 0.34713 0.136363 -6 -3 -1 
6793 5 0.430139 0.343261 0.130092 0 -2 1 
8239 6 0.454356 0.387695 0.130601 2 2 -2 
7285 6 0.388938 0.419696 0.12608 0 1 0 
8980 6 0.691906 0.417467 0.167455 -1 0 -3 
7618 6 0.28131 0.4115 0.186307 1 2 -1 
7829 5 0.923502 0.468578 0.136721 4 -1 7 
7868 5 0.992281 0.418705 0.173717 -2 2 4 
6934 5 0.455399 0.448051 0.167563 2 1 6 
8081 6 0.826458 0.491618 0.139656 -6 3 1 
6038 6 0.412324 0.544084 0.14422 -2 -2 5 
6269 6 0.480476 0.516761 0.108089 0 2 0 
8332 5 0.791376 0.571114 0.143333 -3 3 -4 
8833 6 0.542078 0.61819 0.15676 2 -3 -1 
8007 6 0.22245 0.569948 0.141633 -3 -5 -2 
7657 5 0.338148 0.63852 0.166662 5 -1 3 
7223 6 0.45907 0.63666 0.137799 2 1 -4 
5051 5 0.949551 0.673113 0.128841 1 -1 -3 
6326 5 0.409552 0.676483 0.14338 -2 -1 -2 
5097 5 0.304948 0.739651 0.126963 -5 0 -3 
5940 5 0.609807 0.716905 0.127229 -2 1 -1 
7307 6 0.675656 0.75468 0.13083 5 0 -2 
5791 5 0.534028 0.805119 0.17884 -1 -1 -2 
6598 6 0.0198499 0.826411 0.181139 0 -5 -1 
5905 6 0.0465599 0.841217 0.132207 -1 -5 3 
6763 6 0.386995 0.931616 0.129463 4 1 -2 
7987 5 0.660643 0.949047 0.095854 -1 0 0 
5165 5 0.464789 0.000570084 0.138544 0 2 0 
8996 5 0.539519 0.00156562 0.124096 2 0 -2 
7791 6 0.281533 1.00103 0.139982 -1 -1 -5 
7200 6 0.971594 0.993486 0.144541 -1 -2 -2 
5523 6 0.0996514 0.0186966 0.167409 0 4 -3 
6383 5 0.859113 0.0301303 0.158405 4 2 3 
6684 5 0.292119 0.0111596 0.133066 -5 2 0 
8845 6 0.369931 0.0409031 0.173623 3 -1 3 
7879 6 0.181675 0.067917 0.148298 1 4 -3 
8379 5 0.312584 0.0344484 0.144088 1 4 -1 
6147 5 0.356564 0.0680827 0.191936 -1 3 -1 
8496 6 0.459292 0.138093 0.139415 0 1 -2 
8075 6 0.711706 0.104273 0.173308 4 -2 2 
8473 6 0.0133639 0.110277 0.147038 -1 -3 1 
7262 5 0.476943 0.197884 0.193193 -3 6 5 
5842 6 0.663425 0.241923 0.159125 4 -1 -3 
8433 5 0.738675 0.211584 0.174268 1 3 -4 
8357 6 0.220621 0.223643 0.170247 2 -4 2 
5101 5 0.638075 0.231831 0.175331 2 2 4 
5830 6 0.848286 0.254637 0.180005 1 1 2 
6966 6 0.994708 0.253083 0.176662 -7 -2 0 
7213 5 0.148523 0.28611 0.173766 1 -2 3 
5425 6 0.337684 0.28775 0.186864 3 3 3 
5052 6 0.660228 0.30189 0.18306 -2 2 -6 
6274 6 0.754001 0.332923 0.159098 -2 2 0 
8169 6 0.264775 0.359598 0.180665 1 1 -1 
7432 6 0.52388 0.346391 0.163621 0 -8 4 
5883 6 0.671192 0.316246 0.153053 -5 -1 1 
5006 5 0.552578 0.339112 0.179967 2 -2 0 
7342 5 0.670693 0.400636 0.144341 1 -1 3 
8037 6 0.802142 0.369888 0.183297 5 0 2 
7842 6 0.289583 0.368384 0.163096 -1 -1 -6 
8393 5 0.55146 0.394261 0.168134 -1 2 -1 
5372 5 0.723163 0.412076 0.205693 -1 3 2 
8517 6 0.05221 0.443024 0.13831 5 -1 1 
7655 5 0.435039 0.411379 0.2027 1 2 8 
7132 5 0.0277012 0.477458 0.170313 0 2 8 
7710 5 0.335487 0.438981 0.208031 4 1 0 
8268 6 0.496789 0.477919 0.207105 5 4 -2 
5979 6 0.891112 0.455501 0.186821 0 0 1 
5185 5 0.046325 0.547299 0.174042 4 3 -2 
8818 6 0.523887 0.55615 0.18518 -7 -3 -5 
6072 5 0.652906 0.5211 0.157055 1 -1 2 
8854 6 0.448131 0.582711 0.173473 1 4 -3 
7190 6 0.762116 0.574902 0.15416 -2 -1 0 
8991 6 0.106426 0.660988 0.155297 -1 -4 2 
8927 6 0.21373 0.63274 0.164636 6 -2 1 
8146 6 0.975102 0.60752 0.137148 1 5 -4 
5406 5 0.435303 0.626706 0.162515 -1 2 2 
7712 5 0.473329 0.661692 0.175292 -2 4 -6 
8422 5 0.741577 0.67122 0.161179 3 0 0 
5263 5 0.470518 0.715428 0.142035 3 2 4 
8931 5 0.572127 0.737438 0.167117 0 -5 1 
8938 6 0.68492 0.746916 0.143852 -1 1 -2 
5414 5 0.432778 0.789162 0.182766 0 0 4 
7752 6 0.524684 0.756604 0.199607 1 1 -2 
7451 5 0.54843 0.802671 0.161868 -3 0 2 
5268 5 0.585119 0.758225 0.175201 1 0 -1 
8065 5 0.114844 0.82325 0.180057 -1 -1 -3 
8594 6 0.338665 0.770815 0.122822 1 2 2 
5070 6 0.340201 0.800887 0.155937 1 1 -1 
8723 5 0.742924 0.800898 0.178618 -1 -2 -4 
7700 6 0.522755 0.81244 0.18015 -2 -5 -1 
6638 5 0.836052 0.858381 0.198813 1 -4 -2 
6927 6 0.447299 0.899852 0.170468 -1 0 1 
6230 6 0.944697 0.848151 0.124352 0 0 5 
6742 6 0.997591 0.891494 0.168047 3 -3 -7 
5865 5 0.129514 0.955209 0.190791 4 3 5 
8984 6 0.16056 0.915931 0.139768 3 0 3 
7031 5 0.343433 0.938121 0.17293 -1 2 1 
5931 5 0.350728 0.926446 0.148858 -2 1 2 
5446 6 0.428033 0.943129 0.191564 1 -6 -1 
6377 5 0.610735 0.975903 0.177506 -2 1 -3 
7058 6 0.857144 0.963366 0.176014 3 -4 2 
7911 5 0.136727 1.00141 0.177389 5 -5 -4 
7209 5 0.194812 0.989804 0.185318 -3 1 -6 
7822 6 0.407752 0.974348 0.167071 1 -2 2 
8678 5 0.844137 0.996828 0.167444 2 -1 1 
7264 5 0.325179 0.0204003 0.178137 7 -1 2 
8658 5 0.752056 0.0490052 0.153305 -2 3 3 
6712 6 0.44871 0.0441466 0.183484 0 -1 -3 
6399 6 0.326615 0.126182 0.159634 -8 1 0 
8873 5 0.592546 0.0752973 0.16323 3 -2 5 
7503 5 0.984765 0.113641 0.215242 1 -6 3 
8334 6 0.56032 0.17659 0.162668 -3 -2 -1 
7287 6 0.941872 0.1594 0.171145 -5 5 0 
8193 5 0.878143 0.198273 0.178648 -3 0 4 
6122 6 0.281139 0.213829 0.161624 4 4 6 
6390 6 0.415633 0.221519 0.182303 2 3 1 
5068 6 0.533152 0.200845 0.215223 -3 1 4 
8406 5 0.036518 0.301438 0.188877 0 -1 5 
7824 6 0.574769 0.220069 0.160029 -2 0 1 
7917 6 0.793794 0.246533 0.229979 -3 0 3 
6877 5 0.186185 0.286358 0.167836 5 1 -3 
6560 6 0.479117 0.277139 0.199142 1 -2 -1 
7771 6 0.705726 0.332638 0.237492 0 0 -2 
5076 6 0.420625 0.361965 0.20108 -3 -1 3 
8989 6 0.912236 0.369935 0.191355 -4 -1 3 
6658 6 0.529165 0.424097 0.22997 -3 -1 0 
7683 6 0.747198 0.364343 0.158014 -1 1 -1 
8477 5 0.828742 0.400282 0.177116 2 -4 -1 
8599 6 0.223703 0.452071 0.17811 0 -5 1 
5682 6 0.853934 0.425886 0.214473 3 1 4 
8734 6 0.396236 0.482922 0.193134 6 -2 0 
5427 5 0.838494 0.471422 0.216474 1 0 -1 
8853 5 0.0735622 0.500427 0.187234 2 3 6 
6664 5 0.415065 0.529998 0.184635 1 -3 -5 
7762 6 0.824227 0.520719 0.183883 0 -3 -2 
5759 6 0.644367 0.549787 0.180749 2 1 -2 
5595 6 0.734038 0.641601 0.20934 -1 0 4 
6173 5 0.307321 0.659067 0.185815 3 0 1 
6919 5 0.392407 0.632199 0.184801 2 -1 4 
6074 6 0.776712 0.66549 0.198377 2 -1 -4 
6912 6 0.70477 0.652255 0.230409 2 -2 0 
5592 5 0.185545 0.695908 0.160533 -2 -6 1 
8740 5 0.256626 0.725385 0.215426 -3 -1 4 
8782 6 0.523089 0.686611 0.190353 -1 -2 1 
7063 6 0.473019 0.729342 0.187753 0 2 -2 