ITEM: TIMESTEP
20000000
ITEM: NUMBER OF ATOMS
9000
ITEM: BOX BOUNDS pp pp pp
-75 75
-75 75
-75 75
ITEM: ATOMS id type xs ys zs ix iy iz 
5247 5 0.11637 0.99074 0.0259176 5 -4 -3 
7142 5 0.498306 0.0139671 0.0455969 4 4 2 
5546 5 0.851508 0.0152687 0.0144166 2 -3 -1 
7832 5 0.0861204 0.0556479 0.0147393 4 -5 -2 
6972 5 0.940251 0.0392084 0.00437096 2 2 2 
7621 5 0.105723 0.0622049 0.967636 -2 -7 -3 
7527 6 0.146941 0.0186991 0.0232485 0 0 0 
7049 5 0.265418 0.065579 0.972449 2 -6 0 
8181 6 0.082515 0.167287 0.0424957 -3 -1 1 
6443 5 0.364327 0.162809 0.0390372 0 -1 -3 
5540 5 0.49186 0.141898 0.0186934 2 5 -3 
5752 6 0.774605 0.0964321 0.983186 1 -1 -3 
5201 5 0.898117 0.170102 0.0542815 -1 -7 2 
6265 6 0.693132 0.154015 0.0101484 -3 2 -3 
7071 5 0.264371 0.187933 0.0568812 4 1 2 
8168 6 0.529562 0.216826 0.995322 -2 -5 4 
5528 5 0.585335 0.25718 0.0287573 4 1 -2 
5133 5 0.671956 0.200501 0.993466 0 -2 3 
7134 6 0.840622 0.189425 0.981524 -2 3 -2 
7814 5 0.553199 0.221997 0.99586 0 -2 -1 
7659 6 0.615936 0.179602 0.994335 -5 5 2 
6378 5 0.665657 0.230344 0.984509 -1 6 -1 
8099 6 0.00554362 0.227079 0.0173157 -3 -3 -3 
5691 6 0.147999 0.276567 0.0128536 1 3 3 
6145 6 0.0901245 0.317723 0.00466546 3 -4 3 
6652 6 0.762177 0.277971 0.0109383 -2 -4 2 
5368 6 0.794228 0.358563 0.982945 -1 4 -4 
8415 6 0.904529 0.280883 0.989154 -5 -3 3 
5523 5 0.958351 0.33163 0.981321 -2 -1 6 
5792 6 0.180061 0.314366 0.977192 0 -1 -4 
7435 5 0.890328 0.373308 0.0406958 1 -4 -2 
7478 6 0.961702 0.370055 0.998217 -2 -2 -1 
8034 6 0.332481 0.416658 0.98417 -4 3 1 
6717 5 0.47936 0.402446 0.00602388 2 3 2 
6321 5 0.594441 0.401772 0.01962 6 -1 2 
7868 5 0.606197 0.387293 0.987594 1 -5 -5 
7743 5 0.0673034 0.417518 0.0174966 0 2 -4 
6969 5 0.375785 0.44139 0.962934 0 2 0 
7697 6 0.766579 0.483729 0.016437 1 1 -3 
6758 5 0.0943599 0.507191 0.0281265 1 2 3 
8815 6 0.284125 0.46139 0.0394656 -3 4 -5 
5783 6 0.706721 0.488085 0.965096 1 3 -2 
5374 6 0.0740501 0.523826 0.99364 3 -1 5 
7549 5 0.00466831 0.540202 0.00822944 -1 2 0 
7850 5 0.365102 0.566307 0.0206699 0 -1 -7 
5728 5 0.57263 0.515122 0.99085 3 -2 3 
7852 5 0.56486 0.529671 0.0130297 -6 -1 -2 
6865 5 0.984322 0.506273 0.995159 -3 -5 -1 
6555 6 0.445017 0.572804 0.0419049 0 0 -5 
6497 6 0.461311 0.545633 0.010402 3 1 4 
5430 6 0.321096 0.590284 0.0116299 -1 -1 -1 
7530 6 0.925791 0.581171 0.0333128 -6 3 -3 
6595 6 0.0455723 0.630207 0.00558212 -1 -1 5 
5835 6 0.763269 0.62804 0.0231216 0 8 3 
7524 5 0.760865 0.643219 0.0308728 2 1 -4 
7585 6 0.493711 0.625538 0.00900784 -2 -1 -4 
7384 5 0.501444 0.683657 0.0291497 -1 0 -2 
6577 6 0.94741 0.684008 0.0295667 2 2 5 
8334 5 0.264156 0.672806 0.0148189 -3 3 2 
5319 6 0.895823 0.715047 0.0281314 -1 0 4 
8732 5 0.106981 0.72194 0.0244316 -1 1 -5 
5786 6 0.169789 0.749173 0.989228 1 -1 -2 
8808 5 0.368201 0.731338 0.00402996 -1 -1 -1 
7009 5 0.352071 0.745719 0.0322982 0 -4 0 
7359 6 0.473117 0.746829 -0.000124536 -6 -5 6 
5823 6 0.566093 0.724802 0.0101723 3 -4 -3 
5725 5 0.691691 0.705258 0.979224 -2 -1 4 
7242 6 0.955061 0.76304 0.00730052 -1 -2 1 
8253 6 0.621589 0.803182 0.989487 0 -1 2 
8725 5 0.422378 0.820044 0.99106 -6 2 -2 
7596 6 0.592386 0.842291 0.990633 -1 -6 -1 
5916 5 0.38127 0.875778 0.00168027 2 -1 4 
5905 5 0.321551 0.916264 0.00743631 0 -1 4 
5085 6 0.473205 0.872321 0.978415 1 2 0 
8274 5 0.294489 0.910004 0.977998 -2 2 -1 
7681 5 0.329881 0.922705 0.997032 1 -5 -1 
5433 5 0.890368 0.962703 0.0219384 -1 -5 3 
5288 6 0.517326 0.978147 0.993826 1 3 -2 
8895 5 0.548938 0.935902 0.0121279 0 1 4 
8387 5 0.986645 0.0551369 0.0427582 -9 -2 2 
8853 5 0.526703 0.982131 0.0254077 1 -1 -3 
8028 5 0.666064 0.0266181 0.022092 0 -3 2 
5507 6 0.705549 0.998958 0.023154 2 5 3 
7520 5 0.703285 0.00251354 0.0339239 -1 -2 -2 
7963 6 0.00826168 0.0478959 1.00013 0 -2 9 
8905 6 0.279602 0.056651 0.036943 3 1 0 
6805 5 0.64343 0.0447864 0.0566731 1 0 0 
6812 6 0.147308 0.0485035 0.0116267 -4 -5 4 
5997 6 0.238366 0.0884617 0.0209819 -1 0 2 
5600 6 0.376371 0.0980178 0.0653291 4 3 0 
6894 6 0.483642 0.103694 0.0593978 5 2 -2 
6565 5 0.59454 0.0903534 0.0510565 -3 1 2 
8493 5 0.519341 0.0649885 0.0175872 -3 -5 -5 
8348 5 0.977186 0.110682 0.9903 -4 -2 4 
7030 5 0.448794 0.143622 0.0795834 1 1 3 
6641 6 0.712327 0.132126 0.0325113 -5 -1 -4 
8517 6 0.0939683 0.142567 0.0211494 1 -5 3 
6880 5 0.963532 0.143895 0.0386856 1 0 -1 
8775 6 0.0172074 0.139942 0.0272857 -4 1 1 
8767 5 0.026232 0.198165 0.0839046 4 -1 -2 
6318 6 0.823967 0.176618 0.0250517 -3 -4 2 
8684 6 0.134201 0.214574 0.051196 -1 1 -2 
7623 6 0.331348 0.234148 0.0438143 -5 0 1 
5396 6 0.0720863 0.230557 0.0630604 -2 6 -3 
5080 6 0.389994 0.261066 -0.000619132 0 1 -1 
6314 5 0.024476 0.283821 0.00571356 3 6 6 
5159 6 0.858344 0.298668 0.0454399 3 0 1 
5525 6 0.0763336 0.281487 0.0109243 3 -5 4 
5737 5 0.826264 0.299841 0.0157282 -4 2 -3 
6300 5 0.964649 0.272919 0.033894 -3 -1 4 
5825 6 0.327525 0.367566 0.0498746 -2 3 2 
8535 6 0.568115 0.352885 0.024431 0 -5 0 
7954 6 0.66722 0.358869 0.0518811 2 3 0 
5482 6 0.716512 0.36983 0.0631145 -5 -1 1 
5590 6 0.302828 0.3929 0.0301214 1 -3 3 
7737 5 0.811119 0.403208 0.0331509 -1 1 4 
8975 6 0.122129 0.408312 0.0400533 -3 3 -1 
6472 5 0.597329 0.396677 0.0487956 2 -6 -6 
8758 5 0.411347 0.449299 0.00359224 -3 0 -2 
7679 6 0.917851 0.48198 0.0633495 -2 -1 -2 
7061 6 0.153915 0.499815 0.00271778 -1 -2 4 
5890 6 0.697043 0.512171 0.0448573 1 -4 -6 
8025 5 0.710743 0.528788 0.015705 3 2 -2 
7632 6 0.851211 0.556103 0.0372761 -5 -1 2 
5179 5 0.554839 0.585153 0.0216807 1 -2 -1 
7510 6 0.615499 0.54264 0.0227735 3 -2 1 
5348 6 0.723847 0.559637 0.0264519 2 -2 1 
5578 5 0.188303 0.586815 0.0348522 2 3 1 
8071 5 0.0871509 0.610966 0.0299482 3 0 0 
7517 6 0.621332 0.577856 0.0610718 -1 -3 4 
6739 6 0.915076 0.609623 0.0433429 -3 5 -3 
7534 6 0.605007 0.626598 0.0680863 -1 0 -4 
6929 5 0.602085 0.714432 0.0368979 2 -3 3 
5387 6 0.673768 0.686286 0.0216458 6 -3 1 
5294 5 0.1777 0.761219 0.0515968 -2 2 -3 
6174 6 0.950527 0.703446 0.0414596 -1 -1 4 
5571 6 0.147505 0.765362 0.0352732 0 0 -3 
7445 5 0.297606 0.725511 0.00295847 0 -4 -1 
7333 6 0.28778 0.767917 0.0378265 1 4 3 
5254 6 0.296936 0.734355 0.0542582 0 -1 -2 
5914 5 0.568922 0.766949 0.0608351 2 -1 -4 
6348 5 0.703008 0.764479 0.0614106 -3 -1 -1 
7480 5 0.468259 0.833682 0.982953 0 1 -1 
8446 6 0.0344723 0.811149 0.0218957 4 0 0 
7344 5 0.282358 0.80791 0.0442491 4 -1 2 
5441 6 0.296681 0.808738 0.0355149 5 -3 1 
5206 6 0.0569456 0.857422 0.0187802 -2 -4 -4 
5637 5 0.197249 0.850683 0.0722588 -1 -3 -1 
8811 6 0.183909 0.870549 0.0381816 2 -2 -2 
5769 5 0.342019 0.798914 0.0194918 -1 -2 0 
8076 5 0.0586287 0.849642 0.0510895 -5 3 0 
5942 5 0.173296 0.891934 0.0270511 -1 -1 3 
6792 5 0.33175 0.82473 0.0374756 -1 -3 3 
6457 6 0.522753 0.838601 0.0479725 4 2 -3 
5457 5 0.121714 0.876271 0.00710052 3 2 3 
6602 5 0.57765 0.872545 0.0722629 -2 3 -4 
5214 5 0.799209 0.914715 0.0501965 -4 -4 4 
7451 6 0.875643 0.881344 0.0538752 2 -2 -2 
7461 6 0.923576 0.887229 0.0420921 -3 2 -4 
7397 6 0.492409 0.904884 0.0203245 1 -5 2 
7618 6 0.456793 0.937365 0.0473322 -1 -2 2 
5116 6 0.646769 0.923754 0.0331686 -4 1 0 
6090 5 0.954273 0.932448 0.0306934 -1 -2 0 
7979 5 0.772641 0.956172 0.999477 -6 0 3 
8309 5 0.913974 0.97482 0.0183491 -2 -3 0 
8922 5 0.152741 0.995543 0.0357608 4 0 -2 
6062 6 0.932034 0.963372 0.0268238 -2 -2 0 
8966 6 0.0241948 0.992317 0.0632446 -5 0 0 
6844 6 0.376747 0.97152 0.0350232 -3 -2 2 
8892 5 0.680671 0.0443133 0.0398475 -2 4 -4 
8586 6 0.634444 0.0443731 0.089748 -3 2 1 
5839 5 0.386284 0.0857076 0.0490253 3 0 0 
8947 5 0.415913 0.0874158 0.0387143 -3 3 1 
6440 6 0.189092 0.124717 0.0362527 1 -2 1 
8290 5 0.332196 0.136111 0.0225508 4 -1 2 
5952 6 0.665959 0.117077 0.0462557 -2 -2 1 
5452 5 0.944129 0.125028 0.0197793 -1 -1 -1 
7376 5 0.711697 0.152622 0.0358898 3 -6 0 
6008 6 0.866112 0.116084 0.0606344 3 5 -2 
5392 5 0.861603 0.128975 0.0407521 -2 -1 2 
7081 6 0.114752 0.183673 0.0251202 1 3 -1 
8742 6 0.995009 0.184504 0.0784842 -2 -1 4 
7717 6 0.635666 0.264154 0.0319801 -4 4 -2 
6980 5 0.275313 0.274304 0.0483516 2 -1 3 
8108 6 0.129284 0.283719 0.0281559 0 -2 -5 
5817 6 0.39011 0.289621 0.0877806 -1 3 -2 
6754 6 0.519749 0.341835 0.0644807 -2 2 -2 
5689 6 0.544137 0.373396 0.108592 -1 3 1 
8598 5 0.602945 0.304455 0.0568549 2 0 -1 
5449 5 0.132998 0.330532 0.0823703 3 -1 2 
6817 5 0.562606 0.355758 0.071139 1 -4 -4 
6095 5 0.672597 0.388055 0.0264257 -5 3 4 
8712 6 0.640847 0.422612 0.0696233 1 1 -1 
8685 6 0.0660634 0.389724 0.010953 -5 1 -2 
7207 6 0.281588 0.378012 0.0699808 -1 -4 -5 
8227 5 0.737966 0.424375 0.0729377 -2 2 4 
5642 5 0.936325 0.4201 0.0807788 0 0 -1 
5160 6 0.112165 0.45207 0.0418034 -3 2 -1 
7927 5 0.974253 0.436011 0.0500183 0 -3 1 
5477 5 0.195754 0.484096 0.0223869 5 -1 1 
7252 5 0.246575 0.487727 0.0534989 2 4 5 
5738 6 0.290621 0.48207 0.0550152 -1 2 4 
6828 6 0.360533 0.432878 0.0328904 0 1 2 
8367 6 0.434561 0.481137 0.0594643 0 5 0 
6629 6 0.618722 0.467722 0.0207359 -3 0 6 
7159 6 0.473303 0.553933 0.0650977 -5 2 2 
5882 5 0.630588 0.56874 0.0355493 -1 6 0 
8310 5 0.0143912 0.56302 0.0414591 2 0 2 
8017 6 0.175875 0.620729 0.0793811 -2 1 2 
8104 5 0.63522 0.62536 0.0421074 -2 -7 1 
5228 6 0.759334 0.601594 0.0799181 -2 3 -1 
5907 5 0.310079 0.628808 0.0498325 4 -4 0 
7236 6 0.320924 0.657271 0.0440475 4 -8 2 
6483 6 0.634175 0.635602 0.0651165 -6 4 -1 
6031 5 0.971893 0.614386 0.0780755 2 -4 -2 
8874 5 0.486224 0.686956 0.0584795 0 2 3 
7946 5 0.556637 0.6662 0.0806359 -2 6 -1 
5412 6 0.188118 0.675356 0.0876234 1 0 3 
7157 6 0.354974 0.68868 0.0516627 2 5 4 
7888 5 0.423691 0.721865 0.0929422 4 -1 3 
8199 5 0.638941 0.754604 0.0249331 -2 2 6 
5579 5 0.13454 0.7449 0.0633295 0 -2 2 
6447 6 0.271169 0.76562 0.0570946 -2 -4 2 
5799 6 0.682479 0.748982 0.0500427 -5 0 -3 
6871 5 0.845973 0.770904 0.0599797 0 -2 1 
7287 5 0.845949 0.763067 0.0857122 2 3 2 
7588 5 0.0665146 0.756703 0.101405 -4 4 6 
6808 6 0.10934 0.794114 0.0462672 4 -3 0 
5998 6 0.549299 0.77757 0.0473575 3 3 -6 
7955 6 0.274251 0.770771 0.0454545 5 -2 -1 
8653 6 0.759571 0.775611 0.0677706 5 -3 2 
8985 5 0.467082 0.869752 0.0844958 0 3 -1 
8252 6 0.18228 0.89606 0.0509601 2 3 -6 
8211 6 0.584682 0.923276 0.0594184 0 0 3 
6372 5 0.824081 0.914159 0.0668107 -3 -1 1 
6347 6 0.948178 0.910353 0.0750939 6 -3 0 
6113 5 0.949061 0.934047 0.0106785 -1 -5 -1 
8786 5 0.211578 0.982764 0.0668409 -6 -6 2 
6715 5 0.345441 0.992526 0.0592692 4 -4 -2 
8872 6 0.510328 0.977617 0.0569256 0 4 6 
7628 5 0.609292 0.941846 0.0404835 1 0 -2 
7302 5 0.752291 0.920758 0.0123377 2 1 5 
8212 5 0.894952 0.962733 0.0475321 3 3 1 
6221 6 0.435716 0.0025906 0.0299376 1 3 2 
8281 5 0.554474 0.999372 0.0209324 2 1 0 
7003 5 0.208631 0.0393855 0.0791019 -3 -1 1 
8797 5 0.473902 0.00469213 0.102146 -3 1 0 
8556 5 0.633405 0.0185014 0.0907271 3 -2 3 
8331 5 0.224028 0.00111337 0.0742896 -4 -1 2 
8603 5 0.317648 0.020033 0.110421 0 -1 -1 
8163 6 0.769674 0.995075 0.125507 0 -6 -4 
5011 5 0.370936 0.0832945 0.0826116 1 -3 -2 
5185 5 0.732952 0.0511521 0.0729014 -1 -5 -4 
6820 6 0.102524 0.105328 0.0758721 4 -4 -5 
6927 5 0.636775 0.0522758 0.041291 5 3 -1 
7145 6 0.6495 0.0624444 0.0651133 -1 -4 2 
8794 6 0.370483 0.110932 0.060256 4 0 3 
7091 6 0.169753 0.142522 0.0319194 -1 0 0 
6114 5 0.176989 0.115326 0.12138 -1 -2 2 
5332 6 0.639779 0.131921 0.0852641 1 2 2 
6189 6 0.812505 0.112978 0.0531601 2 -4 -4 
7391 5 0.0154959 0.131175 0.127107 1 0 -3 
8760 6 0.0102003 0.136821 0.0573501 5 1 5 
8553 5 0.631789 0.153203 0.0634117 0 -4 -1 
5815 5 0.314513 0.185867 0.0779748 -1 2 3 
5418 6 0.832147 0.202365 0.0419934 3 1 -4 
7933 5 0.159868 0.237808 0.0770248 0 4 4 
6688 6 0.283976 0.187916 0.109535 4 -3 1 
5350 5 0.554092 0.212074 0.0802911 1 1 6 
8780 6 0.396433 0.263702 0.0859278 -4 3 -1 
5314 5 0.756298 0.23762 0.0799105 1 2 0 
7998 6 0.850266 0.24898 0.0921566 2 1 2 
5341 6 0.779366 0.272609 0.0651403 -5 0 3 
8989 6 0.171266 0.27076 0.0210952 3 3 -2 
8126 5 0.595081 0.31055 0.0745969 3 2 6 
5748 5 0.940896 0.284241 0.106275 1 1 3 
8778 6 0.692474 0.29827 0.0646351 2 4 -1 
6574 6 0.149467 0.359808 0.0939354 -1 -1 1 
8785 6 0.167334 0.337522 0.0758459 2 1 -1 
7235 6 0.334898 0.333576 0.0777152 -1 -4 2 
6389 5 0.418676 0.324533 0.0925817 -6 0 -6 
7042 5 0.568083 0.38335 0.0697949 4 2 -4 
7096 5 0.947075 0.341745 0.0707314 -1 0 1 
7604 5 0.0431898 0.342867 0.107532 0 1 6 
5587 6 0.184888 0.373404 0.106845 -6 1 2 
7692 5 0.801599 0.348375 0.116812 -3 -1 -2 
6511 5 0.344182 0.407127 0.0824041 -1 2 3 
6679 5 0.337075 0.385241 0.0673295 -3 4 -5 
7221 5 0.420897 0.384788 0.0919033 1 -1 1 
7346 5 0.462595 0.401998 0.101264 -1 1 2 
7332 6 0.230971 0.49317 0.0717267 5 1 -1 
8052 6 0.0782079 0.466725 0.0583214 1 0 3 
7595 6 0.955247 0.506744 0.0688966 1 1 3 
6670 5 0.151279 0.541258 0.0542234 2 -2 -1 
7792 6 0.556423 0.535359 0.0667702 2 1 6 
7115 5 0.885502 0.45801 0.0590502 -4 -4 -9 
7590 5 0.876775 0.5515 0.0779126 -1 1 2 
8417 6 0.196648 0.551347 0.107775 -5 -1 -2 
7893 6 0.0360917 0.602446 0.0542615 -5 -1 0 
8960 6 0.322295 0.593933 0.0310624 -5 0 1 
5252 6 0.480986 0.609849 0.0814857 -2 2 -5 
6165 5 0.573214 0.575747 0.0661613 0 -1 0 
7259 5 0.832682 0.58568 0.0895989 -4 3 -1 
7394 6 0.420899 0.629415 0.10597 5 1 -4 
8717 5 0.456475 0.659372 0.0597605 -3 0 0 
8592 5 0.475473 0.610804 0.0752185 -1 -5 0 
5500 6 0.498544 0.660289 0.105905 5 -6 3 
5455 5 0.318995 0.627879 0.077891 -3 2 3 
5074 6 0.426681 0.667336 0.109148 -1 5 -2 
5509 6 0.370068 0.700414 0.107148 1 1 -3 
7542 5 0.369859 0.65716 0.0631756 0 -1 -3 
8951 5 0.605626 0.633688 0.105303 2 -5 5 
6853 5 0.189546 0.687732 0.0677183 0 0 4 
5142 6 0.421044 0.672409 0.0412368 1 -1 -4 
8477 6 0.493832 0.728069 0.0752578 -1 2 -3 
7565 5 0.79006 0.687636 0.133479 -1 1 3 
5355 6 0.941881 0.679079 0.0596639 -1 -2 -2 
7268 6 0.498528 0.745125 0.0878755 -1 3 -1 
8579 6 0.601951 0.720376 0.086846 1 0 -4 
6807 5 0.175509 0.752314 0.0555444 -6 6 -2 
8408 6 0.499825 0.70982 0.0772726 5 -3 1 
8931 5 0.517993 0.799562 0.0708296 3 1 0 
7065 6 0.804168 0.808756 0.0998634 0 -4 -2 
8441 6 0.188764 0.837434 0.0811817 -1 -1 0 
7670 6 0.442934 0.823325 0.0692551 0 7 -2 
7830 6 0.540819 0.795204 0.0879351 1 -1 -2 
8280 5 0.815784 0.802332 0.0846874 -3 0 -4 
7782 5 0.0367355 0.807309 0.0545567 4 -5 -8 
6197 6 0.106928 0.874321 0.059671 3 -7 -1 
5338 6 0.167245 0.795138 0.076714 -7 -2 -1 
7167 5 0.303414 0.838496 0.095611 1 -3 -3 
8695 5 0.240928 0.839443 0.0768342 -4 2 2 
8245 6 0.291965 0.843784 0.0842391 -1 0 -1 
8689 6 0.325489 0.82138 0.105043 -4 -6 -1 
5172 5 0.622463 0.865851 0.0780787 -2 0 7 
6353 6 0.088631 0.892726 0.0777996 1 4 3 
7290 5 0.168332 0.853474 0.132479 5 -1 6 
7396 6 0.791651 0.838922 0.0956624 -1 -4 0 
7309 6 0.435961 0.924849 0.0392023 1 1 2 
6071 5 0.619987 0.880126 0.104237 3 -2 -2 
6572 6 0.984391 0.899279 0.0690198 -1 1 -2 
6570 5 0.987786 0.914446 0.114391 1 -3 -1 
6556 5 0.823556 0.946406 0.074437 0 -3 1 
5318 5 0.105727 0.954912 0.0839747 -1 -2 -2 
7373 5 0.690153 0.970322 0.0907279 4 4 1 
8935 6 0.985125 0.957718 0.104768 -2 -3 2 
6432 6 0.209818 0.0142495 0.0966828 -1 2 4 
5204 5 0.290012 0.0344528 0.150572 -1 3 -2 
8494 6 0.385109 0.990385 0.101464 -2 -1 4 
8355 6 0.588609 0.0144311 0.0733872 2 1 0 
5072 5 0.745187 0.00852254 0.107274 -1 -1 4 
8667 5 0.407578 0.0887998 0.111145 -1 0 2 
8909 6 0.663454 0.0499255 0.0829231 -1 5 2 
6524 6 0.662059 0.0825893 0.0894236 3 3 -1 
7829 6 0.784092 0.0537962 0.132682 6 -2 1 
7882 5 0.896069 0.0924513 0.115865 4 -1 1 
7175 6 0.071744 0.146387 0.128293 1 6 4 
8460 6 0.420926 0.124675 0.108048 1 -6 0 
8996 6 0.257372 0.18038 0.106033 3 1 6 
8779 5 0.49832 0.169646 0.0974123 -3 3 -1 
5471 5 0.684108 0.157014 0.0948262 2 4 -2 
7362 5 0.403655 0.212196 0.10016 1 -3 1 
7291 6 0.809578 0.196858 0.0988275 0 4 0 
8749 6 0.98537 0.199731 0.10549 2 -2 0 
7683 5 0.921952 0.235009 0.0732673 0 0 0 
7749 6 0.461371 0.266726 0.102414 -1 1 -1 
7975 5 0.329626 0.299058 0.123233 -3 -3 2 
5437 5 0.698527 0.25586 0.149896 2 2 -2 
6622 6 0.973881 0.264292 0.147833 3 -1 -2 
7257 6 0.581162 0.307011 0.0962063 0 3 -2 
6380 6 0.783716 0.263842 0.0813321 -4 2 2 
7358 5 0.34256 0.285776 0.07926 0 3 0 
6094 5 0.699618 0.284401 0.127684 3 4 1 
7026 6 0.49857 0.357629 0.116288 3 -4 -4 
6649 5 0.554479 0.313983 0.120085 5 -2 0 
8393 5 0.968735 0.36848 0.10102 2 4 -2 
6530 6 0.115615 0.335407 0.126017 0 6 -1 
5696 5 0.519606 0.340854 0.0811939 1 2 1 
7911 6 0.65737 0.385012 0.107692 -5 2 -3 
6663 6 0.307005 0.373308 0.0857193 2 2 -1 
6161 5 0.416557 0.376856 0.138973 -1 0 4 
7214 6 0.177876 0.399235 0.0941408 6 -4 0 
8619 6 0.817235 0.442956 0.1101 0 3 -5 
5961 6 0.332216 0.45214 0.0990227 1 3 2 
6625 6 0.430607 0.444793 0.121975 1 -1 1 
6227 6 0.567755 0.450349 0.117691 -1 1 -5 
6890 5 0.56796 0.485474 0.0899627 4 1 2 
8486 5 0.51669 0.436129 0.102495 -2 3 4 
5518 5 0.0634172 0.47514 0.118149 2 -2 1 
8534 5 0.47345 0.510562 0.106113 2 -8 -3 
5950 6 0.155491 0.516407 0.109821 -1 2 -1 
5717 6 0.211728 0.528087 0.10871 4 1 0 
5678 6 0.570859 0.536198 0.11765 0 1 -3 
6420 6 0.00808328 0.555721 0.0899434 1 1 -2 
5194 5 0.205216 0.524164 0.137464 -5 0 0 
7098 5 0.875617 0.55614 0.085964 -3 4 0 
6726 6 0.0926939 0.599349 0.0806565 -1 -1 -1 
8658 6 0.97925 0.621861 0.100468 -1 4 3 
6304 5 0.0362728 0.619432 0.103361 1 8 -1 
6322 6 0.476744 0.597517 0.0798765 -1 0 4 
5168 6 0.617718 0.629635 0.0768394 -2 0 -1 
6091 6 0.741704 0.633766 0.110553 4 -1 1 
7486 6 0.587535 0.617333 0.0811446 -2 1 -3 
8983 5 0.432334 0.666804 0.123795 3 2 -3 
7649 6 0.123306 0.701423 0.0891746 4 5 1 
8153 6 0.352193 0.697143 0.0941602 -1 -1 4 
6134 6 0.657209 0.706911 0.139194 0 -3 6 
7340 5 0.958129 0.709229 0.121765 3 2 -5 
8303 5 0.602829 0.749526 0.114477 -2 2 1 
5182 6 0.790631 0.743631 0.0992476 -3 0 2 
6053 6 0.213587 0.775572 0.0966985 -4 3 2 
6499 6 0.121008 0.829156 0.103302 -3 5 3 
7158 6 0.276867 0.828549 0.118336 1 1 -2 
5960 5 0.346489 0.818596 0.0893274 4 -1 2 
5022 6 0.439766 0.839225 0.0974682 -3 1 -1 
8500 5 0.524788 0.879142 0.10134 -2 -1 3 
7546 6 0.159999 0.879099 0.102062 1 -2 -1 
7656 6 0.433401 0.875911 0.114065 -3 3 -2 
8292 5 0.52308 0.89607 0.0827764 0 1 2 
6733 5 0.57435 0.853831 0.0716901 1 -5 0 
7803 5 0.201151 0.872841 0.0964473 2 -2 2 
5462 5 0.321529 0.933201 0.122107 4 5 -1 
5838 5 0.102454 0.972507 0.073324 -2 -5 -2 
7676 6 0.159118 0.969861 0.129273 -2 -3 -3 
6247 6 0.361804 0.935926 0.095611 -2 -1 3 
8782 6 0.451958 0.977139 0.0752071 -1 -2 0 
6849 6 0.815172 0.935808 0.120678 -2 1 -2 
5431 6 0.845788 0.982585 0.0931555 -2 -2 0 
8341 6 0.451514 0.998834 0.107767 2 1 4 
6751 6 0.749311 0.982864 0.120428 -3 -1 -1 
7658 5 0.970894 0.982435 0.118679 1 0 -1 
5580 5 0.377086 0.0106912 0.083975 0 -4 -1 
8590 6 0.374846 0.989367 0.0836045 2 -3 -3 
5084 5 0.440888 0.971147 0.119805 -2 -5 4 
5565 6 0.552261 0.990571 0.119976 3 -3 3 
7532 6 0.154214 0.0269239 0.103094 0 -1 -8 
7369 6 0.377884 0.0549317 0.107516 0 -8 -2 
6682 5 0.130362 0.0695372 0.141258 -3 4 -2 
8389 6 0.356101 0.0380362 0.121601 1 -1 0 
5529 6 0.637434 0.0458481 0.156314 -1 -2 -8 
7554 6 0.250121 0.082179 0.126421 -1 6 -2 
6973 6 0.559336 0.0643803 0.128566 5 3 7 
5915 6 0.880869 0.120104 0.129619 1 1 2 
8978 5 0.117458 0.132544 0.143604 1 0 -1 
6042 6 0.417858 0.107355 0.128514 0 4 2 
7993 6 0.712775 0.110241 0.138346 -3 6 1 
6606 6 0.90059 0.070448 0.141489 1 -2 4 
8691 6 0.423801 0.118308 0.175759 -3 0 -2 
5624 5 0.427293 0.118036 0.155716 5 -1 -3 
6710 5 0.936808 0.140466 0.119385 -5 0 -5 
7789 6 0.702083 0.167388 0.12605 4 2 -1 
5125 6 0.69732 0.212989 0.127425 0 0 -1 
8930 5 0.013323 0.200904 0.153903 -6 -4 -4 
7299 5 0.257799 0.160435 0.147194 4 -4 1 
7070 5 0.335275 0.198167 0.147875 2 -2 -1 
6033 5 0.466212 0.189329 0.110571 0 1 -3 
5643 6 0.661905 0.199825 0.11723 0 -2 -2 
6371 6 0.288977 0.195314 0.10103 2 3 5 
7419 6 0.476066 0.246317 0.0837702 -3 -5 1 
5081 6 0.532997 0.204533 0.09322 0 0 -2 
6339 6 0.76406 0.241207 0.149773 1 1 1 
7206 6 0.802181 0.230326 0.134267 0 5 -4 
6424 6 0.911962 0.25103 0.111802 -4 1 -2 
5140 5 0.539719 0.299062 0.108703 -4 0 4 
8157 6 0.598752 0.281537 0.142807 -1 -1 4 
8399 6 0.850075 0.303581 0.102292 -1 0 2 
8503 5 0.660287 0.328151 0.0997271 -1 1 5 
8643 5 0.959315 0.385156 0.111887 6 0 -1 
6454 6 0.938971 0.384712 0.160378 4 -4 0 
7041 6 0.510293 0.39644 0.110774 1 0 2 
8105 5 0.39408 0.436493 0.108974 1 1 3 
8191 5 0.0968432 0.438503 0.110605 -4 -2 -3 
8086 6 0.352972 0.421504 0.121682 2 2 6 
6997 5 0.639254 0.456183 0.102817 2 -2 -2 
8403 5 0.269143 0.542395 0.119351 -1 -3 3 
6493 5 0.794945 0.488086 0.143587 -1 0 4 
7238 6 0.0997762 0.58446 0.130869 3 0 4 
6267 5 0.350699 0.583806 0.0929144 1 -1 7 
6203 6 0.159114 0.563773 0.105992 1 0 9 
7037 6 0.233838 0.586154 0.138406 5 -7 0 
8326 6 0.335841 0.539807 0.125399 -4 3 -2 
6486 6 0.453528 0.623665 0.168422 1 1 -3 
7285 5 0.893096 0.618571 0.122939 4 -2 0 
6315 6 0.112657 0.61587 0.141219 4 2 -1 
8686 5 0.377871 0.615399 0.113125 -6 -3 1 
7836 6 0.510461 0.630339 0.132857 3 6 -1 
6772 5 0.565203 0.613075 0.119284 0 2 -1 
8162 6 0.110711 0.67114 0.145375 3 2 1 
6143 5 0.00352948 0.691651 0.119091 2 1 -4 
5537 6 0.283857 0.704412 0.125956 5 -5 4 
5604 5 0.797499 0.669014 0.105181 1 -7 3 
8222 6 0.41835 0.736526 0.109748 -5 0 2 
8209 6 0.590988 0.735658 0.161324 -3 6 -3 
7326 5 0.153737 0.763161 0.102126 1 -1 5 
8422 5 0.278218 0.770929 0.114989 2 -2 -3 
8148 5 0.563552 0.75989 0.102416 1 4 0 
6034 5 0.0629614 0.803707 0.119128 1 -3 1 
6879 6 0.199622 0.763492 0.14726 2 -3 1 
7563 5 0.133319 0.804725 0.129004 -1 2 3 
5511 5 0.636798 0.792454 0.116003 4 -1 2 
7744 6 0.318119 0.847303 0.14733 -7 0 -1 
7504 5 0.566351 0.844839 0.156658 6 0 -1 
7356 5 0.824947 0.873052 0.10287 -2 1 1 
7712 5 0.615788 0.875338 0.137691 0 4 4 
6219 6 0.805573 0.862512 0.119653 -2 2 3 
6852 5 0.07256 0.845164 0.110286 0 0 1 
8180 6 0.318052 0.920793 0.129948 0 -1 -3 
7046 5 0.390891 0.924776 0.108988 3 -3 3 
5566 6 0.483776 0.913395 0.114922 2 5 3 
6040 6 0.692813 0.930678 0.0999875 -1 -3 0 
7576 5 0.49178 0.921425 0.138475 -3 0 -1 
5542 6 0.818378 0.930382 0.129206 -3 4 3 
6397 6 0.0917496 0.967835 0.122533 1 -3 -2 
8943 5 0.491655 0.982362 0.0814746 -3 -1 -1 
5390 6 0.443287 0.00535125 0.151433 0 1 -1 
6684 5 0.505766 0.978924 0.140716 2 3 -2 
7776 6 0.541878 0.961843 0.11925 -3 0 1 
6175 6 0.494816 0.0174774 0.15761 0 3 -1 
5567 5 0.141351 0.0479967 0.126626 -3 -1 -4 
6916 6 0.395805 0.022817 0.111088 -1 3 -1 
8064 6 0.402865 0.0261515 0.162524 1 3 0 
7968 6 0.555136 0.0443012 0.122764 -2 2 2 
8550 5 0.59716 0.0677228 0.13159 -2 -1 1 
6428 5 0.0323594 0.0891903 0.135782 4 4 -6 
7909 5 0.610188 0.0884005 0.208185 7 3 0 
6696 5 0.525834 0.116535 0.17232 4 5 -2 
8961 5 0.518245 0.0808622 0.16206 -5 2 0 
8204 5 0.656003 0.0939883 0.163736 -1 7 -1 
6359 5 0.910529 0.0723512 0.167597 -5 0 0 
8648 6 0.955321 0.11559 0.157891 3 0 -1 
7450 5 0.0323822 0.149309 0.125153 -3 1 1 
7453 5 0.952598 0.158913 0.140954 4 0 0 
8371 6 0.711811 0.224376 0.143128 2 -2 -2 
8923 5 0.89247 0.203323 0.144988 2 -1 1 
8962 5 0.166372 0.18128 0.153962 4 -3 1 
6862 6 0.615505 0.195289 0.151132 -2 1 -1 
6270 6 0.884849 0.218112 0.16642 4 -2 0 
8885 5 0.732529 0.242306 0.156874 -1 3 2 
6887 6 0.995545 0.192518 0.136811 0 -3 -3 
5611 6 0.559378 0.2114 0.138467 3 1 5 
6016 6 0.764227 0.246232 0.131972 3 -3 3 
7800 5 0.805342 0.27871 0.133047 4 0 -3 
7251 6 0.417331 0.281493 0.101519 4 -1 0 
5058 6 0.895419 0.287854 0.147745 -1 -1 1 
6724 5 0.371276 0.28979 0.143776 -3 0 3 
6316 5 0.940548 0.292471 0.15681 6 -1 -1 
8585 6 0.0618444 0.333951 0.134106 -1 -1 -3 
5606 5 0.618122 0.350366 0.138777 -4 3 -1 
6787 5 0.922188 0.292977 0.131582 5 3 3 
8053 6 0.107345 0.343745 0.113784 -2 -7 1 
7733 6 0.780382 0.362685 0.200793 -1 2 -2 
5335 5 0.0548186 0.392236 0.131598 0 -5 3 
7137 6 0.307729 0.381224 0.13953 4 -4 4 
7418 6 0.384206 0.381569 0.164141 1 0 1 
6306 5 0.57797 0.362919 0.167713 2 -1 0 
8011 6 0.493397 0.408791 0.17403 4 -1 2 
7906 5 0.0246613 0.462831 0.167577 -2 -2 1 
5106 6 0.0678164 0.457424 0.128665 -5 2 2 
7560 5 0.365638 0.471119 0.138571 -2 -2 7 
8260 5 0.768538 0.489636 0.151572 -3 -3 5 
8623 6 0.0176909 0.500993 0.166329 -4 1 -4 
8745 6 0.0902383 0.499543 0.165037 3 0 4 
7339 5 0.150948 0.495718 0.174038 5 8 2 
8291 5 0.715717 0.489754 0.18373 -2 1 2 
5557 5 0.233711 0.518559 0.167498 5 5 2 
5662 5 0.283198 0.541196 0.137545 3 0 -2 
7705 5 0.765747 0.564139 0.11774 6 -3 -3 
7905 5 0.272913 0.559747 0.183617 2 -1 -1 
8421 5 0.411845 0.560281 0.16541 0 0 4 
7405 5 0.727098 0.565954 0.166277 1 -1 3 
8805 5 0.658238 0.60629 0.134075 3 1 -2 
6578 5 0.0285615 0.626988 0.140172 3 -1 -5 
8133 5 0.281475 0.652863 0.154817 1 -1 3 
7605 6 0.62706 0.593368 0.147096 -2 3 -2 
6886 6 0.211506 0.655014 0.167602 -2 0 7 
6212 5 0.25944 0.679988 0.147884 -1 0 1 
6281 6 0.855696 0.66765 0.150365 0 1 0 
6060 6 0.0289277 0.659242 0.1348 2 3 2 
6967 5 0.398911 0.66028 0.162579 4 1 -5 
7987 5 0.395281 0.681456 0.107464 2 4 -1 
7345 6 0.960974 0.686431 0.162946 -4 2 -4 
8823 5 0.997473 0.697059 0.166701 -1 2 3 
8920 5 0.00384006 0.763485 0.149499 1 -3 -4 
8396 6 0.0415822 0.706008 0.111663 -1 4 -1 
5240 6 0.745696 0.753276 0.155732 3 1 -1 
8404 6 0.826442 0.721994 0.153064 -4 2 2 
8127 6 0.592345 0.781817 0.165809 2 1 -4 
8015 5 0.794412 0.764487 0.144881 4 3 -1 
7773 5 0.427181 0.80637 0.12551 -1 6 1 
8580 6 0.553099 0.774117 0.139248 2 -4 4 
7890 6 0.706721 0.808025 0.153332 -4 -7 -2 
5107 6 0.850161 0.812916 0.199966 -1 0 2 
7538 5 0.91415 0.82386 0.133518 5 0 2 
7511 6 0.21994 0.796953 0.167607 -4 -6 1 
6296 6 0.879061 0.874826 0.127448 -1 -3 3 
8762 5 0.0411413 0.927842 0.138513 0 3 6 
8925 5 0.435208 0.922151 0.132236 0 5 2 
6253 5 0.540015 0.903243 0.161026 3 -2 4 
5110 6 0.590759 0.93392 0.120986 -1 -1 0 
7784 5 0.0574237 0.930342 0.14817 2 -5 3 
6098 5 0.163012 0.913423 0.151556 3 1 -1 
7722 5 0.18732 0.978022 0.0833475 1 -2 -3 
6613 5 0.834355 0.951522 0.124352 2 0 -5 
7826 5 0.865609 0.981481 0.163997 -4 -5 1 
5924 6 0.126895 0.993986 0.153706 0 2 4 
5193 5 0.541691 0.025532 0.160769 3 2 3 
8078 6 0.206737 0.0168518 0.187736 3 2 1 
7878 5 0.240068 0.991565 0.183393 0 -1 0 
5852 6 0.485203 0.0245553 0.177318 -2 0 4 
6345 6 0.647234 0.958393 0.183481 3 4 4 
7177 6 0.0847935 0.0207361 0.160366 -1 2 6 
6898 6 0.455282 0.0341573 0.182291 3 0 6 
8645 5 0.31935 0.0505333 0.172638 0 0 -3 
8557 6 0.357468 0.0987419 0.185169 2 0 0 
7680 5 0.66887 0.0187987 0.177712 2 1 1 
7907 6 0.745705 0.0758367 0.189426 4 -3 -1 
5837 6 0.163357 0.143166 0.127019 -1 -1 5 
6945 5 0.727295 0.0948363 0.148756 -1 0 4 
6510 6 0.100859 0.138992 0.154968 3 -1 -4 
8670 6 0.144136 0.142393 0.151485 -1 -1 5 
5694 5 0.316291 0.160549 0.1741 0 4 0 
5768 6 0.908019 0.112214 0.178309 -3 1 2 
7487 5 0.694734 0.199191 0.154951 -3 0 -1 
7411 6 0.583497 0.294047 0.187079 0 0 0 
7280 6 0.0159284 0.296162 0.19176 -3 2 2 
7269 5 0.21738 0.33241 0.202789 -1 2 -4 
5638 6 0.763877 0.297172 0.158423 2 4 2 
8094 6 0.372639 0.324425 0.175633 -1 3 -3 
8069 5 0.308433 0.34357 0.16673 -4 1 -3 
7458 6 0.502998 0.322521 0.176111 4 -2 3 
7780 6 0.586774 0.328101 0.168656 -4 1 0 
8129 6 0.206685 0.354755 0.169707 2 1 -3 
6581 6 0.648978 0.327961 0.200474 -1 1 -2 
6519 5 0.272314 0.369438 0.17682 1 -3 1 
7677 5 0.423468 0.359816 0.171529 -1 2 1 
7637 5 0.637152 0.405555 0.210249 -2 2 3 
7088 5 0.879677 0.370929 0.152142 -3 -3 3 
6951 5 0.0591356 0.41112 0.184611 1 -5 2 
8313 6 0.553467 0.444226 0.185354 -3 1 1 
8626 6 0.795803 0.403838 0.15247 0 -5 -1 
6768 5 0.229588 0.450773 0.164805 6 0 2 
8102 6 0.754911 0.435783 0.18182 -5 -1 -3 
6711 6 0.254254 0.506461 0.12938 4 1 6 
8176 6 0.280826 0.517261 0.146483 4 -1 2 
6650 5 0.473597 0.500973 0.166637 0 -3 2 
5406 5 0.908335 0.49244 0.149331 -1 -2 -1 
6531 6 0.232601 0.544591 0.175746 4 3 3 
7799 5 0.627862 0.54453 0.199288 -1 4 1 
5333 6 0.0234982 0.564359 0.181703 1 3 -3 
5382 5 0.447959 0.556065 0.15113 -1 2 4 
5703 6 0.374744 0.585577 0.182208 2 0 -5 
7173 5 0.831586 0.543799 0.178023 3 4 -1 
6419 5 0.013365 0.593244 0.178413 -2 1 5 
7508 6 0.395274 0.606868 0.123583 0 -1 -1 
8795 6 0.77206 0.575317 0.127897 0 -1 4 
5874 6 0.917092 0.618145 0.140614 -3 6 4 
8307 5 0.237051 0.562552 0.204433 -7 4 2 
8819 6 0.66526 0.614278 0.204084 4 3 -3 
5386 6 0.493434 0.679343 0.146345 -5 -1 3 
5323 5 0.142084 0.720692 0.238119 -3 1 3 
6996 5 0.850794 0.703125 0.166415 5 1 -5 
6163 6 0.307709 0.781667 0.146859 0 3 -4 
6660 6 0.645366 0.745475 0.217581 4 -6 2 
5037 5 0.828599 0.766146 0.168235 -2 6 -1 
5663 6 0.943106 0.726148 0.155851 -2 -4 2 
7543 5 0.99211 0.672891 0.167436 1 -2 3 
5038 5 0.998623 0.740503 0.194506 3 -1 3 
8595 6 0.209427 0.79547 0.170116 -4 -1 0 
7891 5 0.205313 0.761992 0.22023 0 2 -2 
5970 5 0.362153 0.758572 0.194591 0 -2 -1 
8491 6 0.408185 0.844727 0.183094 -1 3 -4 
7760 5 0.720359 0.878485 0.142717 7 -1 -1 
5795 5 0.0411022 0.882356 0.162397 4 -1 -2 
7415 5 0.455181 0.919269 0.214854 -1 -5 3 
7270 5 0.641115 0.909256 0.156223 -2 -3 0 
7341 5 0.720161 0.922462 0.158087 2 0 1 
5901 6 0.763231 0.837901 0.147902 -3 1 2 
5763 6 0.886584 0.865343 0.137568 1 -2 7 
5467 5 0.904325 0.866219 0.182906 -1 -2 -5 
6000 6 0.272548 0.90256 0.18592 3 -3 1 
5840 6 0.423753 0.892282 0.182173 3 0 3 
7582 5 0.881156 0.906372 0.150119 1 5 -1 
6475 5 0.402564 0.891649 0.203727 3 3 2 
8197 6 0.382967 0.903635 0.151671 -1 3 5 
8854 5 0.894515 0.952235 0.160264 1 -5 -4 
6257 6 0.348595 0.959871 0.155943 1 -1 3 
6230 5 0.575181 0.962401 0.170384 -6 2 3 
5746 6 0.716416 0.995705 0.165393 2 1 6 
7631 6 0.0284624 0.0148517 0.206172 6 4 -3 
5620 6 0.202498 0.0107682 0.186463 -1 1 2 
7084 6 0.420729 0.00555757 0.187996 -6 3 -1 
8606 6 0.866915 0.979141 0.181918 -3 0 1 
8679 5 0.0469209 0.0683797 0.210056 1 0 1 
6881 5 0.418098 0.0537251 0.215869 0 -1 -3 
6383 6 0.775697 0.0267822 0.179627 -1 2 -2 
7322 6 0.0706469 0.0297851 0.251227 5 2 -4 
5216 5 0.252233 0.0926193 0.243652 -1 1 2 
7828 6 0.859241 0.0731898 0.177454 -3 -5 0 
5064 5 0.946547 0.119426 0.210012 0 7 0 