LAMMPS data file via write_data, version 7 Dec 2015, timestep = 20000

10000 atoms
5 atom types
9399 bonds
3 bond types
4998 angles
1 angle types
2 extra bond per atom

-7.5000000000000000e+01 7.5000000000000000e+01 xlo xhi
-7.5000000000000000e+01 7.5000000000000000e+01 ylo yhi
-7.5000000000000000e+01 7.5000000000000000e+01 zlo zhi

Masses

1 1
2 1
3 1
4 1
5 1

Atoms

  1 1 1 2.0324093224258554e+01 1.7051372201413500e+01 -5.0304240756141247e+01 0 0 0
  2 1 1 1.9430452264124771e+01 1.6855638850123796e+01 -5.0630025084896950e+01 0 0 0
  3 1 1 1.9994084695746967e+01 1.6786630426300075e+01 -5.1365506696957794e+01 0 0 0
  4 1 1 1.9298596692467417e+01 1.6173155385456511e+01 -5.1676766750355569e+01 0 0 0
  5 1 1 2.0091901901104045e+01 1.6121881112561862e+01 -5.2293203262013854e+01 0 0 0
  6 1 1 1.9427781073066580e+01 1.6797767941531134e+01 -5.2615972827346418e+01 0 0 0
  7 1 1 2.0090677723321416e+01 1.6654833938650832e+01 -5.3255351850860968e+01 0 0 0
  8 1 1 1.9476913610004665e+01 1.7377994953626526e+01 -5.3524481280733923e+01 0 0 0
  9 1 2 1.9587828134037924e+01 1.6751028454441897e+01 -5.4224036846135562e+01 0 0 0
  10 1 2 2.0168783033429918e+01 1.7525798886273797e+01 -5.4425019144066397e+01 0 0 0
  11 1 1 2.0600560930951453e+01 1.6747093695726768e+01 -5.4713607419360741e+01 0 0 0
  12 1 1 1.9981328065662854e+01 1.7003315353364837e+01 -5.5393094051636766e+01 0 0 0
  13 1 2 2.0210739922542341e+01 1.6058263776488339e+01 -5.5507001870058126e+01 0 0 0
  14 1 2 1.9575555249151289e+01 1.6299081989689761e+01 -5.6164697244113626e+01 0 0 0
  15 1 2 2.0075453352581754e+01 1.5572852731653452e+01 -5.6513217009544228e+01 0 0 0
  16 1 2 1.9304859868699058e+01 1.5220763282309347e+01 -5.6095876886212373e+01 0 0 0
  17 1 2 1.8991860948474564e+01 1.5786105298226849e+01 -5.6807237829512694e+01 0 0 0
  18 1 2 1.8524553735049928e+01 1.6003443847518053e+01 -5.5962008429500621e+01 0 0 0
  19 1 2 1.7898266865655458e+01 1.6056884175870259e+01 -5.6705414840930779e+01 0 0 0
  20 1 2 1.7976166479016712e+01 1.5212876137322144e+01 -5.6296934111299862e+01 0 0 0
  21 1 2 1.7979563461742572e+01 1.5052520571791778e+01 -5.7274053575675595e+01 0 0 0
  22 1 2 1.7112982805624274e+01 1.5338749662730084e+01 -5.6975395553779599e+01 0 0 0
  23 1 2 1.7054721525461442e+01 1.4806911161842068e+01 -5.7809924083621681e+01 0 0 0
  24 1 2 1.6288865129826615e+01 1.5389405660815903e+01 -5.7714128215346356e+01 0 0 0
  25 1 2 1.6562371256860317e+01 1.5368363566193056e+01 -5.8623074355661949e+01 0 0 0
  26 1 1 1.7230226703432038e+01 1.5852428191220968e+01 -5.8144489370121143e+01 0 0 0
  27 1 2 1.7020172963521940e+01 1.6207798264839170e+01 -5.9035384085865807e+01 0 0 0
  28 1 2 1.7821588012068013e+01 1.5620314270270377e+01 -5.8993370746416097e+01 0 0 0
  29 1 1 1.8080709440225242e+01 1.6480406632098074e+01 -5.8632165791804731e+01 0 0 0
  30 1 1 1.8846916194052007e+01 1.6039227079860250e+01 -5.8978428822783187e+01 0 0 0
  31 1 1 1.9000285188015365e+01 1.6245180173855562e+01 -5.8076144899828471e+01 0 0 0
  32 1 1 1.9165534211795293e+01 1.7039540181220687e+01 -5.8594441924882453e+01 0 0 0
  33 1 1 1.9927507180168806e+01 1.6485333232459020e+01 -5.8598314497000651e+01 0 0 0
  34 1 1 1.9662816451599330e+01 1.6689438676550175e+01 -5.9497099669034014e+01 0 0 0
  35 1 1 2.0562011405263057e+01 1.6488174324913800e+01 -5.9409655028976523e+01 0 0 0
  36 1 1 2.0492966517432983e+01 1.6998869929430313e+01 -6.0207312451021664e+01 0 0 0
  37 1 2 2.0186253149440063e+01 1.6079100545601317e+01 -6.0339861639125189e+01 0 0 0
  38 1 1 2.0084596616128362e+01 1.6523647932658292e+01 -6.1179785122048472e+01 0 0 0
  39 1 1 1.9304241037358324e+01 1.6563542181600361e+01 -6.0577747748457455e+01 0 0 0
  40 1 1 1.9018781423544112e+01 1.6414552999422231e+01 -6.1445536911701510e+01 0 0 0
  41 1 2 1.8525169832491244e+01 1.7204407891106662e+01 -6.1094363405023373e+01 0 0 0
  42 1 2 1.8021112295428885e+01 1.6773060578076855e+01 -6.1740247863241130e+01 0 0 0
  43 1 1 1.7628335999084026e+01 1.7603443726808937e+01 -6.1524897082743315e+01 0 0 0
  44 1 2 1.6982487706259125e+01 1.6846354068510124e+01 -6.1489418994051491e+01 0 0 0
  45 1 2 1.6670497196303170e+01 1.7655252431647792e+01 -6.1934355109014184e+01 0 0 0
  46 1 2 1.6726409107154740e+01 1.6922301706895105e+01 -6.2583211897369026e+01 0 0 0
  47 1 2 1.7112583564681390e+01 1.7726413634280714e+01 -6.2979437872266978e+01 0 0 0
  48 1 2 1.7577954889319134e+01 1.7013481797047493e+01 -6.3425168690956831e+01 0 0 0
  49 1 2 1.7733651710772602e+01 1.7757508023997929e+01 -6.3915315818054182e+01 0 0 0
  50 1 2 1.7408400423641780e+01 1.6993731321150698e+01 -6.4466775114261864e+01 0 0 0
  51 1 2 1.7783559506604117e+01 1.7701418982694232e+01 -6.5050825040575504e+01 0 0 0
  52 1 2 1.8026700860321718e+01 1.6895835514308583e+01 -6.5387705599575568e+01 0 0 0
  53 1 1 1.7070141605652022e+01 1.6826557270369399e+01 -6.5365564097216705e+01 0 0 0
  54 1 1 1.7500585886923655e+01 1.6261427487991391e+01 -6.6028486073557573e+01 0 0 0
  55 1 2 1.7261612626466039e+01 1.5780084525890075e+01 -6.5154497257351025e+01 0 0 0
  56 1 2 1.6959621092650746e+01 1.5196976601553947e+01 -6.5850723468788118e+01 0 0 0
  57 1 2 1.7833672688589477e+01 1.4888018673773880e+01 -6.5524362709685775e+01 0 0 0
  58 1 2 1.7311818287467542e+01 1.4127563124529324e+01 -6.5683981591711884e+01 0 0 0
  59 1 2 1.7980096022794601e+01 1.4230774920714657e+01 -6.6332577486170692e+01 0 0 0
  60 1 2 1.7807680855816340e+01 1.3252318229204645e+01 -6.6005210369702027e+01 0 0 0
  61 1 2 1.7429386915161302e+01 1.3326006906285384e+01 -6.6865025920897807e+01 0 0 0
  62 1 2 1.8081333747835018e+01 1.2600906416093236e+01 -6.6867560098788658e+01 0 0 0
  63 1 2 1.8608902170808808e+01 1.3398537005494571e+01 -6.6669759799310583e+01 0 0 0
  64 1 1 1.9283800505518794e+01 1.2731040116285657e+01 -6.6527510514600991e+01 0 0 0
  65 1 1 1.9674912453309101e+01 1.3638524427632939e+01 -6.6223034002863798e+01 0 0 0
  66 1 1 1.9428084445341174e+01 1.3108431242291672e+01 -6.5456689084865985e+01 0 0 0
  67 1 1 1.9543870183729759e+01 1.3999127489668012e+01 -6.5222394986929132e+01 0 0 0
  68 1 1 2.0233811891163150e+01 1.3444578524911195e+01 -6.4810554648428351e+01 0 0 0
  69 1 1 1.9401826664374891e+01 1.3355445888271284e+01 -6.4337355732854022e+01 0 0 0
  70 1 1 2.0157444581667470e+01 1.2823075470968979e+01 -6.3922961221058479e+01 0 0 0
  71 1 2 1.9406865163107781e+01 1.2259633469492199e+01 -6.4098115799735041e+01 0 0 0
  72 1 1 1.9673002971991632e+01 1.2171471532981073e+01 -6.3090300935327264e+01 0 0 0
  73 1 1 1.9726547432106802e+01 1.1371750106737045e+01 -6.3646093152782839e+01 0 0 0
  74 1 1 1.9098243271757166e+01 1.1249649576779484e+01 -6.2983548677791163e+01 0 0 0
  75 1 1 1.9058845683727924e+01 1.0413857542670351e+01 -6.3450077445529224e+01 0 0 0
  76 1 1 1.8185306315355000e+01 1.0866796557787218e+01 -6.3427953680600787e+01 0 0 0
  77 1 1 1.8482016880826286e+01 1.0675986859803158e+01 -6.4341247375278400e+01 0 0 0
  78 1 1 1.7513467697420687e+01 1.0984878202258987e+01 -6.4327809213086141e+01 0 0 0
  79 1 2 1.7599545002726650e+01 1.0120914338160713e+01 -6.4745978676602832e+01 0 0 0
  80 1 3 1.7286342120938645e+01 9.8630783404171023e+00 -6.3900522889923828e+01 0 0 0
  81 1 2 1.6570510677919099e+01 1.0288209736969179e+01 -6.4411292632223265e+01 0 0 0
  82 1 2 1.6674914264514964e+01 9.2731086342245224e+00 -6.4626573562367852e+01 0 0 0
  83 1 2 1.6294747916349849e+01 9.7172712347466454e+00 -6.5430304806652657e+01 0 0 0
  84 1 1 1.6023014954428511e+01 8.8324925137978347e+00 -6.5404809574738067e+01 0 0 0
  85 1 2 1.5568803922543696e+01 9.3271855351021209e+00 -6.4659336100654386e+01 0 0 0
  86 1 2 1.5167182962217467e+01 8.4073484019370195e+00 -6.4818612828554393e+01 0 0 0
  87 1 2 1.5687122210104047e+01 8.4275589478430248e+00 -6.4049469615445602e+01 0 0 0
  88 1 2 1.5923129158426722e+01 7.5988662370131816e+00 -6.4495692892375459e+01 0 0 0
  89 1 2 1.5588442145846056e+01 7.4117182214984325e+00 -6.3591308505450861e+01 0 0 0
  90 1 2 1.4952382539078638e+01 7.1442305144365772e+00 -6.4331877237725408e+01 0 0 0
  91 1 2 1.4815747831834164e+01 6.5782475502539342e+00 -6.3649303368966613e+01 0 0 0
  92 1 2 1.4161483730881100e+01 7.2640903505726211e+00 -6.3591167059360508e+01 0 0 0
  93 1 2 1.3911223965384481e+01 6.5218988731979000e+00 -6.4167200134810926e+01 0 0 0
  94 1 2 1.3490211221234935e+01 6.4284452014768405e+00 -6.3307747533574450e+01 0 0 0
  95 1 1 1.2807935767902681e+01 6.6175980140349662e+00 -6.3968802165073058e+01 0 0 0
  96 1 1 1.2406817822731901e+01 6.3055580102088644e+00 -6.3068132556949571e+01 0 0 0
  97 1 2 1.2910320348356588e+01 5.6188836176777013e+00 -6.3497843602975642e+01 0 0 0
  98 1 2 1.1965805324534704e+01 5.3747966843942274e+00 -6.3440197997399480e+01 0 0 0
  99 1 2 1.2081449632234456e+01 5.3950013516267630e+00 -6.4424895397121404e+01 0 0 0
  100 1 2 1.1669218025441591e+01 6.1408596752856255e+00 -6.3989549883038947e+01 0 0 0
  101 1 2 1.1154424115165298e+01 5.8974660977966886e+00 -6.4787043974821131e+01 0 0 0
  102 1 2 1.2008415906502947e+01 6.3960374794289168e+00 -6.4987822085531974e+01 0 0 0
  103 1 2 1.1499016430990139e+01 6.3584892568211933e+00 -6.5757793744475677e+01 0 0 0
  104 1 2 1.2411151509783293e+01 6.1067132992220969e+00 -6.5953403152529219e+01 0 0 0
  105 1 2 1.2319818673425754e+01 6.9466711603599292e+00 -6.6197236434534219e+01 0 0 0
  106 1 2 1.2829395734943303e+01 6.5523606044864229e+00 -6.6872029042519301e+01 0 0 0
  107 1 1 1.2280750464411412e+01 7.2656412290689216e+00 -6.7261365736950552e+01 0 0 0
  108 1 2 1.2136812988919123e+01 6.4532481316982100e+00 -6.7805982656358609e+01 0 0 0
  109 1 1 1.1298325250056523e+01 6.7099336496027933e+00 -6.7414478262155811e+01 0 0 0
  110 1 1 1.1232344014395554e+01 5.7860543715988628e+00 -6.7665589659402244e+01 0 0 0
  111 1 2 1.0638266721075036e+01 5.9745576650876959e+00 -6.6970678567497245e+01 0 0 0
  112 1 2 1.0582895592083601e+01 4.9956317771110292e+00 -6.7181100139334973e+01 0 0 0
  113 1 2 9.6878292916652242e+00 5.3624791072434910e+00 -6.7057486152301252e+01 0 0 0
  114 1 2 9.6788670193916495e+00 4.9661948666896771e+00 -6.7859667618104311e+01 0 0 0
  115 1 2 9.0786439132227450e+00 5.7512645166895062e+00 -6.7918865437806872e+01 0 0 0
  116 1 2 8.7085937924441499e+00 4.8708753853266744e+00 -6.8338653885769759e+01 0 0 0
  117 1 2 8.0696208131746552e+00 5.6306761136906545e+00 -6.8468788870194302e+01 0 0 0
  118 1 2 7.6240286070524625e+00 4.8804945276792004e+00 -6.8796256075680404e+01 0 0 0
  119 1 2 7.8351738665545581e+00 5.4156416465106512e+00 -6.9534280472665060e+01 0 0 0
  120 1 2 7.1713206753886336e+00 5.8643641835735787e+00 -6.9013993224103643e+01 0 0 0
  121 1 2 7.5219563142360055e+00 6.5447138986139048e+00 -6.9671370244142594e+01 0 0 0
  122 1 2 6.8847816348575783e+00 6.8845908117579340e+00 -6.9007742833209804e+01 0 0 0
  123 1 2 6.4317697416603616e+00 6.5479787401458918e+00 -6.9785043267739738e+01 0 0 0
  124 1 2 5.8114947979374785e+00 6.4282070295070692e+00 -6.8994158516333613e+01 0 0 0
  125 1 2 5.4078790230630469e+00 6.9710648289413344e+00 -6.9664172456410697e+01 0 0 0
  126 1 3 4.7605138119061809e+00 6.7182255909908042e+00 -6.9085603941772021e+01 0 0 0
  127 1 2 5.3666740703629685e+00 7.3964043943093483e+00 -6.8628208343965284e+01 0 0 0
  128 1 2 4.6727755640469484e+00 6.9607730102511027e+00 -6.8067353971518074e+01 0 0 0
  129 1 2 5.5766417889678115e+00 6.9704388664066501e+00 -6.7681227343567471e+01 0 0 0
  130 1 2 5.0050418108555119e+00 7.5729200818191797e+00 -6.7135206864295171e+01 0 0 0
  131 1 2 5.8558961780989538e+00 7.4547644438758809e+00 -6.6753779792838188e+01 0 0 0
  132 1 2 5.1814410946355567e+00 6.9605172315291046e+00 -6.6179223019764606e+01 0 0 0
  133 1 1 5.9440358244956633e+00 7.1411769285734303e+00 -6.5691114963768271e+01 0 0 0
  134 1 2 5.0800571909089056e+00 7.4805634887428631e+00 -6.5252177961077479e+01 0 0 0
  135 1 2 5.6999071366958738e+00 7.1361267485245143e+00 -6.4614286142312849e+01 0 0 0
  136 1 2 4.9243096685184105e+00 7.4665350206319809e+00 -6.4134547609651008e+01 0 0 0
  137 1 2 5.7040061286569657e+00 8.0925225759853756e+00 -6.4161907757663499e+01 0 0 0
  138 1 2 5.0826854366430751e+00 8.4024462400356086e+00 -6.3512894996293326e+01 0 0 0
  139 1 2 5.1025022508933580e+00 9.0942003503754698e+00 -6.4193504306500600e+01 0 0 0
  140 1 2 5.8771648765984450e+00 9.0873854191081858e+00 -6.3544396803909606e+01 0 0 0
  141 1 2 5.1065277302965049e+00 9.5461248278612061e+00 -6.3191146363341041e+01 0 0 0
  142 1 2 5.5501647831669985e+00 1.0204782085483764e+01 -6.3742753353729292e+01 0 0 0
  143 1 2 5.7959543477408824e+00 1.0273141609812731e+01 -6.2811286400329855e+01 0 0 0
  144 1 2 6.0182655341115296e+00 1.1056878734469528e+01 -6.3256473186769306e+01 0 0 0
  145 1 2 6.0715594952243892e+00 1.1198071087685296e+01 -6.2355094322642799e+01 0 0 0
  146 1 2 5.6343612823185589e+00 1.1967568070053018e+01 -6.2710803071333494e+01 0 0 0
  147 1 2 6.6683354379588566e+00 1.1988701215537580e+01 -6.2828495768987807e+01 0 0 0
  148 1 3 6.3492997655433765e+00 1.2397494581736977e+01 -6.2012892124317368e+01 0 0 0
  149 1 2 7.2706738314511563e+00 1.2192960881964055e+01 -6.1957475986155600e+01 0 0 0
  150 1 2 6.9713016956807081e+00 1.2813079780613878e+01 -6.1225109581581336e+01 0 0 0
  151 1 2 7.8326481237630095e+00 1.2296590071553982e+01 -6.1010953190270115e+01 0 0 0
  152 1 2 7.1696481300854131e+00 1.2260368027191788e+01 -6.0229771307730346e+01 0 0 0
  153 1 2 7.2053131057666828e+00 1.1469041072717362e+01 -6.0801378594977329e+01 0 0 0
  154 1 2 6.2953196248652752e+00 1.1648213933117688e+01 -6.0632962113843931e+01 0 0 0
  155 1 2 6.4380731292968134e+00 1.0722070317727535e+01 -6.0761576760681905e+01 0 0 0
  156 1 2 6.6451162575558449e+00 1.0932107978910373e+01 -5.9858308725161770e+01 0 0 0
  157 1 2 6.8387112142192610e+00 1.0033136869568871e+01 -6.0084093402247156e+01 0 0 0
  158 1 2 7.5237962593403189e+00 1.0505032009360098e+01 -5.9444474622117106e+01 0 0 0
  159 1 2 7.4312094074994768e+00 9.5134026136473722e+00 -5.9433220370963234e+01 0 0 0
  160 1 2 7.8762869964530609e+00 9.8674321642358418e+00 -5.8635537570032007e+01 0 0 0
  161 1 2 6.9957420667801884e+00 9.5531434940929358e+00 -5.8436807644362879e+01 0 0 0
  162 1 2 7.1618581744536467e+00 1.0355287744814463e+01 -5.7937975232184442e+01 0 0 0
  163 1 2 7.7624694806464092e+00 9.5767371548033982e+00 -5.7609020146519356e+01 0 0 0
  164 1 2 8.1366967148179423e+00 1.0417936031502165e+01 -5.7523776063489180e+01 0 0 0
  165 1 2 7.4364799324877930e+00 1.0404916131135234e+01 -5.6835776166760745e+01 0 0 0
  166 1 2 8.1995306174745810e+00 9.8663738790808786e+00 -5.6533681971287521e+01 0 0 0
  167 1 2 8.2747591861053156e+00 1.0724872298342698e+01 -5.6067928625408612e+01 0 0 0
  168 1 2 8.4148705958569856e+00 9.9568130226642140e+00 -5.5522102380385206e+01 0 0 0
  169 1 2 7.9404851922963466e+00 1.0543676620922922e+01 -5.4962574418848583e+01 0 0 0
  170 1 2 8.8503052288697024e+00 1.0413130194872595e+01 -5.4555796449542129e+01 0 0 0
  171 1 2 8.4251940074375113e+00 1.1194573675717553e+01 -5.4236773881760520e+01 0 0 0
  172 1 2 9.3448749652136911e+00 1.1114925052526841e+01 -5.3778554413624377e+01 0 0 0
  173 1 2 8.6010650423947315e+00 1.0988195587206468e+01 -5.3126742408663475e+01 0 0 0
  174 1 2 8.7642129816358416e+00 1.1943566494903544e+01 -5.3312677614148726e+01 0 0 0
  175 1 2 8.1740183154103647e+00 1.1777576247984095e+01 -5.2552557257171586e+01 0 0 0
  176 1 2 7.6817731428578568e+00 1.2267424880279895e+01 -5.3180857286197572e+01 0 0 0
  177 1 2 7.5614096763050425e+00 1.2611154585289130e+01 -5.2262902755439370e+01 0 0 0
  178 1 3 6.6971284448399819e+00 1.2385368653607539e+01 -5.2733506733971041e+01 0 0 0
  179 1 2 6.4850878089819357e+00 1.2864437031159245e+01 -5.1926277028991450e+01 0 0 0
  180 1 2 6.1220470511905649e+00 1.1972747792193609e+01 -5.1899719413779806e+01 0 0 0
  181 1 2 5.4456733310734977e+00 1.2627133746446313e+01 -5.1764858140597823e+01 0 0 0
  182 1 2 5.0530542562750842e+00 1.1896289276687305e+01 -5.2242972417385786e+01 0 0 0
  183 1 2 4.7630338868597466e+00 1.1896578277756610e+01 -5.1257713327244090e+01 0 0 0
  184 1 2 3.9306709224160827e+00 1.2036371558072426e+01 -5.1781374143344443e+01 0 0 0
  185 1 2 3.7317152880815230e+00 1.2010439309418031e+01 -5.0855827874429423e+01 0 0 0
  186 1 2 3.0801084283206972e+00 1.1405445040999943e+01 -5.1372241263292459e+01 0 0 0
  187 1 2 2.6149985839550247e+00 1.2084614809803702e+01 -5.0775218392956070e+01 0 0 0
  188 1 2 2.3779776096576453e+00 1.1167345893246273e+01 -5.0634640030636653e+01 0 0 0
  189 1 3 2.1748425297164213e+00 1.1804408582439542e+01 -4.9821990096814197e+01 0 0 0
  190 1 2 3.0533978727604518e+00 1.1504010942754054e+01 -4.9736090176547968e+01 0 0 0
  191 1 1 2.4433408297651158e+00 1.1014438102274713e+01 -4.9087345149852489e+01 0 0 0
  192 1 1 3.3346135392217886e+00 1.0647219985847984e+01 -4.9005730108725317e+01 0 0 0
  193 1 1 3.4034462779426673e+00 1.1467359220104010e+01 -4.8622460789566112e+01 0 0 0
  194 1 1 4.1692762732066386e+00 1.1273384565920820e+01 -4.9042001389236979e+01 0 0 0
  195 1 1 4.2368096708876104e+00 1.1036327986762828e+01 -4.8117166781371935e+01 0 0 0
  196 1 1 5.0562897577433841e+00 1.0871112500456061e+01 -4.8558574038757875e+01 0 0 0
  197 1 1 5.3283292509195634e+00 1.1118067840794657e+01 -4.7732900526718247e+01 0 0 0
  198 1 1 5.7942452341674011e+00 1.1628484589546099e+01 -4.8453360875710501e+01 0 0 0
  199 1 1 6.3900462681320631e+00 1.1006110572129911e+01 -4.8071153237166570e+01 0 0 0
  200 1 1 6.1497998964578251e+00 1.1660507236914597e+01 -4.7393817459453004e+01 0 0 0
  201 1 1 7.1443656011874186e+00 1.1635689385445389e+01 -4.7475021587111286e+01 0 0 0
  202 1 1 6.8405007954314483e+00 1.2045614858526054e+01 -4.6590332922301904e+01 0 0 0
  203 1 1 6.6595860890812064e+00 1.1114597627063324e+01 -4.6564942765573150e+01 0 0 0
  204 1 1 6.3939188285934501e+00 1.1416240328931782e+01 -4.5699603140872782e+01 0 0 0
  205 1 1 5.5441133746947475e+00 1.1364076769626623e+01 -4.6127253553444561e+01 0 0 0
  206 1 1 5.8767005179180414e+00 1.2258412427920318e+01 -4.6205139453076171e+01 0 0 0
  207 1 1 5.3017098285024451e+00 1.2182650079572873e+01 -4.5427044157430927e+01 0 0 0
  208 1 1 5.1719020196291563e+00 1.3008969639937186e+01 -4.5836707012275312e+01 0 0 0
  209 1 1 4.9370893829010853e+00 1.3118478710887292e+01 -4.4826583392760732e+01 0 0 0
  210 1 1 5.3277456925143447e+00 1.3903609615676677e+01 -4.5229373992515697e+01 0 0 0
  211 1 1 4.6544036016817483e+00 1.4153562271000654e+01 -4.4563896477144013e+01 0 0 0
  212 1 1 5.4855724424395698e+00 1.4321348229038872e+01 -4.4177297628165121e+01 0 0 0
  213 1 1 4.7079366461708307e+00 1.4389518909212168e+01 -4.3538606997744346e+01 0 0 0
  214 1 1 5.0823455454792663e+00 1.3554156331839200e+01 -4.3449996542283088e+01 0 0 0
  215 1 1 5.3974200934730110e+00 1.4016303431594709e+01 -4.2641690103384271e+01 0 0 0
  216 1 1 5.9574092598588013e+00 1.3276915730042877e+01 -4.2937599397686448e+01 0 0 0
  217 1 1 6.4793580265230704e+00 1.3812809607118703e+01 -4.2371318516698132e+01 0 0 0
  218 1 1 6.3819974968260924e+00 1.4328660155362952e+01 -4.3189784412313557e+01 0 0 0
  219 1 1 6.4764477121513684e+00 1.4936987993678818e+01 -4.2481527503836595e+01 0 0 0
  220 1 1 6.8085507424672462e+00 1.5410260797697163e+01 -4.3263272966816402e+01 0 0 0
  221 1 1 5.8843747825389841e+00 1.5705385594408826e+01 -4.3038018750018296e+01 0 0 0
  222 1 1 6.1634888676002451e+00 1.6027293350094904e+01 -4.3872106866691439e+01 0 0 0
  223 1 1 5.8287009768008895e+00 1.6862635431663300e+01 -4.3577777368535983e+01 0 0 0
  224 1 1 6.6211979679816428e+00 1.6559740999736601e+01 -4.3112395494576070e+01 0 0 0
  225 1 1 6.8642131881764019e+00 1.7325812165428509e+01 -4.3651030445273413e+01 0 0 0
  226 1 1 7.2454920064089894e+00 1.7356711736539488e+01 -4.2752415131458214e+01 0 0 0
  227 1 1 6.6736830334125647e+00 1.8088425261315034e+01 -4.2711001145660134e+01 0 0 0
  228 1 1 6.0838984468319257e+00 1.7489907662146386e+01 -4.2232080163175297e+01 0 0 0
  229 1 1 5.8671694917903805e+00 1.8450474688156906e+01 -4.2010575042670034e+01 0 0 0
  230 1 1 5.5156401360335980e+00 1.7778524098719473e+01 -4.1354270629498188e+01 0 0 0
  231 1 1 4.8260789163825191e+00 1.8372854941639446e+01 -4.1571509302667131e+01 0 0 0
  232 1 1 4.8324122435886849e+00 1.8199427505876724e+01 -4.0645609136090584e+01 0 0 0
  233 1 1 3.9419843570005293e+00 1.8405760789580270e+01 -4.0916125609461538e+01 0 0 0
  234 1 1 4.4623066403551412e+00 1.9113726002074475e+01 -4.0552982778259590e+01 0 0 0
  235 1 1 3.9080524186202452e+00 1.8795342947111077e+01 -3.9855263399411584e+01 0 0 0
  236 1 1 3.7083993249172202e+00 1.9763454544780117e+01 -4.0060960941620046e+01 0 0 0
  237 1 1 3.0919165684657020e+00 1.9433354905795234e+01 -3.9285637985401095e+01 0 0 0
  238 1 1 2.5510321083999772e+00 1.9645845081468643e+01 -3.9996790992437056e+01 0 0 0
  239 1 1 2.5829617574323680e+00 1.8672821093757019e+01 -3.9799472641828892e+01 0 0 0
  240 1 1 2.6685605863963149e+00 1.8813891044600030e+01 -4.0814626179370158e+01 0 0 0
  241 1 1 2.7658335259177869e+00 1.7899541823053163e+01 -4.0577968917935770e+01 0 0 0
  242 1 1 2.1744989138560924e+00 1.7907127840525273e+01 -4.1387687008998228e+01 0 0 0
  243 1 1 2.1416677215968134e+00 1.7117163678430089e+01 -4.0882201773579574e+01 0 0 0
  244 1 1 1.2896358498207654e+00 1.7571659417864357e+01 -4.1058784030047065e+01 0 0 0
  245 1 1 1.1372036143603208e+00 1.7062611918160293e+01 -4.0217242991096406e+01 0 0 0
  246 1 1 8.2497167951061401e-01 1.6595771789654972e+01 -4.0948645378629358e+01 0 0 0
  247 1 1 1.1610726614157529e-01 1.7158556748346012e+01 -4.0723195933589849e+01 0 0 0
  248 1 1 -1.1127549261366609e-03 1.6881204848447098e+01 -4.1635330814450320e+01 0 0 0
  249 1 1 -3.5996413326771842e-01 1.6147051051086123e+01 -4.1091460496425427e+01 0 0 0
  250 1 1 -9.8241668626704748e-01 1.6378558210754015e+01 -4.1771957556728708e+01 0 0 0
  251 1 1 -5.4102699183577618e-01 1.5476276945032261e+01 -4.1872532592771293e+01 0 0 0
  252 1 1 -1.3143264984864576e+00 1.5421924464598254e+01 -4.1318079855830078e+01 0 0 0
  253 1 1 -7.8867288437339622e-01 1.4645272980978834e+01 -4.1336640383306744e+01 0 0 0
  254 1 1 -8.5666370554234672e-01 1.4872012856815648e+01 -4.0452625898196857e+01 0 0 0
  255 1 1 -4.4037340478262195e-02 1.4356495576223125e+01 -4.0579678884209343e+01 0 0 0
  256 1 1 1.6885060934331432e-02 1.4867925830332245e+01 -3.9680656502754942e+01 0 0 0
  257 1 1 1.9654452647588294e-01 1.3903730293460569e+01 -3.9627928072454601e+01 0 0 0
  258 1 1 -6.6588554736231209e-01 1.4042933055630979e+01 -3.9364323447728701e+01 0 0 0
  259 1 1 -2.3856367453782956e-01 1.3265183000463017e+01 -3.8837877826281385e+01 0 0 0
  260 1 1 -9.3775642175691942e-01 1.3640087596536207e+01 -3.8376407853001659e+01 0 0 0
  261 1 1 -5.6434517002043449e-01 1.2927267977394951e+01 -3.7820673630267351e+01 0 0 0
  262 1 1 -1.4190257188690842e+00 1.2660372639718972e+01 -3.8248893638094373e+01 0 0 0
  263 1 1 -6.5883346069198290e-01 1.2122703620004922e+01 -3.8554840622049277e+01 0 0 0
  264 1 1 -1.1240895165547269e+00 1.1610461521670921e+01 -3.7928616056108758e+01 0 0 0
  265 1 1 -4.9844496737120936e-01 1.1037858688900434e+01 -3.8258707512795858e+01 0 0 0
  266 1 1 -1.3159025516748262e+00 1.0549226423316274e+01 -3.8016213457451983e+01 0 0 0
  267 1 1 -5.8563634662819142e-01 9.9213253446984435e+00 -3.8258152034381482e+01 0 0 0
  268 1 1 -7.4879882031115363e-01 9.8361349498936708e+00 -3.7330948694480973e+01 0 0 0
  269 1 1 4.4203245308025007e-03 9.2803264384472044e+00 -3.7556998774650218e+01 0 0 0
  270 1 1 5.9462304932136979e-02 9.4532261956192745e+00 -3.6615053744679230e+01 0 0 0
  271 1 1 2.4493584646843974e-01 8.5286741325365369e+00 -3.6802880162117525e+01 0 0 0
  272 1 1 7.4424721215548706e-01 8.7926994333280550e+00 -3.6011037359393129e+01 0 0 0
  273 1 1 -1.5879863397194707e-01 8.5337948532506580e+00 -3.5750510313737067e+01 0 0 0
  274 1 1 2.5356273121445488e-01 8.9603319243523050e+00 -3.4999277996582293e+01 0 0 0
  275 1 1 -1.2025519945955915e-01 8.1945427821693873e+00 -3.4588405577430080e+01 0 0 0
  276 1 1 -1.4968333245470639e-01 8.9703780540539562e+00 -3.4042039072322687e+01 0 0 0
  277 1 1 -7.7936407437367050e-01 8.2845168810995595e+00 -3.3701782256982995e+01 0 0 0
  278 1 1 5.9243123415406627e-02 8.2041459750601504e+00 -3.3249863667320746e+01 0 0 0
  279 1 1 -6.2527919225914352e-01 7.7592191861996600e+00 -3.2777568171409904e+01 0 0 0
  280 1 1 6.4978653307621898e-02 8.0223109116672440e+00 -3.2163818411925604e+01 0 0 0
  281 1 1 -7.3945395157418858e-01 7.7436767944740073e+00 -3.1670527422680259e+01 0 0 0
  282 1 1 3.5326299091944083e-02 7.3112511466968524e+00 -3.1386509991795275e+01 0 0 0
  283 1 1 -8.1466581463775034e-01 6.8809169819140816e+00 -3.1018622857621661e+01 0 0 0
  284 1 1 -3.5786305991264106e-01 6.2948217909574140e+00 -3.1650190264898370e+01 0 0 0
  285 1 1 -5.7073369186715261e-01 5.8560889435893877e+00 -3.0830267494402626e+01 0 0 0
  286 1 1 2.8978873237319708e-01 5.4148287095456267e+00 -3.1108395667743437e+01 0 0 0
  287 1 1 3.7194294497670499e-01 5.7925276614178349e+00 -3.0225195561289674e+01 0 0 0
  288 1 1 5.0955816881612448e-01 4.8251872548741801e+00 -3.0139866728169139e+01 0 0 0
  289 1 1 1.3450088909395095e+00 5.3152477831881466e+00 -3.0187393647473741e+01 0 0 0
  290 1 1 1.3451819363216952e+00 4.8176770267922500e+00 -2.9342591522633484e+01 0 0 0
  291 1 1 1.4344676639861300e+00 4.2328946019887601e+00 -3.0058803358272982e+01 0 0 0
  292 1 1 1.3584428699611146e+00 3.7272344932032455e+00 -2.9299222908769043e+01 0 0 0
  293 1 1 1.2702729283990286e+00 3.1783878991491492e+00 -3.0056956863245215e+01 0 0 0
  294 1 1 4.8027867683334424e-01 3.1350674252956425e+00 -2.9490293687373331e+01 0 0 0
  295 1 1 5.7330652007959204e-01 2.3579312257349234e+00 -2.9941472018239182e+01 0 0 0
  296 1 1 -3.7133634638050339e-01 2.6559126274523233e+00 -3.0053527869129852e+01 0 0 0
  297 1 1 -3.7039515488588309e-01 1.8753304735709277e+00 -2.9464056647311420e+01 0 0 0
  298 1 4 -7.0990176342093281e-01 1.6166317933400425e+00 -3.0295885512948853e+01 0 0 0
  299 1 1 -1.3780922625635352e+00 1.4402272871335731e+00 -2.9609624844799274e+01 0 0 0
  300 1 1 -9.9714449034594221e-01 6.1643840565212538e-01 -2.9980761618788279e+01 0 0 0
  301 1 1 -7.9708422692349934e-01 6.6726075300912524e-01 -2.9047901032306733e+01 0 0 0
  302 1 1 2.2671217943036920e-02 6.5510186227625167e-01 -2.9570585582372004e+01 0 0 0
  303 1 1 1.5909867962475635e-01 3.4707998755567798e-01 -2.8681466504778882e+01 0 0 0
  304 1 1 9.9944590801063393e-01 3.5797198234103483e-01 -2.9197480143738158e+01 0 0 0
  305 1 1 1.1594707777762612e+00 8.4431332867575259e-01 -2.8389031173682564e+01 0 0 0
  306 1 1 1.6323831149480235e+00 4.9508588095079804e-03 -2.8326114926394581e+01 0 0 0
  307 1 1 7.8426899939960282e-01 -1.8226045404004196e-01 -2.7950107431469640e+01 0 0 0
  308 1 1 1.3328649952211069e+00 -8.1070426245168403e-01 -2.7557375714307302e+01 0 0 0
  309 1 1 6.8478424428213780e-01 -1.3465119565351176e+00 -2.7907009740582851e+01 0 0 0
  310 1 1 6.1020173872124672e-01 -1.4343722131027323e+00 -2.6981700130322054e+01 0 0 0
  311 1 1 1.3226227699715485e+00 -1.9604025765098405e+00 -2.7299833218179920e+01 0 0 0
  312 1 1 1.3405347616634338e+00 -1.7138321611110738e+00 -2.6349676317186109e+01 0 0 0
  313 1 1 2.2429485910986093e+00 -1.7040277185592665e+00 -2.6729375826172785e+01 0 0 0
  314 1 1 2.3194863807467025e+00 -1.4393031672521959e+00 -2.5815176749464541e+01 0 0 0
  315 1 1 2.4107269113416381e+00 -2.4026891412661597e+00 -2.5889379752651063e+01 0 0 0
  316 1 1 3.2493349577363420e+00 -2.0308284329855586e+00 -2.5590274363431941e+01 0 0 0
  317 1 1 2.7683866539996593e+00 -2.3173027339355370e+00 -2.4781153300552123e+01 0 0 0
  318 1 1 3.5187815265537767e+00 -1.6959692384349276e+00 -2.4568528562498980e+01 0 0 0
  319 1 1 2.7917013145447367e+00 -1.4732044078154169e+00 -2.4088349074250448e+01 0 0 0
  320 1 1 3.4757300573298511e+00 -1.2316747483965904e+00 -2.3528480586378677e+01 0 0 0
  321 1 1 3.3959093028256482e+00 -2.1944951018323282e+00 -2.3408644561679669e+01 0 0 0
  322 1 1 4.3633125545921922e+00 -1.9352916622631433e+00 -2.3360118943039264e+01 0 0 0
  323 1 1 4.1484029224027976e+00 -1.8482909709744264e+00 -2.2461768394420663e+01 0 0 0
  324 1 1 4.3994000694343125e+00 -2.7755595026307915e+00 -2.2573492687803501e+01 0 0 0
  325 1 2 4.9736096942548649e+00 -2.4419634712702485e+00 -2.1850381980255413e+01 0 0 0
  326 1 3 4.4780975529367080e+00 -3.1474186455212463e+00 -2.1464127751089372e+01 0 0 0
  327 1 1 4.0059433090720908e+00 -2.3581499213034296e+00 -2.1288106244951511e+01 0 0 0
  328 1 1 4.2297636432252874e+00 -2.8061989724598333e+00 -2.0512421081006639e+01 0 0 0
  329 1 1 4.1190844140900778e+00 -1.8478743965207256e+00 -2.0273406683910878e+01 0 0 0
  330 1 1 3.2384014157623229e+00 -2.3178116739436603e+00 -2.0481117815094557e+01 0 0 0
  331 1 1 3.1932892125481391e+00 -1.7586462977165296e+00 -1.9692000983018684e+01 0 0 0
  332 1 1 2.3038668603365466e+00 -1.7298927732635594e+00 -2.0214447211747828e+01 0 0 0
  333 1 1 2.2851541064382399e+00 -1.0863252114455961e+00 -1.9509667937948912e+01 0 0 0
  334 1 1 2.1861285444346192e+00 -1.9780144932713566e+00 -1.9070663805551824e+01 0 0 0
  335 1 1 2.9221764444866953e+00 -1.5213576954691332e+00 -1.8614151932098999e+01 0 0 0
  336 1 1 2.6878742453851752e+00 -2.2881972609386119e+00 -1.8151978563405457e+01 0 0 0
  337 1 1 2.5280754854458216e+00 -1.6767374227453631e+00 -1.7489056469615779e+01 0 0 0
  338 1 1 2.5127672660878186e+00 -2.5569350630518120e+00 -1.7101967717809643e+01 0 0 0
  339 1 1 1.7204497365783880e+00 -1.9927969303430906e+00 -1.6831782883378921e+01 0 0 0
  340 1 1 2.2177948706894353e+00 -2.2404357632003045e+00 -1.6046400098234709e+01 0 0 0
  341 1 1 1.7315429138996614e+00 -1.3691862710376148e+00 -1.6062883429414200e+01 0 0 0
  342 1 1 1.2022837851498582e+00 -2.1031047315761837e+00 -1.5644274718729362e+01 0 0 0
  343 1 1 6.0268877975241286e-01 -1.3626349445782751e+00 -1.5955715024191351e+01 0 0 0
  344 1 1 8.0992065884915432e-01 -1.2237557277197824e+00 -1.5010593114395711e+01 0 0 0