LAMMPS data file via write_data, version 7 Dec 2015, timestep = 20000

10000 atoms
5 atom types
9399 bonds
3 bond types
4998 angles
1 angle types
2 extra bond per atom

-7.5000000000000000e+01 7.5000000000000000e+01 xlo xhi
-7.5000000000000000e+01 7.5000000000000000e+01 ylo yhi
-7.5000000000000000e+01 7.5000000000000000e+01 zlo zhi

Masses

1 1
2 1
3 1
4 1
5 1

Atoms

  1 1 1 1.3535552175250054e+01 -3.1726338021871431e+01 1.1680768845433933e+00 0 0 0
  2 1 1 1.3764913638473640e+01 -3.2244351913158830e+01 2.9753446791198063e-01 0 0 0
  3 1 1 1.4372959285278903e+01 -3.1457661349483317e+01 4.7498923652648267e-01 0 0 0
  4 1 1 1.4545694542081590e+01 -3.1808685135461072e+01 -4.3325072194018138e-01 0 0 0
  5 1 1 1.5260214264449370e+01 -3.1277502055166384e+01 -1.3176648663790708e-01 0 0 0
  6 1 1 1.5527412318938220e+01 -3.2020039632500804e+01 -6.2714085482630610e-01 0 0 0
  7 1 1 1.6236301311257140e+01 -3.1736232370208128e+01 6.6935489994582209e-02 0 0 0
  8 1 1 1.6581215702323128e+01 -3.1699231095601895e+01 -7.6342815146775578e-01 0 0 0
  9 1 2 1.6932831614329885e+01 -3.0982760763497438e+01 -2.7474815704283245e-01 0 0 0
  10 1 2 1.6841644210297051e+01 -3.0698148952986195e+01 -1.1916503453620635e+00 0 0 0
  11 1 1 1.7050978876716488e+01 -2.9862823562222292e+01 -6.0617066901990801e-01 0 0 0
  12 1 1 1.7199023439648087e+01 -2.9863506867682265e+01 -1.5624524767836783e+00 0 0 0
  13 1 2 1.7893259175722548e+01 -2.9321973931825319e+01 -1.1484315163628604e+00 0 0 0
  14 1 2 1.7963119209987902e+01 -2.9465881047949075e+01 -2.0784174707842942e+00 0 0 0
  15 1 2 1.8364323094702232e+01 -2.8665317426190747e+01 -1.8683713140325731e+00 0 0 0
  16 1 2 1.7438751429712259e+01 -2.8493734105340053e+01 -1.8910962027450542e+00 0 0 0
  17 1 2 1.7883970884728097e+01 -2.7615530083717928e+01 -1.9656488698904917e+00 0 0 0
  18 1 2 1.7443276104414917e+01 -2.7724120792878772e+01 -1.0826696402112965e+00 0 0 0
  19 1 2 1.6733045994491544e+01 -2.7416380263505850e+01 -1.8155538457810199e+00 0 0 0
  20 1 2 1.6863032604690176e+01 -2.6814377160342421e+01 -1.0866094041149648e+00 0 0 0
  21 1 2 1.5850511368567663e+01 -2.6776065421967488e+01 -1.2982158568634552e+00 0 0 0
  22 1 2 1.6049406431696966e+01 -2.6181897477410935e+01 -5.8577276361696329e-01 0 0 0
  23 1 2 1.5124082130394134e+01 -2.6432524413105067e+01 -5.4675403461186545e-01 0 0 0
  24 1 2 1.5155535451031913e+01 -2.5477646027938061e+01 -2.2442125260561621e-01 0 0 0
  25 1 2 1.4825154211177461e+01 -2.6033569334996034e+01 4.7200108137376756e-01 0 0 0
  26 1 1 1.5339725690016698e+01 -2.5322721891021502e+01 8.3700403505810006e-01 0 0 0
  27 1 2 1.5538654600956264e+01 -2.6028605826071157e+01 1.4601081559686242e+00 0 0 0
  28 1 2 1.4895821361547842e+01 -2.5461528328702585e+01 1.8312650275012063e+00 0 0 0
  29 1 1 1.5685662614278851e+01 -2.5402312247610968e+01 2.3524824530629935e+00 0 0 0
  30 1 1 1.5667701672689832e+01 -2.4616471728714799e+01 1.7103287723504244e+00 0 0 0
  31 1 1 1.6372376692386233e+01 -2.4685341094797451e+01 2.3961239728845523e+00 0 0 0
  32 1 1 1.5634107897717344e+01 -2.4517210130781127e+01 2.9085416550282437e+00 0 0 0
  33 1 1 1.6342982214614178e+01 -2.4991791036607815e+01 3.3556443238771614e+00 0 0 0
  34 1 1 1.5411901671874109e+01 -2.5153042868225217e+01 3.7470023939204502e+00 0 0 0
  35 1 1 1.5995553877397123e+01 -2.5601388254119087e+01 4.3420316724528956e+00 0 0 0
  36 1 1 1.5071895188551958e+01 -2.5517762828767623e+01 4.7085464165375024e+00 0 0 0
  37 1 2 1.5621091005374353e+01 -2.4891889053763105e+01 5.1067435278817150e+00 0 0 0
  38 1 1 1.4724370615313275e+01 -2.4626773196261045e+01 5.2891755871345341e+00 0 0 0
  39 1 1 1.5079913636255126e+01 -2.5168577974396680e+01 6.1383780034370021e+00 0 0 0
  40 1 1 1.4161770422054296e+01 -2.5260063299507966e+01 6.0769882742139574e+00 0 0 0
  41 1 2 1.4495957146138128e+01 -2.6075832492206061e+01 5.7573371187491338e+00 0 0 0
  42 1 2 1.4133929105637440e+01 -2.6188183792918100e+01 6.6324279740686807e+00 0 0 0
  43 1 1 1.4246439597727191e+01 -2.7010890874737427e+01 6.2810523772270273e+00 0 0 0
  44 1 2 1.3470426599767693e+01 -2.6971605320902469e+01 6.8011708166411919e+00 0 0 0
  45 1 2 1.3327133332149099e+01 -2.7653442071621498e+01 6.0172985887120936e+00 0 0 0
  46 1 2 1.3255441858490624e+01 -2.6816579965444237e+01 5.5968804911978633e+00 0 0 0
  47 1 2 1.2532634134898332e+01 -2.6970220150045858e+01 6.1681885441952780e+00 0 0 0
  48 1 2 1.2397439306999074e+01 -2.6032826160681886e+01 5.8845158744142001e+00 0 0 0
  49 1 2 1.1580015134984778e+01 -2.6482281413335190e+01 6.0912758429609770e+00 0 0 0
  50 1 2 1.1390692590256100e+01 -2.5575319708217858e+01 5.9107794000525145e+00 0 0 0
  51 1 2 1.0690117767801008e+01 -2.5870429890886495e+01 6.5455627684713038e+00 0 0 0
  52 1 2 1.0928290063941949e+01 -2.4935369476433127e+01 6.7368768111093624e+00 0 0 0
  53 1 1 1.1073116533700235e+01 -2.5472358487001461e+01 7.5634564290948889e+00 0 0 0
  54 1 1 1.0402943344665404e+01 -2.4844747037947336e+01 7.7377339961359377e+00 0 0 0
  55 1 2 1.0972454501001605e+01 -2.4976440531022906e+01 8.5335229459683326e+00 0 0 0
  56 1 2 1.1299951987457353e+01 -2.4224815963345378e+01 7.9862609771124085e+00 0 0 0
  57 1 2 1.1807006731049739e+01 -2.4369514549127103e+01 8.7959923518697032e+00 0 0 0
  58 1 2 1.1556249998414120e+01 -2.3398233835475189e+01 8.6515490446499932e+00 0 0 0
  59 1 2 1.1500902884963050e+01 -2.3396890425776348e+01 9.5740802082699119e+00 0 0 0
  60 1 2 1.0919082935015894e+01 -2.2720978970118388e+01 9.2476338260731836e+00 0 0 0
  61 1 2 1.1655746598210474e+01 -2.2298534547824154e+01 9.4999900156415862e+00 0 0 0
  62 1 2 1.1210266683454305e+01 -2.2649201674218286e+01 1.0330486250488025e+01 0 0 0
  63 1 2 1.1514200064286481e+01 -2.1659998049480773e+01 1.0362579933676709e+01 0 0 0
  64 1 1 1.1856025893275413e+01 -2.2194578715803470e+01 1.1089269880864254e+01 0 0 0
  65 1 1 1.1534872201459915e+01 -2.1332278333619346e+01 1.1408298511910496e+01 0 0 0
  66 1 1 1.1885340299285208e+01 -2.1967082473926776e+01 1.2134839479834145e+01 0 0 0
  67 1 1 1.1284452517375607e+01 -2.1272540760977552e+01 1.2535984896339315e+01 0 0 0
  68 1 1 1.2197315998228779e+01 -2.1152494701701006e+01 1.2964417546603480e+01 0 0 0
  69 1 1 1.1761394059343463e+01 -2.0294186143702930e+01 1.2838361449046834e+01 0 0 0
  70 1 1 1.2810310437903809e+01 -2.0213263418432174e+01 1.2836617740003101e+01 0 0 0
  71 1 2 1.2357374558408456e+01 -1.9388844146224386e+01 1.2589374942733290e+01 0 0 0
  72 1 1 1.3174064619743799e+01 -1.9525158874139645e+01 1.2124143572926714e+01 0 0 0
  73 1 1 1.2977343218950987e+01 -1.8569164539294018e+01 1.2135901586304868e+01 0 0 0
  74 1 1 1.3844289516538522e+01 -1.8781532433575077e+01 1.2191976114569359e+01 0 0 0
  75 1 1 1.3835004307836231e+01 -1.7883942625273043e+01 1.2347782169569818e+01 0 0 0
  76 1 1 1.4697679156027876e+01 -1.8288659178710805e+01 1.2591842244124962e+01 0 0 0
  77 1 1 1.4804368545306721e+01 -1.7351137435615954e+01 1.2227911629124304e+01 0 0 0
  78 1 1 1.5446768482114106e+01 -1.7999016165177110e+01 1.1830572393189684e+01 0 0 0
  79 1 2 1.5578442691111285e+01 -1.7166384490497755e+01 1.1372251254634088e+01 0 0 0
  80 1 3 1.5867955886842866e+01 -1.7825391959989282e+01 1.0797819535567559e+01 0 0 0
  81 1 2 1.6665729552276527e+01 -1.7435172188479743e+01 1.1086703487987723e+01 0 0 0
  82 1 2 1.6410815875621772e+01 -1.6957717685738576e+01 1.0285937849772317e+01 0 0 0
  83 1 2 1.6797941817284499e+01 -1.7782925780390396e+01 1.0151649786411927e+01 0 0 0
  84 1 1 1.7390350030365084e+01 -1.7088623550280154e+01 1.0246931629168941e+01 0 0 0
  85 1 2 1.7191105435012503e+01 -1.7252914743425855e+01 9.2825988714147556e+00 0 0 0
  86 1 2 1.7358011869677306e+01 -1.6380757402253963e+01 9.4748847438311312e+00 0 0 0
  87 1 2 1.6588235049086990e+01 -1.6378709947592355e+01 8.9518987367160641e+00 0 0 0
  88 1 2 1.7032459660091131e+01 -1.5550002868355058e+01 8.7767173405058099e+00 0 0 0
  89 1 2 1.6089919229433868e+01 -1.5503767165422255e+01 8.6388317264221630e+00 0 0 0
  90 1 2 1.6437897797557859e+01 -1.4645577907962229e+01 8.8376769094229140e+00 0 0 0
  91 1 2 1.5521252385961333e+01 -1.4570940177333686e+01 8.6228191532818421e+00 0 0 0
  92 1 2 1.6021752539993088e+01 -1.4770682514482788e+01 7.8626801096585845e+00 0 0 0
  93 1 2 1.5791907418710991e+01 -1.3834025728182674e+01 7.7691279976336505e+00 0 0 0
  94 1 2 1.6738567357286804e+01 -1.3939905398449529e+01 8.0428048312787457e+00 0 0 0
  95 1 1 1.6748171509742292e+01 -1.3277296531606725e+01 7.4182861035072483e+00 0 0 0
  96 1 1 1.6613906053749353e+01 -1.4073303732556079e+01 6.8656329688447002e+00 0 0 0
  97 1 2 1.5998445738548490e+01 -1.3419676053840158e+01 6.4708569918027106e+00 0 0 0
  98 1 2 1.5687551395082751e+01 -1.4291081074316045e+01 6.4748824173118376e+00 0 0 0
  99 1 2 1.4992280975998058e+01 -1.3718287578529095e+01 6.8208577525068055e+00 0 0 0
  100 1 2 1.4869755621584231e+01 -1.3725666188288351e+01 5.8839317522081993e+00 0 0 0
  101 1 2 1.3939435172773079e+01 -1.3642378872644763e+01 6.3708908708311007e+00 0 0 0
  102 1 2 1.4469158670806795e+01 -1.2815897944521110e+01 6.3806220268374139e+00 0 0 0
  103 1 2 1.3891786943953999e+01 -1.2739640756946457e+01 5.6377502770276688e+00 0 0 0
  104 1 2 1.4044630189443975e+01 -1.1889405265977567e+01 5.9739759665478340e+00 0 0 0
  105 1 2 1.3962083792342076e+01 -1.1762376591876107e+01 5.0512267946743492e+00 0 0 0
  106 1 2 1.4244744636140156e+01 -1.0967787184841781e+01 5.5246982251028456e+00 0 0 0
  107 1 1 1.4125084798196353e+01 -1.0818721071497006e+01 4.5160206856577414e+00 0 0 0
  108 1 2 1.4861982889481444e+01 -1.0274678503575172e+01 4.7991804951621306e+00 0 0 0
  109 1 1 1.4054532069856460e+01 -9.9985650137747744e+00 5.2165168047525343e+00 0 0 0
  110 1 1 1.4675490754231065e+01 -9.2968413032443760e+00 5.2918942825121729e+00 0 0 0
  111 1 2 1.3808702758623440e+01 -8.9907954624888884e+00 5.5563952628903088e+00 0 0 0
  112 1 2 1.4369198098187253e+01 -8.7678617999955506e+00 6.2876023711798048e+00 0 0 0
  113 1 2 1.3617879834851397e+01 -8.2247347464500145e+00 6.4119225285197778e+00 0 0 0
  114 1 2 1.3568108401281901e+01 -8.7972595921111179e+00 7.1454441028464979e+00 0 0 0
  115 1 2 1.3646560016357292e+01 -7.8659711802774304e+00 7.3623362920290054e+00 0 0 0
  116 1 2 1.4126480852389353e+01 -8.2780758508479622e+00 8.0109084754068078e+00 0 0 0
  117 1 2 1.3665484649711489e+01 -7.4141874825639675e+00 8.3426462731230924e+00 0 0 0
  118 1 2 1.3619516001114160e+01 -8.1743008999826774e+00 8.9582020347078100e+00 0 0 0
  119 1 2 1.3461215425997970e+01 -7.3317877816935786e+00 9.5034808748593331e+00 0 0 0
  120 1 2 1.3015885748900713e+01 -8.1630043392791478e+00 9.8418130357770419e+00 0 0 0
  121 1 2 1.3913755468556575e+01 -8.0628043766890354e+00 1.0214951599473334e+01 0 0 0
  122 1 2 1.3234651684245263e+01 -7.6801214029451828e+00 1.0782567127048132e+01 0 0 0
  123 1 2 1.3847643362328226e+01 -8.2865990718612466e+00 1.1265615988282763e+01 0 0 0
  124 1 2 1.3947915040316873e+01 -7.3382873368847878e+00 1.1490269849017343e+01 0 0 0
  125 1 2 1.4645472211680220e+01 -7.8019824113944498e+00 1.1937157994764105e+01 0 0 0
  126 1 3 1.5033044253074634e+01 -7.5147501509862451e+00 1.1157808875932137e+01 0 0 0
  127 1 2 1.5698414575793295e+01 -7.4270363776843649e+00 1.1852549533102424e+01 0 0 0
  128 1 2 1.5845910360141295e+01 -6.7510599283063488e+00 1.1234159642540451e+01 0 0 0
  129 1 2 1.6709428383543774e+01 -7.1490666048245926e+00 1.1450379102137944e+01 0 0 0
  130 1 2 1.6556961020155402e+01 -6.1560764880408030e+00 1.1739272152884711e+01 0 0 0
  131 1 2 1.7512983014998589e+01 -6.3489954521675216e+00 1.1598331712846914e+01 0 0 0
  132 1 2 1.7396231783590959e+01 -5.5548193369487988e+00 1.2124922044547164e+01 0 0 0
  133 1 1 1.7442570805611961e+01 -5.2978742108113188e+00 1.1182671201782094e+01 0 0 0
  134 1 2 1.8320377021642493e+01 -5.5731042733373473e+00 1.1551275096210261e+01 0 0 0
  135 1 2 1.8393513363085340e+01 -5.3963911268224729e+00 1.0579001952775405e+01 0 0 0
  136 1 2 1.8328983624166273e+01 -4.5315282647759156e+00 1.1026367211924805e+01 0 0 0
  137 1 2 1.9057136958295967e+01 -4.5616347049928994e+00 1.0408290737943679e+01 0 0 0
  138 1 2 1.8246652790232531e+01 -4.1846531912671976e+00 1.0064467533397234e+01 0 0 0
  139 1 2 1.8932889397954561e+01 -3.7168332212091535e+00 9.6547521500380906e+00 0 0 0
  140 1 2 1.8146704020950203e+01 -3.2094798211499569e+00 9.4983024424759268e+00 0 0 0
  141 1 2 1.8750744108165726e+01 -2.6219492648357141e+00 9.0891532514816902e+00 0 0 0
  142 1 2 1.8189138122073171e+01 -2.0363324970181824e+00 9.6363064882319964e+00 0 0 0
  143 1 2 1.8953944174300428e+01 -1.5700521632384912e+00 9.2480818704789076e+00 0 0 0
  144 1 2 1.8364432412933986e+01 -9.2813247899012885e-01 9.6993838126019316e+00 0 0 0
  145 1 2 1.8823577569441458e+01 -1.4548599855733120e+00 1.0371281405823000e+01 0 0 0
  146 1 2 1.8435199697268875e+01 -7.6295029781988066e-01 1.0853185205123854e+01 0 0 0
  147 1 2 1.9275947278365578e+01 -1.0062313083911383e+00 1.1241816760674684e+01 0 0 0
  148 1 3 1.9445864816875897e+01 -4.3827007065985552e-01 1.0485045360516814e+01 0 0 0
  149 1 2 1.9174893320684003e+01 1.3391422534447125e-01 1.1261950628499592e+01 0 0 0
  150 1 2 2.0051911189302675e+01 -2.4751868296070065e-01 1.1367498975177389e+01 0 0 0
  151 1 2 2.0052889401289431e+01 6.9411870137432630e-01 1.1510965313936314e+01 0 0 0
  152 1 2 2.0937878848311939e+01 3.7946245588557287e-01 1.1244754183742312e+01 0 0 0
  153 1 2 2.1063601151887223e+01 7.2723146495768520e-01 1.2125995700775123e+01 0 0 0
  154 1 2 2.0622163715702346e+01 -1.3957972354668213e-01 1.2134717578160267e+01 0 0 0
  155 1 2 2.0819430521499964e+01 1.5501362118187970e-01 1.2984529116464936e+01 0 0 0
  156 1 2 2.1507483176242030e+01 -3.7617245975423291e-01 1.2579144889470044e+01 0 0 0
  157 1 2 2.0854428232656218e+01 -9.6352714062039824e-01 1.3042560705406467e+01 0 0 0
  158 1 2 2.0926591235263327e+01 -1.2331469496237255e+00 1.2155385962877752e+01 0 0 0
  159 1 2 2.1727476907284803e+01 -1.5589315033257309e+00 1.2551321035812146e+01 0 0 0
  160 1 2 2.1953830455760464e+01 -9.6940936644431452e-01 1.1871263194364229e+01 0 0 0
  161 1 2 2.2707700766831980e+01 -1.5657782193343324e+00 1.1962138434621339e+01 0 0 0
  162 1 2 2.2572822044976128e+01 -1.4196219994766397e+00 1.0995731743861962e+01 0 0 0
  163 1 2 2.2067294470034575e+01 -2.2210220309453019e+00 1.1257583353154448e+01 0 0 0
  164 1 2 2.1972111423526922e+01 -2.0557659789954408e+00 1.0269430579576266e+01 0 0 0
  165 1 2 2.2473906744110543e+01 -2.8455750436344993e+00 1.0445252991293293e+01 0 0 0
  166 1 2 2.2190503969940728e+01 -2.9028680992731664e+00 9.5512968772240825e+00 0 0 0
  167 1 2 2.2178044369898618e+01 -3.7618681049867693e+00 9.9268792588821864e+00 0 0 0
  168 1 2 2.2733050880093639e+01 -3.8361998394237724e+00 9.1687910781957189e+00 0 0 0
  169 1 2 2.2143226271733226e+01 -4.5320312050275326e+00 9.0279099643635092e+00 0 0 0
  170 1 2 2.2929892100236746e+01 -4.8393355929548214e+00 9.5267604068615537e+00 0 0 0
  171 1 2 2.2546244050602049e+01 -5.5173247259582894e+00 8.9918912430181184e+00 0 0 0
  172 1 2 2.2855983408408221e+01 -4.8146538750935317e+00 8.4362932365965779e+00 0 0 0
  173 1 2 2.2203199169332805e+01 -5.3060845888436159e+00 7.9572640415979485e+00 0 0 0
  174 1 2 2.1996859111130956e+01 -4.3791864462120333e+00 7.8593094226466782e+00 0 0 0
  175 1 2 2.2430185157468856e+01 -4.6672002112079829e+00 6.9864622118817143e+00 0 0 0
  176 1 2 2.2227258264810938e+01 -3.7279535767383529e+00 6.9854112970181399e+00 0 0 0
  177 1 2 2.3037852811897206e+01 -3.9259770036845154e+00 6.5434422301854891e+00 0 0 0
  178 1 3 2.2737802992907760e+01 -3.0376613660122893e+00 6.3225742503266913e+00 0 0 0
  179 1 2 2.2557032850170152e+01 -3.5887669628716905e+00 5.5526336480647620e+00 0 0 0
  180 1 2 2.3538447202785338e+01 -3.4000898052737085e+00 5.5769353253821539e+00 0 0 0
  181 1 2 2.3013494752508283e+01 -2.7315410118272827e+00 5.0482884104248296e+00 0 0 0
  182 1 2 2.3720347373867767e+01 -2.9634857011999629e+00 4.5142423354440799e+00 0 0 0
  183 1 2 2.3178458527653465e+01 -3.7771440919243839e+00 4.5531894767636647e+00 0 0 0
  184 1 2 2.2770215561982965e+01 -3.2490953129493692e+00 3.8580572431900788e+00 0 0 0
  185 1 2 2.2629209277398481e+01 -4.1868895460014661e+00 3.6926598538571049e+00 0 0 0
  186 1 2 2.1733851110804412e+01 -3.7352548169669881e+00 3.6436219802145811e+00 0 0 0
  187 1 2 2.2020478439584718e+01 -3.9218981153227119e+00 2.7854675951962196e+00 0 0 0
  188 1 2 2.2022240730008708e+01 -2.9660538791917386e+00 2.8708737415402807e+00 0 0 0
  189 1 3 2.1103255962752208e+01 -3.2138164548220423e+00 2.8100807427248564e+00 0 0 0
  190 1 2 2.1160739445259356e+01 -2.4493459456389153e+00 2.3267411148811865e+00 0 0 0
  191 1 1 2.1453134298275543e+01 -3.2705878308142369e+00 1.7818186646196565e+00 0 0 0
  192 1 1 2.1840026468750590e+01 -2.5945458167050490e+00 1.3460294466952745e+00 0 0 0
  193 1 1 2.1866764498540089e+01 -3.4531655927408931e+00 8.3994430074500093e-01 0 0 0
  194 1 1 2.2721861683699142e+01 -3.0980928394649010e+00 1.0123211018639777e+00 0 0 0
  195 1 1 2.2858003985943768e+01 -4.0245955164991827e+00 8.5727873855187986e-01 0 0 0
  196 1 1 2.3079278995059163e+01 -3.8578036388174057e+00 1.7917256248740427e+00 0 0 0
  197 1 1 2.3387542520073584e+01 -4.7357848917900291e+00 1.5415625462481177e+00 0 0 0
  198 1 1 2.3338105501198559e+01 -4.7113122526079758e+00 2.5042917483917182e+00 0 0 0
  199 1 1 2.4243510891617774e+01 -4.6803493702019967e+00 2.1606041906360272e+00 0 0 0
  200 1 1 2.4076626568358549e+01 -3.9068812058066409e+00 2.7366359810034666e+00 0 0 0
  201 1 1 2.4168768677419070e+01 -3.7429069368304133e+00 1.7803635741402428e+00 0 0 0
  202 1 1 2.3589111463235724e+01 -3.0371486581608043e+00 2.2358670047645477e+00 0 0 0
  203 1 1 2.4459003332194456e+01 -2.6654840208685502e+00 2.0994915811838197e+00 0 0 0
  204 1 1 2.3775739507753862e+01 -2.3009426063655605e+00 1.4797560564097214e+00 0 0 0
  205 1 1 2.4457746096475812e+01 -1.5905834782276542e+00 1.4857210965937002e+00 0 0 0
  206 1 1 2.3615304578309814e+01 -1.2998567464415987e+00 1.8845601855983996e+00 0 0 0
  207 1 1 2.4196289569670469e+01 -4.9177487900383449e-01 1.7821475548669787e+00 0 0 0
  208 1 1 2.3861899869379290e+01 -5.1048983867231779e-01 2.6986510769151892e+00 0 0 0
  209 1 1 2.4827088904495156e+01 -7.0784163577984138e-01 2.7212638561463733e+00 0 0 0
  210 1 1 2.4335466792331516e+01 -8.6681414872700424e-01 3.5688336257622018e+00 0 0 0
  211 1 1 2.4958956494618917e+01 -1.7148923123865287e-01 3.7268909095327940e+00 0 0 0
  212 1 1 2.4980272523811948e+01 -7.9812512010637859e-01 4.4377882331776322e+00 0 0 0
  213 1 1 2.5399460835231146e+01 -1.2184906737975201e+00 3.6598141681151657e+00 0 0 0
  214 1 1 2.6147756965408099e+01 -1.0274261242318277e+00 4.2474918411490199e+00 0 0 0
  215 1 1 2.5826774193201089e+01 -1.9488615348932044e+00 4.2922188657589597e+00 0 0 0
  216 1 1 2.6716032656602383e+01 -1.8160275539609307e+00 4.7052744483691811e+00 0 0 0
  217 1 1 2.6007347819067682e+01 -1.3429735794131350e+00 5.1881759200639559e+00 0 0 0
  218 1 1 2.6833786794715120e+01 -1.0851234046324987e+00 5.5952771611717438e+00 0 0 0
  219 1 1 2.6610355356752581e+01 -1.9630859929737234e+00 5.9457312946836041e+00 0 0 0
  220 1 1 2.6954920201651003e+01 -1.4663234470699931e+00 6.7413738527358937e+00 0 0 0
  221 1 1 2.6317483833704745e+01 -2.1909460613286740e+00 7.0626393730261219e+00 0 0 0
  222 1 1 2.7176516185256339e+01 -2.4390928886721168e+00 7.4053555581267778e+00 0 0 0
  223 1 1 2.6648685337669377e+01 -3.2225760131967855e+00 7.1760200384579269e+00 0 0 0
  224 1 1 2.7537113938579314e+01 -3.5479464206409057e+00 7.5069234954812449e+00 0 0 0
  225 1 1 2.6799760230371163e+01 -4.0915767953936486e+00 7.8143562263419950e+00 0 0 0
  226 1 1 2.6947142742191588e+01 -3.4664382859937790e+00 8.4681830730550711e+00 0 0 0
  227 1 1 2.6252127670434380e+01 -3.8833485491940136e+00 8.8998947499747736e+00 0 0 0
  228 1 1 2.7045860250971817e+01 -3.9814818062772575e+00 9.4772017170622718e+00 0 0 0
  229 1 1 2.6491796121576673e+01 -4.7453387965303007e+00 9.4491451189542275e+00 0 0 0
  230 1 1 2.6612487002349525e+01 -4.5129517466225506e+00 1.0378032571918112e+01 0 0 0
  231 1 1 2.6945449145610461e+01 -5.3813850286900715e+00 1.0228751813084418e+01 0 0 0
  232 1 1 2.7676521385423559e+01 -4.7616799768547553e+00 1.0044415572760366e+01 0 0 0
  233 1 1 2.8104236169357421e+01 -5.6009564293666738e+00 9.9948637516814838e+00 0 0 0
  234 1 1 2.7862846359167019e+01 -5.2591471866365840e+00 9.0546918023775937e+00 0 0 0
  235 1 1 2.8741677003962483e+01 -4.9093635178529516e+00 9.4379697168144041e+00 0 0 0
  236 1 1 2.8561771483703360e+01 -4.5663033460425435e+00 8.5786946501398074e+00 0 0 0
  237 1 1 2.9470329704463285e+01 -4.8025473566190584e+00 8.7599333459563287e+00 0 0 0
  238 1 1 2.9522689603771276e+01 -3.9034177154333962e+00 8.4396026065186049e+00 0 0 0
  239 1 1 2.9209028110073739e+01 -3.9297792516221741e+00 9.3693966070088290e+00 0 0 0
  240 1 1 2.9668237163698002e+01 -3.1255060918924258e+00 9.1611919233949877e+00 0 0 0
  241 1 1 2.8740669528273855e+01 -3.0338564232714735e+00 8.8595818254876804e+00 0 0 0
  242 1 1 2.9205258155938619e+01 -2.1981377645853968e+00 8.7157182064881198e+00 0 0 0
  243 1 1 2.9326818211679782e+01 -2.8622169085934086e+00 7.9641464598812286e+00 0 0 0
  244 1 1 3.0186632440669428e+01 -2.4691103971076664e+00 8.2018663025073320e+00 0 0 0
  245 1 1 3.0180429933162994e+01 -2.7235750785678907e+00 7.2409888030804872e+00 0 0 0
  246 1 1 3.1036300148873771e+01 -2.3192906497061001e+00 7.5488366464460253e+00 0 0 0
  247 1 1 3.0887117200422956e+01 -2.3247317518009210e+00 6.5530108886299567e+00 0 0 0
  248 1 1 3.1826739938481129e+01 -2.1706296750390432e+00 6.7749011519866942e+00 0 0 0
  249 1 1 3.1750716248649493e+01 -2.6795677764763801e+00 5.9246522227910736e+00 0 0 0
  250 1 1 3.2050344460075507e+01 -1.7779237291831156e+00 5.8349676920220395e+00 0 0 0
  251 1 1 3.1640156739673607e+01 -2.0566860854827875e+00 4.9762253163258299e+00 0 0 0
  252 1 1 3.1300647911946594e+01 -1.2600720461218351e+00 5.3526049108684832e+00 0 0 0
  253 1 1 3.1903128419149009e+01 -9.0252785518840761e-01 4.6060188959778063e+00 0 0 0
  254 1 1 3.1577957244880771e+01 -2.3283307617550197e-01 5.2829704029537785e+00 0 0 0
  255 1 1 3.2477772464990146e+01 -5.9029740783504003e-01 5.5218476736830873e+00 0 0 0
  256 1 1 3.2410049517342379e+01 3.6554814589780377e-01 5.4815563991541110e+00 0 0 0
  257 1 1 3.2829696781503806e+01 2.1210197505149478e-01 6.3633309780673892e+00 0 0 0
  258 1 1 3.2144383845601901e+01 8.4265929443752452e-01 6.5023777324302801e+00 0 0 0
  259 1 1 3.2447492663061134e+01 3.4904435106915699e-01 7.2464937077641052e+00 0 0 0
  260 1 1 3.2542511040058123e+01 1.2929685003758471e+00 7.4638913012605821e+00 0 0 0
  261 1 1 3.2738197841790289e+01 6.7838873570542613e-01 8.1468409100913224e+00 0 0 0
  262 1 1 3.2019935112467770e+01 1.2481260507068637e+00 8.4507245799491653e+00 0 0 0
  263 1 1 3.2142582852684960e+01 5.8840252134921411e-01 9.0602206500926155e+00 0 0 0
  264 1 1 3.2303978242654956e+01 1.4584678568438831e+00 9.4824166953174966e+00 0 0 0
  265 1 1 3.2593992426837126e+01 7.9011350818551396e-01 1.0163284296018121e+01 0 0 0
  266 1 1 3.3135517018244038e+01 1.5867394344835886e+00 1.0045782843877344e+01 0 0 0
  267 1 1 3.3653415094639719e+01 7.9682508150679288e-01 9.9770423617947781e+00 0 0 0
  268 1 1 3.4210971045637081e+01 1.6045650321714000e+00 9.6597280443196123e+00 0 0 0
  269 1 1 3.3699870787238964e+01 1.1824890932261187e+00 8.9419579718644950e+00 0 0 0
  270 1 1 3.4290056214680149e+01 1.8213730135912689e+00 8.5648530525241142e+00 0 0 0
  271 1 1 3.3645371981230170e+01 2.3076102936061451e+00 9.0704951870961423e+00 0 0 0
  272 1 1 3.3617975671581739e+01 2.5810674003632377e+00 8.1609586762091713e+00 0 0 0
  273 1 1 3.4315337839551717e+01 3.0686652643861789e+00 8.6914585984969026e+00 0 0 0
  274 1 1 3.4471785946864628e+01 2.9700022804555775e+00 7.7670927704474533e+00 0 0 0
  275 1 1 3.4318155763339625e+01 3.8826809425045594e+00 7.8446338877420487e+00 0 0 0
  276 1 1 3.5254719323085652e+01 3.8178205078514482e+00 7.5318782857182969e+00 0 0 0
  277 1 1 3.5179943029244264e+01 4.4497841081799105e+00 8.2347170109230419e+00 0 0 0
  278 1 1 3.5995933542316294e+01 4.6499350805410700e+00 7.7397118333478030e+00 0 0 0
  279 1 1 3.6231641472842824e+01 4.5005429559583563e+00 8.6687117031903860e+00 0 0 0
  280 1 1 3.6457334216610128e+01 3.7066668966804364e+00 8.2912734789747802e+00 0 0 0
  281 1 1 3.7137724030440673e+01 4.3426692578943431e+00 8.0158369149976849e+00 0 0 0
  282 1 1 3.7426632009697215e+01 3.4110816457198645e+00 7.8344465368463965e+00 0 0 0
  283 1 1 3.8092143176409856e+01 3.7786073267631375e+00 8.4106556832385735e+00 0 0 0
  284 1 1 3.8280204172088389e+01 4.0761801548464307e+00 7.4896572012614744e+00 0 0 0
  285 1 1 3.8579650912800737e+01 4.7765665705671276e+00 8.1327839131752562e+00 0 0 0
  286 1 1 3.8794847253503001e+01 5.0321162335605027e+00 7.2206537432124982e+00 0 0 0
  287 1 1 3.8216895965168163e+01 5.6961966311805119e+00 7.5784031844045110e+00 0 0 0
  288 1 1 3.7694203269254835e+01 5.0375037925260582e+00 7.0108903026693161e+00 0 0 0
  289 1 1 3.7104156087884213e+01 5.6522630921633681e+00 7.4679736399085046e+00 0 0 0
  290 1 1 3.7396324185485639e+01 6.0149321081353397e+00 6.5846661330845855e+00 0 0 0
  291 1 1 3.7305634140193540e+01 6.7677734456013798e+00 7.1605568538086564e+00 0 0 0
  292 1 1 3.6616275335502991e+01 6.8925836731061576e+00 6.3996468669595146e+00 0 0 0
  293 1 1 3.7227080968505746e+01 7.6085345556927351e+00 6.4010558389166432e+00 0 0 0
  294 1 1 3.7173889219734214e+01 7.1776070137798680e+00 5.5069305874264050e+00 0 0 0
  295 1 1 3.7889842689303862e+01 6.7963314142245155e+00 6.0348343722274436e+00 0 0 0
  296 1 1 3.8107777917572612e+01 6.6412402197568037e+00 5.1165213190320848e+00 0 0 0
  297 1 1 3.8923457228020972e+01 6.8859983194513141e+00 5.6570733364849755e+00 0 0 0
  298 1 4 3.8674411125362511e+01 7.5788704580752251e+00 5.1379469064829602e+00 0 0 0
  299 1 1 3.9147560058685720e+01 7.0361974045444580e+00 4.5349343313254167e+00 0 0 0
  300 1 1 3.8396386428230997e+01 7.5267838578543129e+00 4.0249047820612756e+00 0 0 0
  301 1 1 3.8314845411130591e+01 6.5703995089856724e+00 3.9472660719489263e+00 0 0 0
  302 1 1 3.8131225902442651e+01 7.0991664475226246e+00 3.1480395140357298e+00 0 0 0
  303 1 1 3.7345887390330468e+01 6.7785357922460641e+00 3.4745203964970011e+00 0 0 0
  304 1 1 3.7551821074405048e+01 6.4018264084057650e+00 2.5833955515767504e+00 0 0 0
  305 1 1 3.6586299770834074e+01 6.1432084945979444e+00 2.7944512005647297e+00 0 0 0
  306 1 1 3.6895622333941674e+01 5.7923153535751730e+00 1.9745228257879961e+00 0 0 0
  307 1 1 3.6225129988658033e+01 5.1959934506618186e+00 2.3223768488043932e+00 0 0 0
  308 1 1 3.5761955396457765e+01 5.9829292911148215e+00 2.1244302586232360e+00 0 0 0
  309 1 1 3.5124918814355183e+01 5.1629468243873831e+00 1.9890999150077113e+00 0 0 0
  310 1 1 3.5345203266530689e+01 5.5737436895517716e+00 1.1940122218459686e+00 0 0 0
  311 1 1 3.5684579467927200e+01 4.6929694497893921e+00 1.1051507792741146e+00 0 0 0
  312 1 1 3.5961878513938878e+01 5.1738774221397312e+00 3.4884044545243331e-01 0 0 0
  313 1 1 3.6188060983924451e+01 4.2742425034547367e+00 1.6496431795952218e-01 0 0 0
  314 1 1 3.6832960102031912e+01 4.8517044819583468e+00 -2.3253032692642808e-01 0 0 0
  315 1 1 3.6208110873114059e+01 4.5671700774682860e+00 -9.1532180017508491e-01 0 0 0
  316 1 1 3.6960570722433857e+01 4.0386782969878370e+00 -1.0253523861147980e+00 0 0 0
  317 1 1 3.6102384884742101e+01 3.5585553537168755e+00 -1.2677904510910523e+00 0 0 0
  318 1 1 3.6937419651998177e+01 3.1026096402554497e+00 -1.6297907131571163e+00 0 0 0
  319 1 1 3.6527310700148099e+01 2.6137930226026747e+00 -8.5624879286263722e-01 0 0 0
  320 1 1 3.6052953627585779e+01 2.5671904255495543e+00 -1.6725160458484765e+00 0 0 0
  321 1 1 3.5502991130880922e+01 2.3039956624913316e+00 -9.4997376183383220e-01 0 0 0
  322 1 1 3.5081228626536294e+01 3.0121626041521354e+00 -1.4546009157132151e+00 0 0 0
  323 1 1 3.4370670591436394e+01 2.5027624660407168e+00 -1.1225287379975659e+00 0 0 0
  324 1 1 3.4223497332390352e+01 3.4006793730284341e+00 -8.3131230368546327e-01 0 0 0
  325 1 2 3.3870125747583188e+01 2.7713758535137187e+00 -1.8870683957224163e-01 0 0 0
  326 1 3 3.4763340384030535e+01 3.0008367153272126e+00 -1.1022396600941446e-03 0 0 0
  327 1 1 3.4369486299892820e+01 2.7878531695781241e+00 8.1595142035838319e-01 0 0 0
  328 1 1 3.4941953021096715e+01 3.5850073114038459e+00 9.2493977355115542e-01 0 0 0
  329 1 1 3.4111234264697892e+01 3.7913842225082135e+00 4.6806194397826834e-01 0 0 0
  330 1 1 3.4422185007393942e+01 4.6325320058032302e+00 6.7506344370231153e-01 0 0 0
  331 1 1 3.3450337000770602e+01 4.6398573089069020e+00 5.6958766946990735e-01 0 0 0
  332 1 1 3.3867246351239103e+01 5.1130239349803235e+00 -1.3699694875420820e-01 0 0 0
  333 1 1 3.2934515532405321e+01 4.8410682968017804e+00 -2.3633361115247786e-01 0 0 0
  334 1 1 3.2908334904679386e+01 5.6458727877041097e+00 3.1616413578510622e-01 0 0 0
  335 1 1 3.2287156404156264e+01 4.9665951487214457e+00 6.7249480702188014e-01 0 0 0
  336 1 1 3.1935876051399664e+01 5.8335465710796761e+00 6.2178608703313543e-01 0 0 0
  337 1 1 3.1588924014227629e+01 5.2993432869377672e+00 -7.5623524366617512e-02 0 0 0
  338 1 1 3.1109807817073218e+01 5.1247287548425344e+00 7.0086043420814148e-01 0 0 0
  339 1 1 3.0893794780688737e+01 6.0149968846379700e+00 5.1679392106292510e-01 0 0 0
  340 1 1 3.0055979848857870e+01 5.5259001144382456e+00 7.9545738385749964e-01 0 0 0
  341 1 1 3.0188460436689279e+01 5.2606818332378111e+00 -1.3670229267832162e-01 0 0 0
  342 1 1 2.9598767524793058e+01 5.9797183704885546e+00 -1.3265670050343062e-01 0 0 0
  343 1 1 2.9344558933380927e+01 5.3815569626071618e+00 -7.8257521933061902e-01 0 0 0
  344 1 1 2.9440354506890341e+01 6.2589440571218571e+00 -1.1846813957536431e+00 0 0 0
  345 1 1 3.0166553202517161e+01 5.7370741411149009e+00 -1.4214905719513042e+00 0 0 0
  346 1 1 2.9537042093967177e+01 5.5821906528676006e+00 -2.0778902956612098e+00 0 0 0