LAMMPS data file via write_data, version 7 Dec 2015, timestep = 20000

10000 atoms
5 atom types
9399 bonds
3 bond types
4998 angles
1 angle types
2 extra bond per atom

-7.5000000000000000e+01 7.5000000000000000e+01 xlo xhi
-7.5000000000000000e+01 7.5000000000000000e+01 ylo yhi
-7.5000000000000000e+01 7.5000000000000000e+01 zlo zhi

Masses

1 1
2 1
3 1
4 1
5 1

Atoms

  1 1 1 2.5168494372682609e+01 -2.5065008278029026e+01 -1.6498610562875557e+00 0 0 0
  2 1 1 2.4301868162299254e+01 -2.5110221953165976e+01 -2.1485856453031316e+00 0 0 0
  3 1 1 2.5008894974515886e+01 -2.4787577939375463e+01 -2.6595601462828764e+00 0 0 0
  4 1 1 2.4438533961628792e+01 -2.5278102741606578e+01 -3.3425463755457336e+00 0 0 0
  5 1 1 2.5400873919213961e+01 -2.5362158323489897e+01 -3.5673140528390808e+00 0 0 0
  6 1 1 2.5003414320459644e+01 -2.6164599684536480e+01 -3.3696015002688182e+00 0 0 0
  7 1 1 2.5558632402798661e+01 -2.6356799252364116e+01 -4.1027000851502384e+00 0 0 0
  8 1 1 2.4699278595889087e+01 -2.6752740466794478e+01 -4.1949735867689144e+00 0 0 0
  9 1 2 2.4976537443036538e+01 -2.6468674880377890e+01 -5.0699790905739404e+00 0 0 0
  10 1 2 2.5202835754866481e+01 -2.7366768754268637e+01 -4.9180531322106749e+00 0 0 0
  11 1 1 2.6060716866273712e+01 -2.6879569078956461e+01 -5.1827602223707983e+00 0 0 0
  12 1 1 2.5530845286932713e+01 -2.7061958294154977e+01 -5.9830027293650474e+00 0 0 0
  13 1 2 2.5821826291162171e+01 -2.6102419314973826e+01 -5.9679788527165236e+00 0 0 0
  14 1 2 2.4970785511223397e+01 -2.6064929918766222e+01 -6.3766218292098804e+00 0 0 0
  15 1 2 2.5084893852864653e+01 -2.5179400429456940e+01 -6.0375374346286410e+00 0 0 0
  16 1 2 2.5193506918985651e+01 -2.5136891345290433e+01 -7.0103835910832428e+00 0 0 0
  17 1 2 2.4692079744420557e+01 -2.4382116682316376e+01 -6.7840882806081382e+00 0 0 0
  18 1 2 2.5613688862784297e+01 -2.4084098690419999e+01 -6.7753785269728635e+00 0 0 0
  19 1 2 2.5011143375892651e+01 -2.3371992882246765e+01 -7.0228362967379860e+00 0 0 0
  20 1 2 2.5840536087548831e+01 -2.3338660497437804e+01 -7.5489821803416959e+00 0 0 0
  21 1 2 2.5418458056425045e+01 -2.2445074281498741e+01 -7.6299202055994746e+00 0 0 0
  22 1 2 2.5091188216477136e+01 -2.3089701697461326e+01 -8.3086786883602688e+00 0 0 0
  23 1 2 2.5128293118110257e+01 -2.2183874612783598e+01 -8.6245244716848788e+00 0 0 0
  24 1 2 2.4444563098723144e+01 -2.2555518185089937e+01 -9.1286463851776354e+00 0 0 0
  25 1 2 2.4691611428264078e+01 -2.1657859892030192e+01 -9.4579495848650499e+00 0 0 0
  26 1 1 2.3740324366920298e+01 -2.1652293438142113e+01 -9.2392731728906661e+00 0 0 0
  27 1 2 2.4152540008791092e+01 -2.1202683341421817e+01 -8.5622383355019611e+00 0 0 0
  28 1 2 2.3347969646687346e+01 -2.0661714281209299e+01 -8.8245294460686807e+00 0 0 0
  29 1 1 2.4209782629083229e+01 -2.0257018351436599e+01 -9.1959702464785806e+00 0 0 0
  30 1 1 2.3591799000494021e+01 -2.0301553618840867e+01 -9.8785788131551158e+00 0 0 0
  31 1 1 2.4188802922853064e+01 -1.9508657629697982e+01 -9.9716677746201299e+00 0 0 0
  32 1 1 2.4524152907935772e+01 -2.0203518202008567e+01 -1.0572017228290514e+01 0 0 0
  33 1 1 2.4970215117251289e+01 -1.9373322262234147e+01 -1.0812776304063142e+01 0 0 0
  34 1 1 2.5590542562679026e+01 -2.0091656648814901e+01 -1.0827252614415286e+01 0 0 0
  35 1 1 2.5678375201365068e+01 -1.9613925947374355e+01 -1.0013928134127760e+01 0 0 0
  36 1 1 2.6028725030558434e+01 -1.9105708975436347e+01 -1.0782553944381659e+01 0 0 0
  37 1 2 2.6630815432173215e+01 -1.8968076347006491e+01 -1.0009653733975746e+01 0 0 0
  38 1 1 2.6939326156489305e+01 -1.8501800002658776e+01 -1.0795285289304326e+01 0 0 0
  39 1 1 2.6572208850183994e+01 -1.7845225062021900e+01 -1.0236954238164824e+01 0 0 0
  40 1 1 2.7343919394799851e+01 -1.7557478536686457e+01 -1.0823402400897848e+01 0 0 0
  41 1 2 2.7672473559123237e+01 -1.7827984678973248e+01 -9.9741522314869187e+00 0 0 0
  42 1 2 2.7965455323315062e+01 -1.6959337221930284e+01 -1.0119858662457622e+01 0 0 0
  43 1 1 2.7436445299964895e+01 -1.6982758943983136e+01 -9.3033266832689243e+00 0 0 0
  44 1 2 2.8071458592660569e+01 -1.6343539620837692e+01 -9.1555459612213816e+00 0 0 0
  45 1 2 2.7361525992109691e+01 -1.5941811296821268e+01 -9.7018028502618545e+00 0 0 0
  46 1 2 2.8113221013970477e+01 -1.5367081152458455e+01 -9.7785020425552087e+00 0 0 0
  47 1 2 2.7796714350185106e+01 -1.5642102530897640e+01 -1.0637650826470214e+01 0 0 0
  48 1 2 2.8590478833750133e+01 -1.5118946649915578e+01 -1.0747639160626472e+01 0 0 0
  49 1 2 2.8830868607011706e+01 -1.6057175009247104e+01 -1.0689388427309479e+01 0 0 0
  50 1 2 2.9109765175130438e+01 -1.5704551155430803e+01 -1.1520273526863738e+01 0 0 0
  51 1 2 2.9930665102808213e+01 -1.6113606134086940e+01 -1.1135794000959011e+01 0 0 0
  52 1 2 3.0226033773145986e+01 -1.5484562033080092e+01 -1.1842067290920255e+01 0 0 0
  53 1 1 3.1035251480693486e+01 -1.5758389843177151e+01 -1.1288205538153981e+01 0 0 0
  54 1 1 3.1311588289939543e+01 -1.5192360738546249e+01 -1.2018039562915806e+01 0 0 0
  55 1 2 3.1964387618016818e+01 -1.5022139167818674e+01 -1.1233002021481401e+01 0 0 0
  56 1 2 3.1393069561775508e+01 -1.4283056849178518e+01 -1.1413701267150289e+01 0 0 0
  57 1 2 3.1412531702551412e+01 -1.4484003738286043e+01 -1.0444247297344186e+01 0 0 0
  58 1 2 3.1088380899284498e+01 -1.3621189857021003e+01 -1.0571701895552049e+01 0 0 0
  59 1 2 3.0958713615362875e+01 -1.3723460708317925e+01 -9.6420262017017837e+00 0 0 0
  60 1 2 3.0732818664863206e+01 -1.2793290787331918e+01 -9.9980031886077363e+00 0 0 0
  61 1 2 3.0170122341844078e+01 -1.3015713622353996e+01 -9.2327203377955502e+00 0 0 0
  62 1 2 2.9693548248237704e+01 -1.2466074757673322e+01 -9.8638135200429726e+00 0 0 0
  63 1 2 2.9458595104814020e+01 -1.2223672699934328e+01 -8.9835991512044409e+00 0 0 0
  64 1 1 2.9470426110068054e+01 -1.1508978291868416e+01 -9.6483000905876803e+00 0 0 0
  65 1 1 3.0123659912922797e+01 -1.1354600896913267e+01 -8.9304737627268782e+00 0 0 0
  66 1 1 2.9531254599969209e+01 -1.0645214211948968e+01 -9.1355162702963479e+00 0 0 0
  67 1 1 2.9212489167692034e+01 -1.1014665522351356e+01 -8.3267868867810808e+00 0 0 0
  68 1 1 2.8767020791594405e+01 -1.0074241459063758e+01 -8.4876051616090962e+00 0 0 0
  69 1 1 2.8915946174451410e+01 -1.0348368604291345e+01 -7.5624629310451361e+00 0 0 0
  70 1 1 2.9272783424331248e+01 -9.4698452504326127e+00 -7.5631167076460937e+00 0 0 0
  71 1 2 2.9350160644195338e+01 -9.9082601472040785e+00 -6.7108848847422031e+00 0 0 0
  72 1 1 2.9960175883880151e+01 -9.2105254735092110e+00 -6.6313320624734446e+00 0 0 0
  73 1 1 2.9081887515033692e+01 -8.9587840106938899e+00 -6.1981339397932391e+00 0 0 0
  74 1 1 2.9354736528754334e+01 -8.2097861225709110e+00 -6.6336351132518310e+00 0 0 0
  75 1 1 2.9923916648857084e+01 -8.4707799235277861e+00 -5.8703114015959610e+00 0 0 0
  76 1 1 2.9364347985264398e+01 -7.6947464304362514e+00 -5.6091789683878703e+00 0 0 0
  77 1 1 3.0083964358790851e+01 -7.3176948865400107e+00 -6.1351855141865039e+00 0 0 0
  78 1 1 2.9532601802954701e+01 -6.5871511541609289e+00 -5.7845454803059351e+00 0 0 0
  79 1 2 3.0190431355377356e+01 -6.6801407018176109e+00 -5.1087446956129066e+00 0 0 0
  80 1 3 2.9435351592898826e+01 -6.3366486242995723e+00 -4.7760406249511123e+00 0 0 0
  81 1 2 3.0009622865176368e+01 -5.8239944991562007e+00 -4.2158372437490268e+00 0 0 0
  82 1 2 3.0104468856288548e+01 -5.4688993816116058e+00 -5.0803776104333807e+00 0 0 0
  83 1 2 2.9534343334201257e+01 -4.8466772937607452e+00 -4.4570231407708585e+00 0 0 0
  84 1 1 2.9512661552311624e+01 -4.4778455634342000e+00 -5.3632166614948655e+00 0 0 0
  85 1 2 2.8954359138690897e+01 -5.2345731744665676e+00 -5.2365099851907519e+00 0 0 0
  86 1 2 2.8442266277108200e+01 -4.4462405871864208e+00 -5.5371376798201295e+00 0 0 0
  87 1 2 2.7905902319608575e+01 -5.0000652099017211e+00 -4.9957435498311682e+00 0 0 0
  88 1 2 2.7604708625295544e+01 -5.0497974356596309e+00 -5.8580773000868316e+00 0 0 0
  89 1 2 2.7468344635601358e+01 -5.9305177464252514e+00 -5.3785545002908135e+00 0 0 0
  90 1 2 2.6689816688297849e+01 -5.4734634343670665e+00 -5.8310923377799710e+00 0 0 0
  91 1 2 2.6946013155827181e+01 -6.2185159967478665e+00 -6.3374763589608225e+00 0 0 0
  92 1 2 2.6580558883642439e+01 -6.4859901985904838e+00 -5.4678380751778253e+00 0 0 0
  93 1 2 2.6105730122117624e+01 -6.9225220731182482e+00 -6.1817063039549023e+00 0 0 0
  94 1 2 2.6154753842253722e+01 -7.5295123210822013e+00 -5.3745252024348638e+00 0 0 0
  95 1 1 2.5291017973288710e+01 -7.0665754796531042e+00 -5.5290047691422499e+00 0 0 0
  96 1 1 2.5725703484354632e+01 -6.9150687389000414e+00 -4.6436667733655987e+00 0 0 0
  97 1 2 2.4831967024460400e+01 -6.3659488997886022e+00 -4.7550807224665670e+00 0 0 0
  98 1 2 2.5548895271918962e+01 -5.7516174288851420e+00 -4.8044038187080158e+00 0 0 0
  99 1 2 2.5135793371402126e+01 -5.7207963677168774e+00 -3.9398482223887261e+00 0 0 0
  100 1 2 2.5547937592444178e+01 -4.8199320873255660e+00 -4.1275501608438701e+00 0 0 0
  101 1 2 2.4644710790552427e+01 -4.8942227382270280e+00 -4.2947383372497692e+00 0 0 0
  102 1 2 2.4717803626220920e+01 -4.3274004801485164e+00 -3.5506072807586899e+00 0 0 0
  103 1 2 2.4205673968157740e+01 -4.9903846780201215e+00 -3.2182941605003652e+00 0 0 0
  104 1 2 2.4636790483741979e+01 -4.5041442589519711e+00 -2.4678854695710002e+00 0 0 0
  105 1 2 2.4952013654834055e+01 -5.4298841785878240e+00 -2.5471785393130211e+00 0 0 0
  106 1 2 2.5662571015127508e+01 -4.8274760588880268e+00 -2.5396476945913786e+00 0 0 0
  107 1 1 2.5722955160333932e+01 -5.2625525030495419e+00 -1.7100527503662872e+00 0 0 0
  108 1 2 2.5668954565689091e+01 -4.2544510831526647e+00 -1.5971357849076813e+00 0 0 0
  109 1 1 2.6425912388821157e+01 -4.5374333001057305e+00 -1.0721002726443187e+00 0 0 0
  110 1 1 2.5686013408922285e+01 -4.1538410365849820e+00 -5.6364713401173039e-01 0 0 0
  111 1 2 2.6482739591639604e+01 -4.1576387593197666e+00 -2.6677500697769030e-03 0 0 0
  112 1 2 2.6395342069381076e+01 -3.2970971387756380e+00 -4.4404519843620566e-01 0 0 0
  113 1 2 2.6015673692974957e+01 -3.2477613261524239e+00 4.4559355223700026e-01 0 0 0
  114 1 2 2.5394239049885769e+01 -2.8671230470918010e+00 -1.3518405577293058e-01 0 0 0
  115 1 2 2.5714704131638317e+01 -2.2026270484924502e+00 4.7349347774371292e-01 0 0 0
  116 1 2 2.5350280891156352e+01 -1.8098055710468226e+00 -3.7606313907636513e-01 0 0 0
  117 1 2 2.6291973944257563e+01 -1.8988979158804595e+00 -4.9976918061124970e-01 0 0 0
  118 1 2 2.6118111670566460e+01 -1.0455680525707278e+00 -1.2636138950972864e-01 0 0 0
  119 1 2 2.6125882541228435e+01 -9.0975835935715044e-01 -1.0681327059375656e+00 0 0 0
  120 1 2 2.6220543748172084e+01 -1.2366279167566907e-01 -5.3631449369775275e-01 0 0 0
  121 1 2 2.6607598180095049e+01 3.4964992033645795e-02 -1.3943140404977084e+00 0 0 0
  122 1 2 2.5778915937436640e+01 4.8753446053396382e-01 -1.3202416617766375e+00 0 0 0
  123 1 2 2.6282810029919176e+01 9.4823046275011658e-01 -1.9778534387843860e+00 0 0 0
  124 1 2 2.5868359836719986e+01 2.0356761987737715e-01 -2.3940395093248359e+00 0 0 0
  125 1 2 2.6805473052468539e+01 -7.7842480118586709e-03 -2.4457897573478591e+00 0 0 0
  126 1 3 2.6372507602576686e+01 -1.5400973246357424e-01 -3.3069934703066419e+00 0 0 0
  127 1 2 2.7336484195739459e+01 -3.8674540407682656e-01 -3.3989801219174685e+00 0 0 0
  128 1 2 2.6904134855530096e+01 -2.7379077860670004e-01 -4.2709019231324641e+00 0 0 0
  129 1 2 2.6966689569816626e+01 -1.1760720471937800e+00 -4.1102397008649270e+00 0 0 0
  130 1 2 2.7337306050203722e+01 -9.2784571919957148e-01 -4.9745438776635282e+00 0 0 0
  131 1 2 2.7962169779445194e+01 -7.6912612238027656e-01 -4.2693908489162951e+00 0 0 0
  132 1 2 2.8239142183849708e+01 -2.8772966820524659e-01 -5.0883732473370911e+00 0 0 0
  133 1 1 2.8957838659026482e+01 -6.2795267476330796e-01 -4.5434543670755447e+00 0 0 0
  134 1 2 2.9359093377955404e+01 -1.4892314643875695e-01 -5.3071534032092700e+00 0 0 0
  135 1 2 2.9942823636722302e+01 -8.9180561264802449e-01 -5.0411300077679337e+00 0 0 0
  136 1 2 3.0448871412886351e+01 -7.4872062027094552e-02 -5.3384993225292288e+00 0 0 0
  137 1 2 3.0637423370276327e+01 -8.2379586674228733e-01 -5.8929090547260863e+00 0 0 0
  138 1 2 3.1408954599103613e+01 -4.8899815375711908e-01 -5.4680120082372730e+00 0 0 0
  139 1 2 3.1229099065814498e+01 1.1446191783939284e-01 -6.1903818735839584e+00 0 0 0
  140 1 2 3.1555194297259632e+01 -7.7616904656059804e-01 -6.5330894904617418e+00 0 0 0
  141 1 2 3.2267122961104199e+01 -6.6213403703003756e-02 -6.6179845836588189e+00 0 0 0
  142 1 2 3.2506907649054796e+01 -5.9982592096051968e-01 -5.8697245007062335e+00 0 0 0
  143 1 2 3.2875589207824660e+01 2.6510593537004790e-01 -5.7458514379288390e+00 0 0 0
  144 1 2 3.3642315812881570e+01 -3.4211035590666622e-01 -5.6663194413251876e+00 0 0 0
  145 1 2 3.3678872025436817e+01 6.5772302549621978e-02 -6.5260314614291230e+00 0 0 0
  146 1 2 3.4210062885882593e+01 -6.7040929375730041e-01 -6.5469284850127485e+00 0 0 0
  147 1 2 3.4590461886501416e+01 -3.1420116165872883e-02 -7.1314427503500673e+00 0 0 0
  148 1 3 3.4991671078110826e+01 -8.6720206994952620e-01 -7.3665901494747468e+00 0 0 0
  149 1 2 3.5583803229011416e+01 -2.6035257190641856e-02 -7.5611952004354448e+00 0 0 0
  150 1 2 3.5905941627483088e+01 -4.9119514954616600e-01 -6.7847754004026530e+00 0 0 0
  151 1 2 3.6478724358327362e+01 1.6098450649181656e-01 -7.2234856717268920e+00 0 0 0
  152 1 2 3.6811686017399545e+01 -7.3064487533283751e-01 -7.3097617191373665e+00 0 0 0
  153 1 2 3.6842515260043136e+01 -4.7252608914188071e-01 -6.3298462651965641e+00 0 0 0
  154 1 2 3.7412004640546400e+01 -1.1843448431860704e+00 -6.3635316727195725e+00 0 0 0
  155 1 2 3.6739454815645502e+01 -1.3360178715990292e+00 -5.7185785246292902e+00 0 0 0
  156 1 2 3.7100518574163715e+01 -2.1541992431273571e+00 -6.0929941479702281e+00 0 0 0
  157 1 2 3.7477981894793231e+01 -1.9873933086790811e+00 -5.2336486776660793e+00 0 0 0
  158 1 2 3.8130105729556306e+01 -1.9003197261526499e+00 -6.0463459509618165e+00 0 0 0
  159 1 2 3.8311653822771390e+01 -1.2392840319723510e+00 -5.2769216509667576e+00 0 0 0
  160 1 2 3.9008331892719667e+01 -1.1841483873996521e+00 -5.8957127419441813e+00 0 0 0
  161 1 2 3.8627446570487464e+01 -2.8407453056515242e-01 -5.8442230377602478e+00 0 0 0
  162 1 2 3.9008356100609937e+01 -4.4993784382557472e-01 -6.7912271292479565e+00 0 0 0
  163 1 2 3.8226871409082051e+01 3.2650907526928036e-02 -6.8322028893806399e+00 0 0 0
  164 1 2 3.8834133205977906e+01 4.5703024016858612e-01 -7.4772454917432247e+00 0 0 0
  165 1 2 3.8512767764787938e+01 -3.2738757686753733e-01 -7.8736506640690722e+00 0 0 0
  166 1 2 3.8041851671357925e+01 4.2200478417037163e-01 -8.3310013957913807e+00 0 0 0
  167 1 2 3.8590631642240943e+01 -5.6713972676158381e-02 -8.9031015383959904e+00 0 0 0
  168 1 2 3.7834717500015010e+01 -5.9832413502100779e-01 -8.5855951133132233e+00 0 0 0
  169 1 2 3.8592596333643996e+01 -1.1852701652050985e+00 -8.9967891646387113e+00 0 0 0
  170 1 2 3.7764762153901856e+01 -1.1003459217641762e+00 -9.5994677528412193e+00 0 0 0
  171 1 2 3.8543071469411196e+01 -9.1306768362901103e-01 -1.0053541847352621e+01 0 0 0
  172 1 2 3.7900048271613251e+01 -1.2505228562352064e+00 -1.0636048015474969e+01 0 0 0
  173 1 2 3.8685032746414201e+01 -1.1967328381706692e+00 -1.1171427194600335e+01 0 0 0
  174 1 2 3.7946211997048103e+01 -1.5695404651156524e+00 -1.1674241068145310e+01 0 0 0
  175 1 2 3.7851529810566355e+01 -5.8742298691950812e-01 -1.1581030510302730e+01 0 0 0
  176 1 2 3.7009792155946833e+01 -1.0228780036929050e+00 -1.1825436464453958e+01 0 0 0
  177 1 2 3.6823116401967532e+01 -2.4407225867807672e-01 -1.1301227273106003e+01 0 0 0
  178 1 3 3.6123460895309044e+01 -5.2778428817409573e-01 -1.1874100826954050e+01 0 0 0
  179 1 2 3.5729915671494261e+01 -4.0329899030353189e-01 -1.1029292488002772e+01 0 0 0
  180 1 2 3.4977456801629401e+01 -2.3727564494546927e-01 -1.1681268284763249e+01 0 0 0
  181 1 2 3.4632626191033964e+01 3.0919196547322496e-02 -1.0818962783981855e+01 0 0 0
  182 1 2 3.3935362937836778e+01 1.8853361947285918e-01 -1.1444515271880737e+01 0 0 0
  183 1 2 3.3845783174976106e+01 7.6057309305844345e-01 -1.0712109020125009e+01 0 0 0
  184 1 2 3.3031028747254915e+01 8.0992327615446924e-01 -1.1278408380411911e+01 0 0 0
  185 1 2 3.3708221048126305e+01 1.2810592390033346e+00 -1.1753903225780340e+01 0 0 0
  186 1 2 3.2885589200946335e+01 1.4537429554172350e+00 -1.2177146260114213e+01 0 0 0
  187 1 2 3.3537525280889213e+01 1.2100366200871315e+00 -1.2824525665943357e+01 0 0 0
  188 1 2 3.2829832740249792e+01 6.0773269469466262e-01 -1.2934882706908359e+01 0 0 0
  189 1 3 3.2939400191159336e+01 1.1885760295631802e+00 -1.3653987946979289e+01 0 0 0
  190 1 2 3.3200578602414666e+01 2.7744228073716909e-01 -1.3931485470307402e+01 0 0 0
  191 1 1 3.2256986308438421e+01 3.6301510587675390e-01 -1.3831508715490411e+01 0 0 0
  192 1 1 3.2569490203843706e+01 7.1045563711865989e-01 -1.4647385677840951e+01 0 0 0
  193 1 1 3.1603066113049945e+01 7.1634097701078558e-01 -1.4648821990287914e+01 0 0 0
  194 1 1 3.2006569182177579e+01 1.5827320558782390e+00 -1.4364862068135722e+01 0 0 0
  195 1 1 3.1148958607052975e+01 1.5399519320522816e+00 -1.3982681742441631e+01 0 0 0
  196 1 1 3.1494767637954542e+01 2.4325770290207251e+00 -1.3832905013036140e+01 0 0 0
  197 1 1 3.0829013029457908e+01 2.4424023119871410e+00 -1.4535428948651004e+01 0 0 0
  198 1 1 3.0608847303517795e+01 3.1630346593050853e+00 -1.3978761231230749e+01 0 0 0
  199 1 1 3.0680616457332352e+01 3.5239769232817406e+00 -1.4898384205014931e+01 0 0 0
  200 1 1 3.0551755347802924e+01 4.2860728554129812e+00 -1.4269711707544383e+01 0 0 0
  201 1 1 2.9783970029973990e+01 4.2059629760273660e+00 -1.4760781076302511e+01 0 0 0
  202 1 1 2.9441951579668110e+01 4.6814038984034898e+00 -1.4048470607223297e+01 0 0 0
  203 1 1 2.8754569473179782e+01 4.2160277519135558e+00 -1.4521042885791257e+01 0 0 0
  204 1 1 2.8796648005765864e+01 5.1358036422800115e+00 -1.4905784749623621e+01 0 0 0
  205 1 1 2.7931041343265431e+01 4.7195764716550679e+00 -1.4939658273883312e+01 0 0 0
  206 1 1 2.8095597947715504e+01 5.1602737359736599e+00 -1.5779608076870790e+01 0 0 0
  207 1 1 2.7224037683937325e+01 4.9307632568259327e+00 -1.5633816242703448e+01 0 0 0
  208 1 1 2.7225136328593369e+01 5.7404410433287261e+00 -1.6085115269001250e+01 0 0 0
  209 1 1 2.6362856640826443e+01 5.3058560244328952e+00 -1.6177128494342416e+01 0 0 0
  210 1 1 2.6436681378626837e+01 5.6242453201921450e+00 -1.5265535790623749e+01 0 0 0
  211 1 1 2.5669551330429556e+01 5.0595270992698156e+00 -1.5430239301889657e+01 0 0 0
  212 1 1 2.6248308261453296e+01 4.7361131681105588e+00 -1.4721181621237459e+01 0 0 0
  213 1 1 2.5383586221938025e+01 4.2016890395704038e+00 -1.4784376129888280e+01 0 0 0
  214 1 1 2.6169406408873414e+01 3.7044478582071401e+00 -1.5123293930560290e+01 0 0 0
  215 1 1 2.5868103693989397e+01 4.1297669191729138e+00 -1.5909238800754132e+01 0 0 0
  216 1 1 2.5384548238596874e+01 3.2683946490730280e+00 -1.5879051246906910e+01 0 0 0
  217 1 1 2.4783248168689859e+01 3.9419154293484446e+00 -1.5487348142697401e+01 0 0 0
  218 1 1 2.4517541759242555e+01 3.1256949902729487e+00 -1.5171133148228311e+01 0 0 0
  219 1 1 2.4249324033301153e+01 3.2819339270929095e+00 -1.6072971170042372e+01 0 0 0
  220 1 1 2.3951796087226057e+01 2.4167480016216056e+00 -1.5766984076477950e+01 0 0 0
  221 1 1 2.3239682242668902e+01 2.8770688172098051e+00 -1.6196363322513985e+01 0 0 0
  222 1 1 2.3070965015453531e+01 1.9440959916421159e+00 -1.6222419219783617e+01 0 0 0
  223 1 1 2.2347243695096459e+01 2.2769671904800854e+00 -1.5703276204866187e+01 0 0 0
  224 1 1 2.2847856912705929e+01 1.5711769053963012e+00 -1.5200525485639915e+01 0 0 0
  225 1 1 2.1890994829558160e+01 1.6194013212338196e+00 -1.4934891118604780e+01 0 0 0
  226 1 1 2.2485049858211209e+01 1.6547736855146704e+00 -1.4137492885915220e+01 0 0 0
  227 1 1 2.2183052368368294e+01 2.4632356459623126e+00 -1.4260858048140360e+01 0 0 0
  228 1 1 2.2027849500762859e+01 2.2814955891249591e+00 -1.3320290875184080e+01 0 0 0
  229 1 1 2.1703849860299552e+01 3.1252917988722171e+00 -1.3566625369149152e+01 0 0 0
  230 1 1 2.2624876205343604e+01 3.1808889234107576e+00 -1.3331365506271188e+01 0 0 0
  231 1 1 2.2316357908507268e+01 4.0986599563528978e+00 -1.3329759268362842e+01 0 0 0
  232 1 1 2.3066611981953990e+01 3.9699532539591540e+00 -1.2709699797025396e+01 0 0 0
  233 1 1 2.2369012645416955e+01 4.5235693012805003e+00 -1.2293375571160380e+01 0 0 0
  234 1 1 2.2452532966805492e+01 3.7380362740572277e+00 -1.1757229826069542e+01 0 0 0
  235 1 1 2.2338896451191985e+01 4.4514359926407749e+00 -1.1187669466667208e+01 0 0 0
  236 1 1 2.3186742108649042e+01 4.6967491290067205e+00 -1.1408857280007359e+01 0 0 0
  237 1 1 2.2750059470703874e+01 5.5815144545774071e+00 -1.1357382006866503e+01 0 0 0
  238 1 1 2.3035953184812136e+01 5.3433773929929433e+00 -1.2279015152094830e+01 0 0 0
  239 1 1 2.2564060176800378e+01 6.1978239250588976e+00 -1.2225443464948732e+01 0 0 0
  240 1 1 2.2536818173313730e+01 5.8939344881638895e+00 -1.3090231383112807e+01 0 0 0
  241 1 1 2.2171257381141640e+01 6.7446592782520005e+00 -1.3183853331405329e+01 0 0 0
  242 1 1 2.1829441157152520e+01 6.3102928592540088e+00 -1.3906748068245424e+01 0 0 0
  243 1 1 2.1117615186171630e+01 6.4353559896880288e+00 -1.3244213265024079e+01 0 0 0
  244 1 1 2.1215665358135023e+01 7.1275488639988387e+00 -1.3891992143141854e+01 0 0 0
  245 1 1 2.0714366531579955e+01 7.4767018643284011e+00 -1.3175822351090686e+01 0 0 0
  246 1 1 2.0183732896118411e+01 7.2715019571897290e+00 -1.4074516843416967e+01 0 0 0
  247 1 1 1.9792351560144599e+01 7.0583495369914813e+00 -1.3232029311875991e+01 0 0 0
  248 1 1 1.9083559681302642e+01 7.2567692020036487e+00 -1.3909728242438328e+01 0 0 0
  249 1 1 1.9113837781120342e+01 6.3006540932589319e+00 -1.3842881460120140e+01 0 0 0
  250 1 1 1.8775054317620135e+01 6.5798225468700693e+00 -1.2992230726725010e+01 0 0 0
  251 1 1 1.8607776119285361e+01 5.6315519625782464e+00 -1.3007584011247252e+01 0 0 0
  252 1 1 1.9347754221757739e+01 5.6956128499414431e+00 -1.2464228224363600e+01 0 0 0
  253 1 1 1.8575681187956558e+01 6.0452923782902745e+00 -1.1970666874754123e+01 0 0 0
  254 1 1 1.8982991817843125e+01 5.4207330735547501e+00 -1.1373839878445439e+01 0 0 0
  255 1 1 1.9612469619767850e+01 6.1208386208904004e+00 -1.1521145836638961e+01 0 0 0
  256 1 1 1.9856507501409848e+01 5.5717286369765686e+00 -1.0745113706317911e+01 0 0 0
  257 1 1 2.0271999918383337e+01 6.4497461494005286e+00 -1.0597422860247592e+01 0 0 0
  258 1 1 1.9918865460450142e+01 6.1785138921046192e+00 -9.7760472058850052e+00 0 0 0
  259 1 1 1.9224649905355264e+01 6.7856769813075433e+00 -1.0292689471281038e+01 0 0 0
  260 1 1 1.8964678342877253e+01 6.6717788107385001e+00 -9.4284433687917009e+00 0 0 0
  261 1 1 1.8817611771608597e+01 7.6377802193486071e+00 -9.5485865449479537e+00 0 0 0
  262 1 1 1.8384792617729460e+01 7.2340346506715933e+00 -8.7376062286374125e+00 0 0 0
  263 1 1 1.7946868305629241e+01 8.0235726786339541e+00 -9.1873236262763029e+00 0 0 0
  264 1 1 1.7868699145379605e+01 7.2491158575286612e+00 -9.7623044477528360e+00 0 0 0
  265 1 1 1.7831018516521809e+01 7.9960792202029598e+00 -1.0388230883771035e+01 0 0 0
  266 1 1 1.6935309930310453e+01 7.7760407784644112e+00 -1.0138184985417652e+01 0 0 0
  267 1 1 1.7160956887663023e+01 7.2667617866770042e+00 -1.0933979408876189e+01 0 0 0
  268 1 1 1.6252092548032525e+01 7.3155449399593522e+00 -1.0755719812837887e+01 0 0 0
  269 1 1 1.6341068471927549e+01 6.6126977406237986e+00 -1.1309084953359548e+01 0 0 0
  270 1 1 1.6318025806366549e+01 6.4403681378946116e+00 -1.0412185895681985e+01 0 0 0
  271 1 1 1.6315035278097092e+01 5.6065837053015422e+00 -1.0828523037998172e+01 0 0 0
  272 1 1 1.5711851130019879e+01 5.6778991931372591e+00 -1.0065137702732978e+01 0 0 0
  273 1 1 1.5291079477837958e+01 6.0989715955105686e+00 -1.0871300886565040e+01 0 0 0
  274 1 1 1.4935870933748902e+01 5.1566921959559906e+00 -1.0663962172542387e+01 0 0 0
  275 1 1 1.4304127512151982e+01 5.7218151321200361e+00 -1.1212917160081330e+01 0 0 0
  276 1 1 1.4113522422384941e+01 4.8123375035128406e+00 -1.1326230789834591e+01 0 0 0
  277 1 1 1.3492487516524815e+01 5.2628796959991240e+00 -1.0648839562245335e+01 0 0 0
  278 1 1 1.3453106446184497e+01 4.2762379163935087e+00 -1.0595256909221527e+01 0 0 0
  279 1 1 1.2789588715875594e+01 4.7235425794772032e+00 -1.0067871727429099e+01 0 0 0
  280 1 1 1.2389986704518771e+01 3.9372344360152343e+00 -1.0436837583300735e+01 0 0 0
  281 1 1 1.1668024887459772e+01 4.5476377918307920e+00 -9.9820243063131784e+00 0 0 0
  282 1 1 1.1833861629627673e+01 3.8431284377402535e+00 -9.4095050543503600e+00 0 0 0
  283 1 1 1.0868503820731497e+01 3.9535302383885838e+00 -9.3816516402616816e+00 0 0 0
  284 1 1 1.1251258499499347e+01 3.7069267502479861e+00 -8.5142784367781132e+00 0 0 0
  285 1 1 1.0297606223878041e+01 3.8595606313204369e+00 -8.4103607502797431e+00 0 0 0
  286 1 1 1.0825328729607865e+01 3.8590004630440453e+00 -7.5904334973924312e+00 0 0 0
  287 1 1 1.0127504331939232e+01 4.4749650732490496e+00 -7.5476598698860480e+00 0 0 0
  288 1 1 1.0528289834407824e+01 4.5460174880675046e+00 -6.6576554745878394e+00 0 0 0
  289 1 1 9.9312138867240431e+00 3.7638905960169815e+00 -6.6563295797942867e+00 0 0 0
  290 1 1 9.6756982098272388e+00 4.2188340286007380e+00 -5.8974207126553511e+00 0 0 0
  291 1 1 9.5539422164359937e+00 4.8148836908570409e+00 -6.6308615105837632e+00 0 0 0
  292 1 1 9.2037861016416667e+00 5.2980494908205937e+00 -5.8809085300844082e+00 0 0 0
  293 1 1 1.0198042523911543e+01 5.5040009318232954e+00 -6.0684638529532418e+00 0 0 0
  294 1 1 9.8394785925634434e+00 6.1200388606113698e+00 -5.5059036923453251e+00 0 0 0
  295 1 1 1.0540290294289843e+01 5.7140281760568650e+00 -5.0473125129264806e+00 0 0 0
  296 1 1 9.8400120982770556e+00 5.0866395522524384e+00 -5.0235239794535529e+00 0 0 0
  297 1 1 1.0460493102786188e+01 4.9219563002340996e+00 -4.3096129759440229e+00 0 0 0
  298 1 4 9.9194079018912262e+00 5.7310426880503993e+00 -4.1237815135400879e+00 0 0 0
  299 1 1 1.0626801121887516e+01 5.5329924998419502e+00 -3.4621042399111639e+00 0 0 0
  300 1 1 9.8097202182204644e+00 5.0982024431787760e+00 -3.2107154779761045e+00 0 0 0
  301 1 1 1.0173897418379745e+01 5.6331071459158917e+00 -2.5063090072196794e+00 0 0 0
  302 1 1 9.6771159783966727e+00 4.9852524270986196e+00 -2.0207521939983568e+00 0 0 0
  303 1 1 1.0078997919293162e+01 5.6638856567585174e+00 -1.4160360654318747e+00 0 0 0
  304 1 1 9.5409192384540731e+00 5.0010291563380456e+00 -9.7734240373624148e-01 0 0 0
  305 1 1 9.8358204790151991e+00 5.5725013119608287e+00 -2.5844270029180388e-01 0 0 0
  306 1 1 1.0387896620479079e+01 4.7600677067842563e+00 -3.0195030808781848e-01 0 0 0
  307 1 1 1.0944790880952800e+01 5.3191391765971696e+00 1.8657771897016456e-01 0 0 0
  308 1 1 1.1526291844170641e+01 4.8169402402980852e+00 -4.3506857077305011e-01 0 0 0
  309 1 1 1.1584421175391549e+01 4.3413139491446389e+00 4.4197470459588800e-01 0 0 0
  310 1 1 1.2377374599170265e+01 4.9066076174288549e+00 3.8271313747978614e-01 0 0 0
  311 1 1 1.2735809562330665e+01 4.0394295639680458e+00 5.4234338227141854e-01 0 0 0
  312 1 1 1.3056545752525338e+01 4.6578607535487366e+00 1.1323208779572473e+00 0 0 0
  313 1 1 1.3575288455463463e+01 4.5839789075004642e+00 3.2716226882653210e-01 0 0 0
  314 1 1 1.4240750943084844e+01 4.8301970618757180e+00 1.0627326431201669e+00 0 0 0
  315 1 1 1.3698360800378435e+01 5.6152787745716397e+00 7.5778570632913733e-01 0 0 0
  316 1 1 1.4257531819388150e+01 5.9483922223277697e+00 1.5092052416309500e+00 0 0 0
  317 1 1 1.3299857404234990e+01 5.7372153067255347e+00 1.6852624677183090e+00 0 0 0
  318 1 1 1.3427519804816383e+01 6.6618470534349088e+00 1.6007656546832207e+00 0 0 0
  319 1 1 1.3364174839100659e+01 6.4701767369527188e+00 2.5322850805527044e+00 0 0 0
  320 1 1 1.3493059776409682e+01 7.3790115279665072e+00 2.4057027715865620e+00 0 0 0
  321 1 1 1.2862961085013396e+01 7.3602176204203618e+00 3.1281342494571778e+00 0 0 0
  322 1 1 1.2436167763475350e+01 7.2468345989950240e+00 2.2250158462252285e+00 0 0 0
  323 1 1 1.1872053695597661e+01 7.8700942856587952e+00 2.7572894074255694e+00 0 0 0
  324 1 1 1.1454956243780082e+01 6.9752171614962863e+00 2.6180850881815174e+00 0 0 0
  325 1 2 1.1089745974172381e+01 7.5870887594459857e+00 2.0341656576648135e+00 0 0 0
  326 1 3 1.0584921593459695e+01 7.6270852604760355e+00 2.8261937318366517e+00 0 0 0
  327 1 1 1.0072789832580881e+01 7.3231624374032158e+00 2.0350310788755319e+00 0 0 0
  328 1 1 9.5584276233889174e+00 7.2375265970197677e+00 2.8992949420087148e+00 0 0 0
  329 1 1 8.9174658688014201e+00 7.5630484966976939e+00 2.2775958107440291e+00 0 0 0
  330 1 1 9.1124105129939963e+00 8.2423004403465470e+00 2.8847638333028933e+00 0 0 0
  331 1 1 8.6089671896487978e+00 8.7188941642060964e+00 2.2746758737525634e+00 0 0 0
  332 1 1 8.8602179441799791e+00 9.3283479400896052e+00 3.0989968018505123e+00 0 0 0
  333 1 1 8.2765712247416428e+00 8.5460290245633708e+00 3.3763539259838797e+00 0 0 0
  334 1 1 7.8323864230294511e+00 9.4508291316443334e+00 3.4986597389562313e+00 0 0 0
  335 1 1 7.5779158307137662e+00 9.0037289109075527e+00 2.6325803209160314e+00 0 0 0
  336 1 1 6.9927086355769665e+00 9.7477795693855231e+00 2.9341520236285996e+00 0 0 0
  337 1 1 7.7850088082214732e+00 1.0160444951706127e+01 2.6962507875560129e+00 0 0 0
  338 1 1 7.0729219151145353e+00 1.0739170137761022e+01 3.0165223208931851e+00 0 0 0
  339 1 1 7.7913723127446914e+00 1.0768486738061005e+01 3.5559178409718162e+00 0 0 0
  340 1 1 7.1242218794373970e+00 1.1440409981695979e+01 3.8352115577157395e+00 0 0 0
  341 1 1 6.8257706660834225e+00 1.0658143483987864e+01 4.2013579149621618e+00 0 0 0
  342 1 1 6.5966207481801487e+00 1.1362260814442914e+01 4.8240296571173937e+00 0 0 0
  343 1 1 5.8694459538436297e+00 1.1184279774593172e+01 4.1931717033817142e+00 0 0 0
  344 1 1 5.7503271076430007e+00 1.0566693476252631e+01 5.0121634352194038e+00 0 0 0