LAMMPS data file via write_data, version 7 Dec 2015, timestep = 20000

10000 atoms
5 atom types
9399 bonds
3 bond types
4998 angles
1 angle types
2 extra bond per atom

-7.5000000000000000e+01 7.5000000000000000e+01 xlo xhi
-7.5000000000000000e+01 7.5000000000000000e+01 ylo yhi
-7.5000000000000000e+01 7.5000000000000000e+01 zlo zhi

Masses

1 1
2 1
3 1
4 1
5 1

Atoms

  1 1 1 2.0304384041922567e+01 1.2481498397507488e+01 2.1197444953835944e+01 0 0 0
  2 1 1 1.9450970623252712e+01 1.2458999152226983e+01 2.1705941047005304e+01 0 0 0
  3 1 1 2.0231579210614029e+01 1.2564331282233063e+01 2.2301361959561863e+01 0 0 0
  4 1 1 1.9372994793189896e+01 1.2476073964868505e+01 2.2864132966910979e+01 0 0 0
  5 1 1 2.0110305029805787e+01 1.2824469955057349e+01 2.3393544991240390e+01 0 0 0
  6 1 1 1.9837003043890153e+01 1.3515404395487487e+01 2.2821703123785422e+01 0 0 0
  7 1 1 2.0186319948768702e+01 1.3950275789887666e+01 2.3691710374061980e+01 0 0 0
  8 1 1 2.0308426196641637e+01 1.4460641729572380e+01 2.2859931482605436e+01 0 0 0
  9 1 2 2.0393405318789760e+01 1.5141840383799900e+01 2.3655343491520188e+01 0 0 0
  10 1 2 1.9816800126613931e+01 1.5474642454415273e+01 2.3010587828141723e+01 0 0 0
  11 1 1 2.0743279280575379e+01 1.5546212342817348e+01 2.2789269111536989e+01 0 0 0
  12 1 1 2.0327252087539318e+01 1.6356130055725270e+01 2.2878673350015493e+01 0 0 0
  13 1 2 2.1018852193320633e+01 1.6273739658560356e+01 2.3484469374885851e+01 0 0 0
  14 1 2 2.0748689804329889e+01 1.7138771369517237e+01 2.3499175931573973e+01 0 0 0
  15 1 2 2.0312854117256649e+01 1.6748757144561143e+01 2.4239653496861617e+01 0 0 0
  16 1 2 2.0423475018200939e+01 1.7706341224026534e+01 2.4369007182322044e+01 0 0 0
  17 1 2 2.1170548597871178e+01 1.7163142677776573e+01 2.4808190413761043e+01 0 0 0
  18 1 2 2.0394006390919397e+01 1.7266987013951702e+01 2.5440282405943812e+01 0 0 0
  19 1 2 2.1243597532543355e+01 1.7119468660887094e+01 2.5896674287984272e+01 0 0 0
  20 1 2 2.0778797729903282e+01 1.6255321574160178e+01 2.5716388934425559e+01 0 0 0
  21 1 2 2.1755370124738608e+01 1.6120584026012278e+01 2.5666434828489106e+01 0 0 0
  22 1 2 2.1232973620176136e+01 1.5544723767036800e+01 2.5020105537438372e+01 0 0 0
  23 1 2 2.1800723092699631e+01 1.4982602537259353e+01 2.5700944491948853e+01 0 0 0
  24 1 2 2.0875576392254661e+01 1.4938334400818885e+01 2.5903020483660217e+01 0 0 0
  25 1 2 2.1353913969038530e+01 1.4634652831888801e+01 2.6648824131158271e+01 0 0 0
  26 1 1 2.0345096316034091e+01 1.4395860908274974e+01 2.6707664844799005e+01 0 0 0
  27 1 2 2.0595505645667888e+01 1.4985221686919196e+01 2.7400434182938231e+01 0 0 0
  28 1 2 2.0076675194905594e+01 1.4294595360067088e+01 2.7802866238810758e+01 0 0 0
  29 1 1 1.9461614733335203e+01 1.4883485861568460e+01 2.7414326091094964e+01 0 0 0
  30 1 1 1.9173504624955939e+01 1.4602666206615362e+01 2.8301644754893882e+01 0 0 0
  31 1 1 1.8670600032813134e+01 1.5356752688349518e+01 2.7984635884380818e+01 0 0 0
  32 1 1 1.8520513974286210e+01 1.5220099077837100e+01 2.8939255665894535e+01 0 0 0
  33 1 1 1.7689380105194275e+01 1.5229370972921279e+01 2.8399000801970544e+01 0 0 0
  34 1 1 1.7660498207924363e+01 1.4567499697085012e+01 2.9097860857100621e+01 0 0 0
  35 1 1 1.7132189509414946e+01 1.5305273018255770e+01 2.9424125232930177e+01 0 0 0
  36 1 1 1.6680050263048749e+01 1.4471531158519873e+01 2.9562397383377473e+01 0 0 0
  37 1 2 1.6188091244384115e+01 1.4962530925286387e+01 2.8905217546849855e+01 0 0 0
  38 1 1 1.5695368026640788e+01 1.4158574718263976e+01 2.9144777184063361e+01 0 0 0
  39 1 1 1.5232228158625196e+01 1.4693159753633742e+01 2.8522797191747124e+01 0 0 0
  40 1 1 1.4934289650205056e+01 1.3817159148022171e+01 2.8484259413741913e+01 0 0 0
  41 1 2 1.5230759127655542e+01 1.4067560896336209e+01 2.7627645303332130e+01 0 0 0
  42 1 2 1.5013733689680294e+01 1.3165831642827028e+01 2.7568776213836927e+01 0 0 0
  43 1 1 1.5406523006938651e+01 1.3341670321641271e+01 2.6701340243984411e+01 0 0 0
  44 1 2 1.5098698802212203e+01 1.2437217619853438e+01 2.6636316122791669e+01 0 0 0
  45 1 2 1.4771705682729300e+01 1.2824593941407930e+01 2.5799689841327314e+01 0 0 0
  46 1 2 1.5128211730473767e+01 1.1971333933142873e+01 2.5574446848685021e+01 0 0 0
  47 1 2 1.4604747671950864e+01 1.2304863623397797e+01 2.4876983733490317e+01 0 0 0
  48 1 2 1.5551408100593074e+01 1.2301609772347009e+01 2.4639747028610532e+01 0 0 0
  49 1 2 1.4977291617841308e+01 1.2705153932478462e+01 2.4017150096515273e+01 0 0 0
  50 1 2 1.5825455234927530e+01 1.2544287587832498e+01 2.3478643954823962e+01 0 0 0
  51 1 2 1.5209549609096092e+01 1.1768880066858779e+01 2.3319902401061093e+01 0 0 0
  52 1 2 1.5338814569634410e+01 1.2338135632790056e+01 2.2573854036975874e+01 0 0 0
  53 1 1 1.4607936193215863e+01 1.2666510711987589e+01 2.3066811136746754e+01 0 0 0
  54 1 1 1.4703280070116376e+01 1.3203278626093896e+01 2.2246705786802956e+01 0 0 0
  55 1 2 1.3804082539172134e+01 1.2802625599829943e+01 2.2303096102689832e+01 0 0 0
  56 1 2 1.3767683317332351e+01 1.2976165502421745e+01 2.1384511596325353e+01 0 0 0
  57 1 2 1.3869006345043310e+01 1.2029183220687992e+01 2.1483882635285966e+01 0 0 0
  58 1 2 1.2968976336828437e+01 1.2287413088571469e+01 2.1538743486366162e+01 0 0 0
  59 1 2 1.3018076099191150e+01 1.1555752895066281e+01 2.2019346531665057e+01 0 0 0
  60 1 2 1.2093906831370054e+01 1.1519921806307330e+01 2.1647600369237395e+01 0 0 0
  61 1 2 1.2510684070605437e+01 1.0686009542463516e+01 2.1774190690639625e+01 0 0 0
  62 1 2 1.1573087720712444e+01 1.0530980529387532e+01 2.1715507413996953e+01 0 0 0
  63 1 2 1.2026755713563912e+01 1.0173773717104959e+01 2.0904083795233344e+01 0 0 0
  64 1 1 1.1365485955319372e+01 9.5332719755004813e+00 2.1277041271663723e+01 0 0 0
  65 1 1 1.2248511709202958e+01 9.2375083022354509e+00 2.1446395716809498e+01 0 0 0
  66 1 1 1.1768971621341437e+01 8.5361526585078398e+00 2.1834541509274882e+01 0 0 0
  67 1 1 1.2264844858948829e+01 8.0432109378862897e+00 2.1230124475104653e+01 0 0 0
  68 1 1 1.1758654075984476e+01 8.6321909212453090e+00 2.0686378530389163e+01 0 0 0
  69 1 1 1.2125984886525096e+01 7.9220606871403465e+00 2.0152535915098586e+01 0 0 0
  70 1 1 1.2905577751957846e+01 8.3163083746904345e+00 2.0510569119218182e+01 0 0 0
  71 1 2 1.3071585834844438e+01 7.4145740551711334e+00 2.0624726378771246e+01 0 0 0
  72 1 1 1.3915130149941820e+01 7.8193162226232671e+00 2.0643575024717741e+01 0 0 0
  73 1 1 1.3932618487407609e+01 7.1706861903135977e+00 2.0008282389776063e+01 0 0 0
  74 1 1 1.4494389994664092e+01 6.7974412365412151e+00 2.0697658074889141e+01 0 0 0
  75 1 1 1.4558867001182120e+01 6.3618019988942018e+00 1.9834239752115266e+01 0 0 0
  76 1 1 1.5389678265975011e+01 6.3601715616333792e+00 2.0252326809102509e+01 0 0 0
  77 1 1 1.5548284281040447e+01 6.6129083809472817e+00 1.9375938709818488e+01 0 0 0
  78 1 1 1.5641368676885584e+01 5.6979419758860610e+00 1.9517139448003974e+01 0 0 0
  79 1 2 1.6374812556926141e+01 6.2913104149780210e+00 1.9920810903475395e+01 0 0 0
  80 1 3 1.6631059712506861e+01 5.5658119710335674e+00 1.9359703848918581e+01 0 0 0
  81 1 2 1.6681997021942660e+01 6.3823406989229667e+00 1.8765411512652459e+01 0 0 0
  82 1 2 1.7106318138662427e+01 5.6042127244617781e+00 1.8365924914387737e+01 0 0 0
  83 1 2 1.7514349768618228e+01 6.4129435782850468e+00 1.8089161789463130e+01 0 0 0
  84 1 1 1.8109427138161220e+01 5.6919354070757278e+00 1.7847874820951684e+01 0 0 0
  85 1 2 1.8377639749746947e+01 6.5102412043855411e+00 1.7547988788260806e+01 0 0 0
  86 1 2 1.9109977038846178e+01 5.9249782334019114e+00 1.7650725487559011e+01 0 0 0
  87 1 2 1.9146127247997239e+01 6.4636253704485114e+00 1.6791518796246844e+01 0 0 0
  88 1 2 1.9954361945365982e+01 5.9922373555735060e+00 1.6923924301129954e+01 0 0 0
  89 1 2 1.9835919066708882e+01 6.0213634034785324e+00 1.5966821992843684e+01 0 0 0
  90 1 2 2.0380369697938487e+01 5.2775591095227679e+00 1.6221187944101395e+01 0 0 0
  91 1 2 2.0069729963737849e+01 5.1700753474956116e+00 1.5327019417475167e+01 0 0 0
  92 1 2 1.9537639996040159e+01 4.6632731855204854e+00 1.5958353856337208e+01 0 0 0
  93 1 2 1.9105534958161936e+01 4.6757676498991554e+00 1.5013599595890092e+01 0 0 0
  94 1 2 1.8392563314271253e+01 4.8200145981233060e+00 1.5654862496019435e+01 0 0 0
  95 1 1 1.7961730537166186e+01 4.5899699163582852e+00 1.4794054206829161e+01 0 0 0
  96 1 1 1.8417985209810890e+01 3.8415764236823526e+00 1.5157174597962102e+01 0 0 0
  97 1 2 1.7515111467670110e+01 3.6550051430824024e+00 1.5233277925731910e+01 0 0 0
  98 1 2 1.7950333577095389e+01 2.8010083356517996e+00 1.5203166806148257e+01 0 0 0
  99 1 2 1.7835759248417659e+01 3.2366504276912327e+00 1.4332411923424100e+01 0 0 0
  100 1 2 1.7115055479160734e+01 2.5868520644654480e+00 1.4415450206772000e+01 0 0 0
  101 1 2 1.6814917634951527e+01 3.2059676277124711e+00 1.3773571705527436e+01 0 0 0
  102 1 2 1.6199174284063279e+01 2.4665567398731310e+00 1.3764454483304615e+01 0 0 0
  103 1 2 1.6705647800477326e+01 2.5845527820738972e+00 1.2935774818016382e+01 0 0 0
  104 1 2 1.7014037495385878e+01 1.7951339680750258e+00 1.3346803412657609e+01 0 0 0
  105 1 2 1.6890475287490258e+01 1.7105120733976646e+00 1.2347060813959397e+01 0 0 0
  106 1 2 1.7802745247777583e+01 1.5100005505203418e+00 1.2686362474148604e+01 0 0 0
  107 1 1 1.7710330194709918e+01 1.3681248732224500e+00 1.1744502343251412e+01 0 0 0
  108 1 2 1.8155397474142795e+01 2.1658737158255517e+00 1.1904646020764160e+01 0 0 0
  109 1 1 1.8821443847288108e+01 1.5964361407154994e+00 1.1597251216341260e+01 0 0 0
  110 1 1 1.8552100075335844e+01 2.1952001389121567e+00 1.0855106288758916e+01 0 0 0
  111 1 2 1.8128181508656564e+01 1.3688236160951073e+00 1.0770373989183375e+01 0 0 0
  112 1 2 1.7581426809676529e+01 2.0641248616500953e+00 1.0369651241462375e+01 0 0 0
  113 1 2 1.7714115860079296e+01 1.3649976004245572e+00 9.7314731185801833e+00 0 0 0
  114 1 2 1.6795681134247861e+01 1.1709045514695688e+00 1.0026290284912168e+01 0 0 0
  115 1 2 1.6915602325765885e+01 1.4133385923110688e+00 9.0714450646914990e+00 0 0 0
  116 1 2 1.6261117041294341e+01 2.0155098172311252e+00 9.4324006577024164e+00 0 0 0
  117 1 2 1.6416937520449341e+01 2.0910927288097705e+00 8.5038726510003269e+00 0 0 0
  118 1 2 1.7054644234418589e+01 2.6473177337549494e+00 8.8709374211032355e+00 0 0 0
  119 1 2 1.6366515555073711e+01 3.1697816099074427e+00 8.3716513773357395e+00 0 0 0
  120 1 2 1.7061098493557139e+01 2.8730100792490081e+00 7.7786817647449160e+00 0 0 0
  121 1 2 1.6773272443304894e+01 3.7445238343432234e+00 7.5477901460466388e+00 0 0 0
  122 1 2 1.7546147309051669e+01 3.5351082067025343e+00 6.9718211740476663e+00 0 0 0
  123 1 2 1.7565476691632419e+01 4.4891235221854542e+00 7.3843310836869245e+00 0 0 0
  124 1 2 1.7429844059919240e+01 4.5717160734842670e+00 6.4779885325405342e+00 0 0 0
  125 1 2 1.6789324779602204e+01 5.1280540616249564e+00 6.8885193651878573e+00 0 0 0
  126 1 3 1.7599836709135978e+01 5.6405105362012042e+00 6.8350001922569064e+00 0 0 0
  127 1 2 1.7047042292743086e+01 5.7462574592855757e+00 6.0627267781112293e+00 0 0 0
  128 1 2 1.7881047680049065e+01 6.1529759286821015e+00 5.8829735070670610e+00 0 0 0
  129 1 2 1.7666760146585439e+01 5.5341469808974244e+00 5.2068216007182642e+00 0 0 0
  130 1 2 1.8127672646128907e+01 6.2595520888471068e+00 4.7678524712015964e+00 0 0 0
  131 1 2 1.7199249652687506e+01 6.5181428961705343e+00 4.8835970226295959e+00 0 0 0
  132 1 2 1.7168361569601831e+01 6.1230574216553011e+00 4.0636234462873748e+00 0 0 0
  133 1 1 1.6320257246327419e+01 6.4740788521918100e+00 4.0197763283913392e+00 0 0 0
  134 1 2 1.6570155649868084e+01 6.1450068361287506e+00 3.1795499942981147e+00 0 0 0
  135 1 2 1.5637858900133597e+01 6.0387338250744280e+00 3.2941717477412942e+00 0 0 0
  136 1 2 1.5919273098166899e+01 6.5351959605251109e+00 2.4106754238058348e+00 0 0 0
  137 1 2 1.5749893396157908e+01 5.6184041264205966e+00 2.2705789397039933e+00 0 0 0
  138 1 2 1.4944678243060034e+01 6.0999680617332670e+00 1.9566717414194812e+00 0 0 0
  139 1 2 1.5177879561082911e+01 5.3973099094384214e+00 1.3657687856015341e+00 0 0 0
  140 1 2 1.4276629660291452e+01 5.6232193336172971e+00 1.1213068916261100e+00 0 0 0
  141 1 2 1.4478032150442882e+01 4.7019443044316303e+00 8.8006766173301831e-01 0 0 0
  142 1 2 1.3489637270782653e+01 4.8019359773628807e+00 8.4126073832706827e-01 0 0 0
  143 1 2 1.3761217558858421e+01 5.3308433630419314e+00 1.5389947758221306e-01 0 0 0
  144 1 2 1.3069174748103350e+01 4.7015145814970607e+00 -1.2601930382870663e-01 0 0 0
  145 1 2 1.2895876347195372e+01 5.5645111633379951e+00 -5.8154107265964328e-01 0 0 0
  146 1 2 1.2541362062401406e+01 4.8561731485593471e+00 -1.0742693286358298e+00 0 0 0
  147 1 2 1.1812055468539885e+01 5.3664971273884836e+00 -9.9982577561110142e-01 0 0 0
  148 1 3 1.2369670768538052e+01 5.7007062640311075e+00 -1.7008607638700193e+00 0 0 0
  149 1 2 1.2055538028457615e+01 6.5012124551903669e+00 -1.1353968258910354e+00 0 0 0
  150 1 2 1.2120453078408971e+01 6.6968982016712193e+00 -2.1425519608309505e+00 0 0 0
  151 1 2 1.1637819682607384e+01 7.4090332828821648e+00 -1.6789311085101331e+00 0 0 0
  152 1 2 1.1056992549046710e+01 7.0269785191150032e+00 -2.3791815085765218e+00 0 0 0
  153 1 2 1.0588531605579199e+01 7.3581608994108691e+00 -1.6054947791482412e+00 0 0 0
  154 1 2 9.9758290213566063e+00 6.9602866083733863e+00 -2.3202964992692752e+00 0 0 0
  155 1 2 9.5591283372642373e+00 6.9157154726523675e+00 -1.4401750285594701e+00 0 0 0
  156 1 2 8.8916233788214480e+00 7.2281993419246904e+00 -1.9811198709326066e+00 0 0 0
  157 1 2 8.4650459197836039e+00 6.9722237767418891e+00 -1.1409295189084609e+00 0 0 0
  158 1 2 7.8990552929155777e+00 6.7436592108651272e+00 -1.8641927992485230e+00 0 0 0
  159 1 2 7.7132626387382386e+00 6.1291808059460173e+00 -1.1517789675749299e+00 0 0 0
  160 1 2 6.8998109558464762e+00 6.5913847579414062e+00 -1.3468595778235197e+00 0 0 0
  161 1 2 6.7509372582868679e+00 6.0771238259882301e+00 -5.9952545032358728e-01 0 0 0
  162 1 2 6.0276844644716565e+00 6.7113575528435980e+00 -6.7252861050099777e-01 0 0 0
  163 1 2 5.6180102668914786e+00 6.0580157252165687e+00 -2.2190554358711487e-01 0 0 0
  164 1 2 5.5665955523843440e+00 6.8968063982502796e+00 2.6178211300301174e-01 0 0 0
  165 1 2 4.7077283805224299e+00 6.4942355725774865e+00 2.4384214249031916e-01 0 0 0
  166 1 2 5.0895221630436769e+00 6.4157291902009996e+00 1.0873046960781640e+00 0 0 0
  167 1 2 4.0830951877565749e+00 6.3884253716852992e+00 1.1933721179785484e+00 0 0 0
  168 1 2 4.3216372456754168e+00 5.5166994910794447e+00 1.4685153424548270e+00 0 0 0
  169 1 2 3.9911488005782059e+00 5.4348533736239828e+00 5.3022287823083314e-01 0 0 0
  170 1 2 3.5586999625004663e+00 4.7599819271401724e+00 1.1078545968469657e+00 0 0 0
  171 1 2 2.8392215675499708e+00 5.1203943484462746e+00 6.0065751789757893e-01 0 0 0
  172 1 2 3.1625236226578908e+00 4.3749166037048388e+00 1.7285795798017015e-01 0 0 0
  173 1 2 2.1912206858816812e+00 4.2407629652576091e+00 2.4627362368149538e-01 0 0 0
  174 1 2 2.6370439115251334e+00 4.0722825601417965e+00 1.1141374419015142e+00 0 0 0
  175 1 2 1.6910776453662706e+00 3.9195940432020988e+00 1.1611936974590498e+00 0 0 0
  176 1 2 2.0908010954941121e+00 3.0690248481527140e+00 1.3982312133345638e+00 0 0 0
  177 1 2 1.1700505893477200e+00 3.1374366431285878e+00 1.7537888704378366e+00 0 0 0
  178 1 3 1.2162857286125182e+00 2.4672828687446620e+00 1.0427153808616154e+00 0 0 0
  179 1 2 7.3370058364891921e-01 2.1049125625287211e+00 1.7875736043821244e+00 0 0 0
  180 1 2 6.3997392175489914e-02 2.3505359486578765e+00 1.1285384077895673e+00 0 0 0
  181 1 2 -1.3074669766031735e-01 1.4219328817400985e+00 1.3050865967850920e+00 0 0 0
  182 1 2 -6.7909999451516090e-01 1.6605257741109085e+00 5.3906380938340070e-01 0 0 0
  183 1 2 -1.1223296123034097e+00 1.0113728406837521e+00 1.1326967284221945e+00 0 0 0
  184 1 2 -1.4252226676165947e+00 8.6010763285955405e-01 1.9560696385655349e-01 0 0 0
  185 1 2 -1.3037112830617406e+00 1.3903566682666678e-02 6.5496428576581789e-01 0 0 0
  186 1 2 -1.2081786142423485e+00 -1.6334297834183287e-01 -2.4671824551928845e-01 0 0 0
  187 1 2 -1.9017621725373273e+00 -6.6444511765764103e-01 6.5448448638785600e-02 0 0 0
  188 1 2 -1.0865506577277098e+00 -9.7243069581671848e-01 3.6015837727375843e-01 0 0 0
  189 1 3 -1.8037424735234810e+00 -1.5856326752134231e+00 5.8875236352322269e-01 0 0 0
  190 1 2 -1.6366800207303207e+00 -1.1132538358245374e+00 1.3752971781377108e+00 0 0 0
  191 1 1 -2.5431495996742028e+00 -1.4328157102132784e+00 1.4764104478865869e+00 0 0 0
  192 1 1 -2.1369654522757986e+00 -1.1728937494549641e+00 2.3786087289952063e+00 0 0 0
  193 1 1 -3.0435493055495915e+00 -1.5133159228329767e+00 2.5285352658707096e+00 0 0 0
  194 1 1 -2.5071921161357418e+00 -1.8867678694052687e+00 3.2604435564175396e+00 0 0 0
  195 1 1 -2.6406452000618748e+00 -2.5146195947532983e+00 2.5442309132678460e+00 0 0 0
  196 1 1 -2.7818882786979375e+00 -2.9013049965049760e+00 3.4173045090496226e+00 0 0 0
  197 1 1 -3.5225951672336189e+00 -3.0861522743949332e+00 2.8435234748742180e+00 0 0 0
  198 1 1 -2.7656791080972112e+00 -3.6918737411119502e+00 2.7370994951760794e+00 0 0 0
  199 1 1 -3.3761956896274321e+00 -4.0881357658208657e+00 3.3930643780547913e+00 0 0 0
  200 1 1 -2.4616187899192874e+00 -4.1034110892637150e+00 3.7191934483090976e+00 0 0 0
  201 1 1 -3.1067194320834912e+00 -4.5898179534610390e+00 4.2250202903147054e+00 0 0 0
  202 1 1 -3.0036219883883208e+00 -3.6722329375151244e+00 4.5230246745230502e+00 0 0 0
  203 1 1 -3.8020783132689515e+00 -4.0955325321701057e+00 4.8768803794957520e+00 0 0 0
  204 1 1 -3.1167150338632883e+00 -4.2812560368256039e+00 5.5352702971750203e+00 0 0 0
  205 1 1 -3.7858732532348145e+00 -4.9496353714733958e+00 5.6140385415469147e+00 0 0 0
  206 1 1 -3.3138838990733421e+00 -4.7781017739094729e+00 6.4609774728307681e+00 0 0 0
  207 1 1 -4.1640205244561015e+00 -5.2395421572402379e+00 6.5457736405167593e+00 0 0 0
  208 1 1 -4.4045494576634416e+00 -4.3672870036072595e+00 6.4460075964546739e+00 0 0 0
  209 1 1 -4.5376425156976534e+00 -4.4945572741553050e+00 7.3825327075445166e+00 0 0 0
  210 1 1 -5.3390754065389929e+00 -4.5322901334775514e+00 6.7413661219753713e+00 0 0 0
  211 1 1 -5.5423513492985732e+00 -4.5854480809550413e+00 7.7367337724984200e+00 0 0 0
  212 1 1 -6.3278262045961400e+00 -4.5253420618577112e+00 7.1702288106928505e+00 0 0 0
  213 1 1 -6.1848064306985453e+00 -3.6583447909408342e+00 7.5974606796771758e+00 0 0 0
  214 1 1 -6.5397171353181109e+00 -4.3293216972865460e+00 8.1530053363771042e+00 0 0 0
  215 1 1 -7.2795828541347261e+00 -4.0959547797351208e+00 7.5754074251994901e+00 0 0 0
  216 1 1 -7.5316742901171310e+00 -4.4716824338130881e+00 8.4226450514406892e+00 0 0 0
  217 1 1 -8.3005151449254679e+00 -4.1637437520703848e+00 7.9555910648781794e+00 0 0 0
  218 1 1 -8.5844742589414853e+00 -4.5770698975610005e+00 8.8340074161196682e+00 0 0 0
  219 1 1 -9.2394594399129168e+00 -4.7057831819404923e+00 8.0691335095400198e+00 0 0 0
  220 1 1 -9.3863413583419906e+00 -5.4322968601964119e+00 8.7119103603925616e+00 0 0 0
  221 1 1 -1.0253857885678418e+01 -5.0847603676903992e+00 8.3915843976255324e+00 0 0 0
  222 1 1 -1.0328102772082318e+01 -5.6242334635373759e+00 9.1787623682645485e+00 0 0 0
  223 1 1 -1.1124046495338213e+01 -5.8499176566868449e+00 8.8273033908319540e+00 0 0 0
  224 1 1 -1.1179850173669916e+01 -6.0555270801994698e+00 9.7564479102415955e+00 0 0 0
  225 1 1 -1.1877249542956184e+01 -6.4807706638717280e+00 9.2090502807920593e+00 0 0 0
  226 1 1 -1.1942099773369222e+01 -6.8369118514932357e+00 1.0088874590908361e+01 0 0 0
  227 1 1 -1.1963325664832599e+01 -7.5044924564229012e+00 9.4702904737807465e+00 0 0 0
  228 1 1 -1.2104966833264523e+01 -7.9408636275152356e+00 1.0317538529298499e+01 0 0 0
  229 1 1 -1.2536065074758614e+01 -8.5310079181710883e+00 9.7560331598340877e+00 0 0 0
  230 1 1 -1.2003038846228797e+01 -9.0506321810499415e+00 1.0309065632128803e+01 0 0 0
  231 1 1 -1.2861213498798962e+01 -9.3381792301915887e+00 1.0574619140335805e+01 0 0 0
  232 1 1 -1.2333178768864141e+01 -1.0139841876307282e+01 1.0463224366427488e+01 0 0 0
  233 1 1 -1.3293129607560685e+01 -1.0365299316334916e+01 1.0628054015443862e+01 0 0 0
  234 1 1 -1.2865254363213264e+01 -1.0966691485112712e+01 9.9628864230929786e+00 0 0 0
  235 1 1 -1.2968971179451833e+01 -1.0015107101582954e+01 9.6721319180940704e+00 0 0 0
  236 1 1 -1.3331618521845302e+01 -1.0555928472744325e+01 9.0215324543400044e+00 0 0 0
  237 1 1 -1.3975137714806426e+01 -9.8814832828143864e+00 9.1951157548648812e+00 0 0 0
  238 1 1 -1.3758528675836258e+01 -9.8073515894025896e+00 8.2582590771366888e+00 0 0 0
  239 1 1 -1.4743021631793708e+01 -9.8550748934378536e+00 8.3264632828728296e+00 0 0 0
  240 1 1 -1.4429818723315314e+01 -1.0529528371979138e+01 7.7100263945939203e+00 0 0 0
  241 1 1 -1.4982114662429840e+01 -1.0872301991961686e+01 8.4422194899869858e+00 0 0 0
  242 1 1 -1.4127020629296805e+01 -1.1301715701358118e+01 8.3770756520168277e+00 0 0 0
  243 1 1 -1.4665722623366335e+01 -1.1850668853981276e+01 8.9000066391619566e+00 0 0 0
  244 1 1 -1.4078742850402152e+01 -1.2448668373052580e+01 8.4823727670323112e+00 0 0 0
  245 1 1 -1.3917023337317701e+01 -1.2538386611952765e+01 9.4363539772158482e+00 0 0 0
  246 1 1 -1.3775367218745956e+01 -1.3367082972154291e+01 8.9972159839458410e+00 0 0 0
  247 1 1 -1.2974275072055926e+01 -1.3029093756829649e+01 9.4670885019520767e+00 0 0 0
  248 1 1 -1.3493299943905855e+01 -1.3429022620930390e+01 1.0103252787856583e+01 0 0 0
  249 1 1 -1.3044317980076507e+01 -1.4129048331004862e+01 9.5364913819932475e+00 0 0 0
  250 1 1 -1.2693036341951176e+01 -1.4236852669518461e+01 1.0398214094444088e+01 0 0 0
  251 1 1 -1.3552532450630075e+01 -1.4507906226991810e+01 1.0413069870126364e+01 0 0 0
  252 1 1 -1.2979174095585702e+01 -1.5237012911584165e+01 1.0546985563565169e+01 0 0 0
  253 1 1 -1.3075561961573070e+01 -1.5183387688669601e+01 9.5835252532840745e+00 0 0 0
  254 1 1 -1.2710635513036836e+01 -1.6053398899294613e+01 9.7927604844691682e+00 0 0 0
  255 1 1 -1.1931514084274568e+01 -1.5378084577077246e+01 9.7525073074920776e+00 0 0 0
  256 1 1 -1.2028057849372777e+01 -1.5675200920967896e+01 8.8582510615804857e+00 0 0 0
  257 1 1 -1.1719268588274174e+01 -1.4804192398968802e+01 8.9425905360664206e+00 0 0 0
  258 1 1 -1.2637628078055089e+01 -1.4882210054003146e+01 8.7089010939338003e+00 0 0 0
  259 1 1 -1.2324767224452785e+01 -1.3976647863125367e+01 8.5366169299920465e+00 0 0 0
  260 1 1 -1.2117985860295150e+01 -1.4409883429853073e+01 7.7440031905780868e+00 0 0 0
  261 1 1 -1.1899269846968844e+01 -1.3460324219874446e+01 7.6917760796929686e+00 0 0 0
  262 1 1 -1.1322307526345501e+01 -1.3922357518041343e+01 7.0814442993247244e+00 0 0 0
  263 1 1 -1.0906051717591753e+01 -1.3111443412161817e+01 7.4794826177840781e+00 0 0 0
  264 1 1 -1.0384001986178815e+01 -1.3539741597729483e+01 6.7237512521376992e+00 0 0 0
  265 1 1 -9.8263682502361380e+00 -1.2839418330616688e+01 7.1772024740443001e+00 0 0 0
  266 1 1 -9.4196368540587745e+00 -1.3776923464825574e+01 7.0561130841606916e+00 0 0 0
  267 1 1 -9.7354135578906984e+00 -1.3657922524074509e+01 7.9625972014273083e+00 0 0 0
  268 1 1 -8.7914807467806035e+00 -1.3804482146925739e+01 8.0128760428046117e+00 0 0 0
  269 1 1 -9.2666465383563104e+00 -1.4639023957675587e+01 7.7690625265475584e+00 0 0 0
  270 1 1 -8.3682485355104923e+00 -1.4687994670950749e+01 7.5846857640313869e+00 0 0 0
  271 1 1 -8.8551722811207050e+00 -1.5417024495606071e+01 7.1817460239826838e+00 0 0 0
  272 1 1 -9.0038650583026367e+00 -1.4630485454689893e+01 6.6379028863449152e+00 0 0 0
  273 1 1 -9.6924626867286641e+00 -1.5193006867096598e+01 6.3823161479242971e+00 0 0 0
  274 1 1 -8.9132697538448546e+00 -1.5274542407512675e+01 5.7567676925169717e+00 0 0 0
  275 1 1 -9.0217213634112792e+00 -1.6172284337880832e+01 6.2248133153105210e+00 0 0 0
  276 1 1 -8.0697864802980348e+00 -1.6109102658559213e+01 6.0152258097500129e+00 0 0 0
  277 1 1 -8.1478529719398338e+00 -1.6713186645431371e+01 6.8101461957970884e+00 0 0 0
  278 1 1 -7.4395737504030626e+00 -1.7020534232042500e+01 6.2581094473165990e+00 0 0 0
  279 1 1 -8.1216259702320954e+00 -1.7779092229705807e+01 6.3176267936248198e+00 0 0 0
  280 1 1 -7.3098943480627172e+00 -1.7864458957988067e+01 6.9770508555555475e+00 0 0 0
  281 1 1 -7.7776030356142938e+00 -1.8712634228521519e+01 6.8668725618593154e+00 0 0 0
  282 1 1 -6.8606441048710742e+00 -1.8839839931156519e+01 6.6270773952645072e+00 0 0 0
  283 1 1 -7.2221265743390459e+00 -1.9693095369686418e+01 6.8587839475084449e+00 0 0 0
  284 1 1 -6.7172651446780582e+00 -1.9355270591215294e+01 7.5886410136678588e+00 0 0 0
  285 1 1 -6.1417218676687853e+00 -1.9941757039503191e+01 7.1695021891918218e+00 0 0 0
  286 1 1 -5.9998512807559443e+00 -2.0179329399468941e+01 8.0700425159810472e+00 0 0 0
  287 1 1 -5.1469512166023881e+00 -2.0021674820589507e+01 7.6241579005355247e+00 0 0 0
  288 1 1 -5.1185835457185380e+00 -2.0199144606153407e+01 8.5981217075851131e+00 0 0 0
  289 1 1 -4.2623046129488511e+00 -2.0080788814091711e+01 8.1821520404905321e+00 0 0 0
  290 1 1 -4.1605328439892038e+00 -2.0553591404872154e+01 9.0608300205531940e+00 0 0 0
  291 1 1 -3.3107166114818902e+00 -2.0472801890406352e+01 8.5535361250509361e+00 0 0 0
  292 1 1 -3.7714861564394275e+00 -2.1259237429141521e+01 8.1752837464629646e+00 0 0 0
  293 1 1 -3.2801312181296640e+00 -2.0755289852337839e+01 7.5077691764084626e+00 0 0 0
  294 1 1 -3.7590706986120841e+00 -2.1707489907345611e+01 7.2166788976844893e+00 0 0 0
  295 1 1 -3.3287238800565300e+00 -2.1248732995369721e+01 6.5084985497105938e+00 0 0 0
  296 1 1 -4.2512147261411792e+00 -2.1018118292265900e+01 6.5047887702678313e+00 0 0 0
  297 1 1 -3.7996400476593659e+00 -2.0914507310086353e+01 5.6422659814977170e+00 0 0 0
  298 1 4 -4.6748566166459922e+00 -2.0631473436990436e+01 5.5305023288713260e+00 0 0 0
  299 1 1 -4.1807998113990026e+00 -2.0339252673408900e+01 4.7544480399538305e+00 0 0 0
  300 1 1 -4.9076557603930331e+00 -1.9725681640271532e+01 4.9184922227038017e+00 0 0 0
  301 1 1 -4.1894678696690848e+00 -1.9094320934155910e+01 4.7106903502313209e+00 0 0 0
  302 1 1 -4.5878155642303557e+00 -1.9509075374769349e+01 3.8549019837970997e+00 0 0 0
  303 1 1 -4.3330941926576667e+00 -1.8552934938500606e+01 3.7760651043597666e+00 0 0 0
  304 1 1 -5.2672165714252266e+00 -1.8672620539783306e+01 3.8908221213774334e+00 0 0 0
  305 1 1 -5.0961579067807703e+00 -1.7923934233959432e+01 3.2377021275784568e+00 0 0 0
  306 1 1 -5.2699176577184579e+00 -1.7573408963493062e+01 4.1590094186446844e+00 0 0 0
  307 1 1 -4.9956915820568737e+00 -1.6873650816252951e+01 3.6314827723414305e+00 0 0 0
  308 1 1 -5.9349377127169776e+00 -1.6933165781763726e+01 3.8311714952360387e+00 0 0 0
  309 1 1 -5.5931881274320716e+00 -1.6075922919951182e+01 4.1070140315670161e+00 0 0 0
  310 1 1 -6.3655989130783377e+00 -1.6255381164302523e+01 4.6647851511972274e+00 0 0 0
  311 1 1 -6.3749713175109877e+00 -1.5376238215534311e+01 4.4266077991598891e+00 0 0 0
  312 1 1 -6.1375287445167430e+00 -1.5403154828765814e+01 5.3267762656557185e+00 0 0 0
  313 1 1 -5.6778463830560018e+00 -1.4658877315288439e+01 4.8508334895058516e+00 0 0 0
  314 1 1 -5.0959129707801560e+00 -1.5396629794478555e+01 5.1348239642681381e+00 0 0 0
  315 1 1 -4.5946508754365603e+00 -1.4669966645427737e+01 4.8981384830229358e+00 0 0 0
  316 1 1 -4.8178738688374025e+00 -1.4492617278176803e+01 5.7765233302149523e+00 0 0 0
  317 1 1 -3.9038486473875862e+00 -1.4448088172310781e+01 5.7389693393093655e+00 0 0 0
  318 1 1 -4.1069151894958900e+00 -1.4915317271842762e+01 6.5391214549591288e+00 0 0 0
  319 1 1 -3.3943564677516820e+00 -1.4381218341673620e+01 6.7198089893625976e+00 0 0 0
  320 1 1 -4.0658137561903187e+00 -1.4073493448633128e+01 7.3154488925196786e+00 0 0 0
  321 1 1 -3.5937480290308010e+00 -1.3292251142185487e+01 7.0777231938137461e+00 0 0 0
  322 1 1 -4.1815263980794404e+00 -1.3234833779289936e+01 7.8071747815132326e+00 0 0 0
  323 1 1 -3.3554866785274911e+00 -1.2912856023241458e+01 8.0992663332577450e+00 0 0 0
  324 1 1 -4.0755962510599133e+00 -1.2362340818722629e+01 8.3371607913979933e+00 0 0 0
  325 1 2 -3.3198436411006500e+00 -1.1839832814207975e+01 8.4193331216060479e+00 0 0 0
  326 1 3 -3.4618415853151023e+00 -1.2067669451467143e+01 7.4493998743785941e+00 0 0 0
  327 1 1 -4.0077041019497548e+00 -1.1337577257578381e+01 7.7145996927882985e+00 0 0 0
  328 1 1 -3.0678001925965495e+00 -1.1121141533394532e+01 7.5737405916763993e+00 0 0 0
  329 1 1 -3.6473917082957552e+00 -1.0412481726544724e+01 7.3506915304109244e+00 0 0 0
  330 1 1 -2.7740098601490151e+00 -1.0096562060518385e+01 7.2689813198434994e+00 0 0 0
  331 1 1 -3.2426507967148224e+00 -9.6637195063360952e+00 7.9718799971651944e+00 0 0 0
  332 1 1 -2.3621856182277101e+00 -9.2899989096738498e+00 8.0217472472892180e+00 0 0 0
  333 1 1 -2.9370180718765444e+00 -8.6483475375967558e+00 7.5417216498298814e+00 0 0 0
  334 1 1 -2.1668185801639486e+00 -8.1441045831894350e+00 7.8017629481406505e+00 0 0 0
  335 1 1 -2.4314125894637044e+00 -7.9627434674376953e+00 6.9143020506568806e+00 0 0 0
  336 1 1 -1.9788690845074632e+00 -8.7612888436556666e+00 6.7900704227612856e+00 0 0 0
  337 1 1 -1.3165615931437247e+00 -8.0988974550999444e+00 6.9523676600675675e+00 0 0 0
  338 1 1 -1.2001471659991771e+00 -8.9086350808352623e+00 7.5221283543389807e+00 0 0 0
  339 1 1 -3.9691901223372555e-01 -8.7804570436224019e+00 6.9908764743286698e+00 0 0 0
  340 1 1 -2.0184240346592253e-01 -9.2594412546152345e+00 7.7817446111803319e+00 0 0 0
  341 1 1 -1.4005765287594343e-01 -8.3987356850277006e+00 8.1613460209761755e+00 0 0 0
  342 1 1 7.2601575644033378e-01 -8.4951989221454145e+00 7.8449242820339977e+00 0 0 0
  343 1 1 4.7457005002484287e-01 -7.6292576173986433e+00 7.5991718993590158e+00 0 0 0
  344 1 1 6.7214982796070111e-01 -7.6629500165349533e+00 8.5153502353740951e+00 0 0 0
  345 1 1 5.3660731027965936e-01 -6.7559421401536701e+00 8.2390381843274341e+00 0 0 0