LAMMPS data file via write_data, version 7 Dec 2015, timestep = 20000

10000 atoms
5 atom types
9399 bonds
3 bond types
4998 angles
1 angle types
2 extra bond per atom

-7.5000000000000000e+01 7.5000000000000000e+01 xlo xhi
-7.5000000000000000e+01 7.5000000000000000e+01 ylo yhi
-7.5000000000000000e+01 7.5000000000000000e+01 zlo zhi

Masses

1 1
2 1
3 1
4 1
5 1

Atoms

  1 1 1 1.0225021438447000e+01 3.6513061012561202e+01 2.2079014614876833e+01 0 0 0
  2 1 1 1.0412459198114611e+01 3.7444011921406187e+01 2.1855470617363036e+01 0 0 0
  3 1 1 1.0456026611154476e+01 3.7281477757050851e+01 2.2795846262962591e+01 0 0 0
  4 1 1 1.0880262719989231e+01 3.8106023631596713e+01 2.2589632338441085e+01 0 0 0
  5 1 1 1.0384688753586504e+01 3.8182048599484716e+01 2.3376881645105112e+01 0 0 0
  6 1 1 1.1156430564213478e+01 3.8382306758654934e+01 2.3763079483781429e+01 0 0 0
  7 1 1 1.0533696348551628e+01 3.8062870278659730e+01 2.4465241756147488e+01 0 0 0
  8 1 1 1.1247565287454627e+01 3.7437940582102229e+01 2.4282369173200291e+01 0 0 0
  9 1 2 1.0956510243745614e+01 3.7398944163548222e+01 2.5206934487033894e+01 0 0 0
  10 1 2 1.1251969507455957e+01 3.6551843520396339e+01 2.4891352227650820e+01 0 0 0
  11 1 1 1.1508790044242167e+01 3.6734922052330354e+01 2.5790162778715978e+01 0 0 0
  12 1 1 1.0536654763959087e+01 3.6480153002755074e+01 2.5719139085810934e+01 0 0 0
  13 1 2 1.0966343665350445e+01 3.6254176928785625e+01 2.6560444326048778e+01 0 0 0
  14 1 2 9.9350011038613282e+00 3.6493682731420655e+01 2.6613034837195094e+01 0 0 0
  15 1 2 1.0181122777832391e+01 3.5593033720242012e+01 2.6749900638788830e+01 0 0 0
  16 1 2 9.2753440414537724e+00 3.5636450696287561e+01 2.7044294143677472e+01 0 0 0
  17 1 2 9.3338817827117211e+00 3.4838683289391717e+01 2.6542883591228069e+01 0 0 0
  18 1 2 9.4316871202200065e+00 3.5557295044262986e+01 2.5970606909152238e+01 0 0 0
  19 1 2 8.5834278792833025e+00 3.5137014616192992e+01 2.5951603530777522e+01 0 0 0
  20 1 2 8.7803008819235515e+00 3.5332728845141396e+01 2.5003081948831309e+01 0 0 0
  21 1 2 8.1942697862904978e+00 3.4519470480481758e+01 2.5050103855692917e+01 0 0 0
  22 1 2 8.4683127311086839e+00 3.4642702447508036e+01 2.4113834866028000e+01 0 0 0
  23 1 2 7.5898554491679535e+00 3.4207855236494339e+01 2.4137595729777907e+01 0 0 0
  24 1 2 7.9947426933150663e+00 3.4051869600321965e+01 2.3320015017926707e+01 0 0 0
  25 1 2 8.0382924469916155e+00 3.3167956954946185e+01 2.3808273700448858e+01 0 0 0
  26 1 1 7.2914967321280066e+00 3.3124252698006863e+01 2.3234840198022084e+01 0 0 0
  27 1 2 7.5769361950092060e+00 3.2301905321623750e+01 2.3600835784550693e+01 0 0 0
  28 1 2 6.6751154520920126e+00 3.2351962916897811e+01 2.3216133128309668e+01 0 0 0
  29 1 1 6.5744682048079275e+00 3.1958738794091914e+01 2.4069632747932349e+01 0 0 0
  30 1 1 5.9092557542067166e+00 3.2743181378138999e+01 2.3961855960854599e+01 0 0 0
  31 1 1 5.4575725250955207e+00 3.1928466142994314e+01 2.4072289185389216e+01 0 0 0
  32 1 1 5.6795529778403120e+00 3.2052808290156257e+01 2.3152874773721436e+01 0 0 0
  33 1 1 4.9533250459897644e+00 3.2658528875144519e+01 2.3252466978803671e+01 0 0 0
  34 1 1 4.8653610176356699e+00 3.2199942109969065e+01 2.2455020813791162e+01 0 0 0
  35 1 1 4.0053737537249985e+00 3.2495379386437925e+01 2.2754137853245584e+01 0 0 0
  36 1 1 4.0033726296164378e+00 3.2097789986423109e+01 2.1839200701287350e+01 0 0 0
  37 1 2 3.0810380454661042e+00 3.2157366730791317e+01 2.2279904187310276e+01 0 0 0
  38 1 1 3.5094313395639993e+00 3.1339268462726938e+01 2.2495350641580011e+01 0 0 0
  39 1 1 2.6533042553472010e+00 3.1210446964935532e+01 2.2020240579651883e+01 0 0 0
  40 1 1 2.4576763518729501e+00 3.1589962060008965e+01 2.2928865176183773e+01 0 0 0
  41 1 2 1.7630419642127111e+00 3.1873098550920695e+01 2.2389271751427554e+01 0 0 0
  42 1 2 1.3701967399146733e+00 3.1153039907025775e+01 2.2796888070678712e+01 0 0 0
  43 1 1 8.9724449706290565e-01 3.1998797706019833e+01 2.2947056537651015e+01 0 0 0
  44 1 2 5.6374869828133445e-01 3.1234556789689783e+01 2.3393276611174979e+01 0 0 0
  45 1 2 -2.1598621046267580e-01 3.1729099932028905e+01 2.3066163066000172e+01 0 0 0
  46 1 2 4.3516781043634635e-03 3.1007009250315118e+01 2.2410095508222053e+01 0 0 0
  47 1 2 -9.3627367892762736e-01 3.1119427836302339e+01 2.2583642345664241e+01 0 0 0
  48 1 2 -5.9573257758286025e-01 3.0623507880299691e+01 2.3250342536385279e+01 0 0 0
  49 1 2 -8.7494192927605485e-01 3.0085158551605982e+01 2.2442634378611785e+01 0 0 0
  50 1 2 2.5431426741741554e-02 2.9894644723207772e+01 2.2664099070558589e+01 0 0 0
  51 1 2 -1.3405840438923838e-01 2.9275835909335989e+01 2.1969833537410057e+01 0 0 0
  52 1 2 3.9900521158233071e-01 2.8828357511670674e+01 2.2699159383413519e+01 0 0 0
  53 1 1 -2.5953930071644127e-01 2.8207222322015340e+01 2.2175663460016580e+01 0 0 0
  54 1 1 -7.0348351085274841e-01 2.8691255717540919e+01 2.2920087840306405e+01 0 0 0
  55 1 2 -7.6384733424308238e-01 2.7690417010513684e+01 2.3033073333140564e+01 0 0 0
  56 1 2 -1.4959367273138344e+00 2.8132554241888620e+01 2.3475744900587529e+01 0 0 0
  57 1 2 -1.7166936091989968e+00 2.7220727539720436e+01 2.3306285778064552e+01 0 0 0
  58 1 2 -1.8878346484702702e+00 2.7706913877060003e+01 2.2499315302780413e+01 0 0 0
  59 1 2 -2.6974513533530291e+00 2.7723637839655677e+01 2.3114957637516973e+01 0 0 0
  60 1 2 -2.9425525235740086e+00 2.7549449744052840e+01 2.2182593240417088e+01 0 0 0
  61 1 2 -3.6202371972144749e+00 2.7089478206409641e+01 2.2727958341537711e+01 0 0 0
  62 1 2 -3.6441783837105186e+00 2.6715477099992604e+01 2.1903884034572823e+01 0 0 0
  63 1 2 -4.4979072482349469e+00 2.6890579482946606e+01 2.2291622469943082e+01 0 0 0
  64 1 1 -4.5412901483630614e+00 2.7200849459818951e+01 2.1389570824696289e+01 0 0 0
  65 1 1 -5.2983649997388973e+00 2.7557205073695943e+01 2.1851652965378673e+01 0 0 0
  66 1 1 -5.5886062107397496e+00 2.6770991045841285e+01 2.1225418623211535e+01 0 0 0
  67 1 1 -5.7741165270329180e+00 2.7653000864543195e+01 2.0937751926769167e+01 0 0 0
  68 1 1 -5.7355347648416535e+00 2.7104599558381594e+01 2.0178935834282971e+01 0 0 0
  69 1 1 -6.5751625401201448e+00 2.7667624926446329e+01 2.0256692425121180e+01 0 0 0
  70 1 1 -6.5941068860509988e+00 2.6841401973904723e+01 2.0768682947305301e+01 0 0 0
  71 1 2 -7.3212825849073644e+00 2.6779431159764879e+01 2.0111555656673666e+01 0 0 0
  72 1 1 -7.6429936598790640e+00 2.7116975480387360e+01 2.0951417403484587e+01 0 0 0
  73 1 1 -8.4611622054974465e+00 2.6779589937193730e+01 2.0446308018279755e+01 0 0 0
  74 1 1 -8.7306182487860813e+00 2.7015131893430858e+01 2.1304132063245117e+01 0 0 0
  75 1 1 -9.2615325173038165e+00 2.6234114751538858e+01 2.1063546407473293e+01 0 0 0
  76 1 1 -9.7778420561217381e+00 2.6737312086931343e+01 2.1704567494995608e+01 0 0 0
  77 1 1 -1.0275514942943420e+01 2.6780922201265437e+01 2.0821318419722630e+01 0 0 0
  78 1 1 -1.0590674615693723e+01 2.6071646984513929e+01 2.1363071194032027e+01 0 0 0
  79 1 2 -1.0535970715630704e+01 2.5769400539195008e+01 2.0496589357075351e+01 0 0 0
  80 1 3 -1.1163099496787183e+01 2.5133777945576849e+01 2.0885402151766041e+01 0 0 0
  81 1 2 -1.1528126238743297e+01 2.5742360178712339e+01 2.0205053021840865e+01 0 0 0
  82 1 2 -1.1663334592786775e+01 2.4810111450651942e+01 2.0006431601535365e+01 0 0 0
  83 1 2 -1.2165716225018610e+01 2.4987886713583869e+01 2.0746169778675128e+01 0 0 0
  84 1 1 -1.2621038543542802e+01 2.5298513657525234e+01 1.9979025584190087e+01 0 0 0
  85 1 2 -1.3183534014368190e+01 2.4801112206083967e+01 2.0576561455069427e+01 0 0 0
  86 1 2 -1.3449590360808571e+01 2.4707459808816459e+01 1.9623548845822988e+01 0 0 0
  87 1 2 -1.2759919907799540e+01 2.4100890965167064e+01 1.9886931496389796e+01 0 0 0
  88 1 2 -1.3379015369898644e+01 2.3697180119618313e+01 1.9202035640163672e+01 0 0 0
  89 1 2 -1.2878121989568561e+01 2.2993825295279169e+01 1.9473489045905403e+01 0 0 0
  90 1 2 -1.2600849987734010e+01 2.3056438414697073e+01 1.8591124889380307e+01 0 0 0
  91 1 2 -1.3508141938786334e+01 2.2704861868103006e+01 1.8617895025381678e+01 0 0 0
  92 1 2 -1.2915274408928173e+01 2.2000476167314822e+01 1.8418295954663709e+01 0 0 0
  93 1 2 -1.3646536761691795e+01 2.2035225644699295e+01 1.7813397333331618e+01 0 0 0
  94 1 2 -1.3038757780418182e+01 2.1281522579957890e+01 1.7590447160910397e+01 0 0 0
  95 1 1 -1.3864891234476223e+01 2.0889184413921324e+01 1.8085240390556873e+01 0 0 0
  96 1 1 -1.2960200824006671e+01 2.0658861521071056e+01 1.8492673717926060e+01 0 0 0
  97 1 2 -1.3641019765882456e+01 2.0179792798164129e+01 1.8964254102754495e+01 0 0 0
  98 1 2 -1.3218683592997834e+01 1.9557966286527368e+01 1.8436523489339248e+01 0 0 0
  99 1 2 -1.3622527963485341e+01 1.9054388090589075e+01 1.9088676938724127e+01 0 0 0
  100 1 2 -1.3195871429339050e+01 1.8443907005368509e+01 1.8538609816400296e+01 0 0 0
  101 1 2 -1.4142164219957845e+01 1.8157515183539633e+01 1.8572207698265466e+01 0 0 0
  102 1 2 -1.3637534335328160e+01 1.7634320854695194e+01 1.7977301146559249e+01 0 0 0
  103 1 2 -1.4519492382967828e+01 1.7805122213342411e+01 1.7614883556238947e+01 0 0 0
  104 1 2 -1.4307296573773721e+01 1.6868636610615347e+01 1.7842153298386961e+01 0 0 0
  105 1 2 -1.4176421267517583e+01 1.6922922361988569e+01 1.6936693181294618e+01 0 0 0
  106 1 2 -1.4672218140642414e+01 1.6163422528387468e+01 1.7124073080358762e+01 0 0 0
  107 1 1 -1.4255448334643317e+01 1.6051989452947407e+01 1.6108262822116913e+01 0 0 0
  108 1 2 -1.4412057844449402e+01 1.5225062754682051e+01 1.6570381649953688e+01 0 0 0
  109 1 1 -1.5245432270900762e+01 1.5558298134593219e+01 1.6177630612490525e+01 0 0 0
  110 1 1 -1.5117634597219437e+01 1.4590542168217745e+01 1.6087117986301486e+01 0 0 0
  111 1 2 -1.5869821902743292e+01 1.4835769750128676e+01 1.5555293300865035e+01 0 0 0
  112 1 2 -1.6167484893864088e+01 1.4481032414188686e+01 1.6491928803452762e+01 0 0 0
  113 1 2 -1.6123873408041142e+01 1.3747807320947054e+01 1.5759368729290172e+01 0 0 0
  114 1 2 -1.6986810924115744e+01 1.3790843545528890e+01 1.6181277324877978e+01 0 0 0
  115 1 2 -1.6826452273904739e+01 1.2901090082021772e+01 1.5733395219436431e+01 0 0 0
  116 1 2 -1.7489228366775631e+01 1.3319718418452403e+01 1.5202821200730479e+01 0 0 0
  117 1 2 -1.8008946685873326e+01 1.2734253207733312e+01 1.5647378672693005e+01 0 0 0
  118 1 2 -1.8626967747402208e+01 1.3253793059403460e+01 1.5228433228436147e+01 0 0 0
  119 1 2 -1.8797692861578525e+01 1.2387759815078677e+01 1.4916306944224678e+01 0 0 0
  120 1 2 -1.9415506709492668e+01 1.2560184974165754e+01 1.5623336797653030e+01 0 0 0
  121 1 2 -1.9787229681315349e+01 1.1952588309481179e+01 1.4936425230512329e+01 0 0 0
  122 1 2 -2.0547808950353208e+01 1.2309778709596054e+01 1.5496639430474913e+01 0 0 0
  123 1 2 -2.0937581920226805e+01 1.1745824400415231e+01 1.4822551700102325e+01 0 0 0
  124 1 2 -2.0792088780043041e+01 1.2518243792442366e+01 1.4356868893067956e+01 0 0 0
  125 1 2 -2.1779518388356820e+01 1.2427478270936620e+01 1.4472540710808026e+01 0 0 0
  126 1 3 -2.1518375710623161e+01 1.2006625984543179e+01 1.3693053677281855e+01 0 0 0
  127 1 2 -2.2347559642932357e+01 1.1624447249119417e+01 1.4113097861480318e+01 0 0 0
  128 1 2 -2.2180711809213577e+01 1.1223895937998009e+01 1.3302642987341013e+01 0 0 0
  129 1 2 -2.2500928288022639e+01 1.0600699383665969e+01 1.3983054840881922e+01 0 0 0
  130 1 2 -2.3239316841636306e+01 1.0738540059548413e+01 1.3386706930460198e+01 0 0 0
  131 1 2 -2.3597855543286730e+01 1.0159800590545890e+01 1.4106247198084146e+01 0 0 0
  132 1 2 -2.3926692180287166e+01 1.1080679784887872e+01 1.4216203152434005e+01 0 0 0
  133 1 1 -2.4648556439660236e+01 1.0487439552064604e+01 1.4460113302919787e+01 0 0 0
  134 1 2 -2.5011943117575072e+01 1.1315968382141490e+01 1.4222612122402920e+01 0 0 0
  135 1 2 -2.5245163186460683e+01 1.1250758992614092e+01 1.5113869384488487e+01 0 0 0
  136 1 2 -2.5894382952822870e+01 1.0934997895371907e+01 1.4538364156906065e+01 0 0 0
  137 1 2 -2.5576168788330122e+01 1.0263834305664766e+01 1.5100731361831141e+01 0 0 0
  138 1 2 -2.6499633293408255e+01 1.0418200324002358e+01 1.5334581701688451e+01 0 0 0
  139 1 2 -2.5937010943725642e+01 1.0927827399826267e+01 1.5916747807225997e+01 0 0 0
  140 1 2 -2.6511900910885302e+01 1.1500990512614464e+01 1.5391792499783930e+01 0 0 0
  141 1 2 -2.6589464160041221e+01 1.1616144880225240e+01 1.6423280778699848e+01 0 0 0
  142 1 2 -2.7452006476031048e+01 1.1264703085636670e+01 1.6014432621995848e+01 0 0 0
  143 1 2 -2.7401779177931999e+01 1.2229738768436542e+01 1.5941772154427269e+01 0 0 0
  144 1 2 -2.7881635266263213e+01 1.1877802652776630e+01 1.5143282669484615e+01 0 0 0
  145 1 2 -2.7016782122514805e+01 1.2290989731634907e+01 1.4823227596545033e+01 0 0 0
  146 1 2 -2.7623258865905676e+01 1.2092384703598213e+01 1.4093925941482722e+01 0 0 0
  147 1 2 -2.6712199378157298e+01 1.2304974668922455e+01 1.3726924461727062e+01 0 0 0
  148 1 3 -2.7248841162308434e+01 1.1757972130202742e+01 1.3139418561182403e+01 0 0 0
  149 1 2 -2.7543958876857776e+01 1.2624484726654876e+01 1.3093357172912016e+01 0 0 0
  150 1 2 -2.7306077460173629e+01 1.2289956695216544e+01 1.2204415995853369e+01 0 0 0
  151 1 2 -2.7844953739254169e+01 1.3112874199647194e+01 1.2107410174212422e+01 0 0 0
  152 1 2 -2.8387605991297534e+01 1.2240468042164265e+01 1.2277568490718227e+01 0 0 0
  153 1 2 -2.8174865605586959e+01 1.2412519574170579e+01 1.1348332878575963e+01 0 0 0
  154 1 2 -2.9159350151963665e+01 1.2453350882025818e+01 1.1547472907700460e+01 0 0 0
  155 1 2 -2.8949767104258115e+01 1.2430174951688636e+01 1.0634867861048319e+01 0 0 0
  156 1 2 -2.9877738652395646e+01 1.2344169295736668e+01 1.0756642945039838e+01 0 0 0
  157 1 2 -2.9592251688341740e+01 1.1573580332497583e+01 1.0313090276378299e+01 0 0 0
  158 1 2 -3.0584741513544824e+01 1.1605746931967589e+01 1.0246442256143300e+01 0 0 0
  159 1 2 -3.0350243671064138e+01 1.0714646723776371e+01 1.0587893515006273e+01 0 0 0
  160 1 2 -3.1183861540608362e+01 1.0765197558782269e+01 1.0035820344924364e+01 0 0 0
  161 1 2 -3.1135649935844121e+01 9.9124933970314952e+00 1.0402020061315911e+01 0 0 0
  162 1 2 -3.1353356283166502e+01 1.0425042717809504e+01 1.1152251337344078e+01 0 0 0
  163 1 2 -3.1224184651815268e+01 9.5062965261093950e+00 1.1449532030876576e+01 0 0 0
  164 1 2 -3.1009654013987554e+01 1.0033717612687260e+01 1.2214100530471315e+01 0 0 0
  165 1 2 -3.1013114357720681e+01 9.0536342203845201e+00 1.2464759692169524e+01 0 0 0
  166 1 2 -3.1850462750140419e+01 9.4352514875747140e+00 1.2678288205554137e+01 0 0 0
  167 1 2 -3.1982378573525924e+01 8.7522506827943083e+00 1.2119535822507636e+01 0 0 0
  168 1 2 -3.2099645052439961e+01 8.4543568956619914e+00 1.2991765112848217e+01 0 0 0
  169 1 2 -3.2368443143435655e+01 7.6900935458656603e+00 1.2425494826963877e+01 0 0 0
  170 1 2 -3.3132626339390825e+01 8.0137946460276908e+00 1.2965442762054984e+01 0 0 0
  171 1 2 -3.2973241272752574e+01 7.0410488419171937e+00 1.3036951071114133e+01 0 0 0
  172 1 2 -3.2495663363187305e+01 7.5187830262604711e+00 1.3623482950252985e+01 0 0 0
  173 1 2 -3.3339502589369573e+01 7.2589473751615943e+00 1.4043710087464088e+01 0 0 0
  174 1 2 -3.2602967587782167e+01 6.9396654432887894e+00 1.4587879054914975e+01 0 0 0
  175 1 2 -3.2681856873817985e+01 6.3568155398563375e+00 1.3837197748990802e+01 0 0 0
  176 1 2 -3.3047260790107472e+01 5.9753987212786397e+00 1.4573802414237262e+01 0 0 0
  177 1 2 -3.3830734315318587e+01 6.1572151833266373e+00 1.3879078653706660e+01 0 0 0
  178 1 3 -3.3608068483619370e+01 5.2889907889936900e+00 1.4159057487547864e+01 0 0 0
  179 1 2 -3.4115287588709258e+01 5.1863653227746118e+00 1.3360792222867369e+01 0 0 0
  180 1 2 -3.3471208984065271e+01 4.4549543019405453e+00 1.3332609808623053e+01 0 0 0
  181 1 2 -3.4201615339401293e+01 4.2973978566837765e+00 1.2756363902709078e+01 0 0 0
  182 1 2 -3.3444166433544289e+01 3.7651233940117916e+00 1.2469889851114083e+01 0 0 0
  183 1 2 -3.3865669620096625e+01 3.4603143922072293e+00 1.3296268744537663e+01 0 0 0
  184 1 2 -3.3473605217890395e+01 2.7555965203062200e+00 1.2733626596560951e+01 0 0 0
  185 1 2 -3.4285798310398036e+01 2.4880274463600864e+00 1.3165296637699516e+01 0 0 0
  186 1 2 -3.4452343695755800e+01 2.9593857131991554e+00 1.2362503044391957e+01 0 0 0
  187 1 2 -3.5257617408191692e+01 2.5870414259330934e+00 1.2686149124867162e+01 0 0 0
  188 1 2 -3.5489832553251084e+01 3.0427052910998107e+00 1.1913193374144997e+01 0 0 0
  189 1 3 -3.5325853714279035e+01 3.6332774565838744e+00 1.2646308275273983e+01 0 0 0
  190 1 2 -3.6240840841909097e+01 3.7430422337830334e+00 1.2426441001250943e+01 0 0 0
  191 1 1 -3.6003349898669235e+01 4.5145865014444695e+00 1.2887284825590571e+01 0 0 0
  192 1 1 -3.6094758554090916e+01 3.8533793248842727e+00 1.3542568443604772e+01 0 0 0
  193 1 1 -3.6988913688990749e+01 4.2075167034735648e+00 1.3304570909789064e+01 0 0 0
  194 1 1 -3.6997958802333869e+01 3.9161409289212390e+00 1.4244020264031985e+01 0 0 0
  195 1 1 -3.6468923902532282e+01 4.7468743642068052e+00 1.4211899010793259e+01 0 0 0
  196 1 1 -3.6670511382103740e+01 4.5142219103560794e+00 1.5150055238054449e+01 0 0 0
  197 1 1 -3.5666038671540512e+01 4.4878975551041433e+00 1.4873833894947950e+01 0 0 0
  198 1 1 -3.5724897530614932e+01 5.0495267282643601e+00 1.5659838876839252e+01 0 0 0
  199 1 1 -3.5166511520456957e+01 4.3354188561292561e+00 1.5791315855476590e+01 0 0 0
  200 1 1 -3.5318284799482129e+01 4.3692363595982036e+00 1.6727527646481249e+01 0 0 0
  201 1 1 -3.5277355362943133e+01 3.4154616499339618e+00 1.6371136423917189e+01 0 0 0
  202 1 1 -3.4431843914678886e+01 3.5926235070548427e+00 1.6746031605879505e+01 0 0 0
  203 1 1 -3.4734350376624391e+01 2.6666019273761505e+00 1.6745382987465408e+01 0 0 0
  204 1 1 -3.3788409821807626e+01 2.7880948197724180e+00 1.6625192903750641e+01 0 0 0
  205 1 1 -3.3708582630740864e+01 2.4776878077365061e+00 1.7537805963472039e+01 0 0 0
  206 1 1 -3.2765042540831594e+01 2.5695327375748875e+00 1.7349991980183059e+01 0 0 0
  207 1 1 -3.2988056451856075e+01 1.7690563926325862e+00 1.7860608746013593e+01 0 0 0
  208 1 1 -3.3196504872423652e+01 1.6811039714284137e+00 1.6919187377853081e+01 0 0 0
  209 1 1 -3.3027968172103677e+01 7.3665928685199833e-01 1.7345712222403279e+01 0 0 0
  210 1 1 -3.2397706781335572e+01 8.2049773071617726e-01 1.6608344284367501e+01 0 0 0
  211 1 1 -3.1918117796744383e+01 8.5168549830438511e-01 1.7457631637539585e+01 0 0 0
  212 1 1 -3.1354182161207529e+01 8.4367917308017193e-01 1.6689380779239603e+01 0 0 0
  213 1 1 -3.1280885333368200e+01 -1.1436555626460675e-01 1.7076620150358995e+01 0 0 0
  214 1 1 -3.0769383265390200e+01 4.6150698253096428e-01 1.7593923393692776e+01 0 0 0
  215 1 1 -3.0252793096792015e+01 -3.0495614910912000e-01 1.7456774491207430e+01 0 0 0
  216 1 1 -3.0762312531604007e+01 -3.3401957499646040e-01 1.8337445919365894e+01 0 0 0
  217 1 1 -3.0142458691873397e+01 -1.0601831767928622e+00 1.8288644307289204e+01 0 0 0
  218 1 1 -3.0922074964052207e+01 -1.3688578647888276e+00 1.7876213970722368e+01 0 0 0
  219 1 1 -3.0113572400479541e+01 -1.6383403906336034e+00 1.7421151468238985e+01 0 0 0
  220 1 1 -3.0553248198452259e+01 -2.3400882135516676e+00 1.7845736929047842e+01 0 0 0
  221 1 1 -3.0189898533637770e+01 -2.7878449682533262e+00 1.7146997460208841e+01 0 0 0
  222 1 1 -2.9704377289295390e+01 -3.0895788679828571e+00 1.7990738967933883e+01 0 0 0
  223 1 1 -3.0611431693619753e+01 -3.4190356545083063e+00 1.8067183020220245e+01 0 0 0
  224 1 1 -3.0007335020658584e+01 -4.0692416763301695e+00 1.8380277929415840e+01 0 0 0
  225 1 1 -3.0529399848924008e+01 -4.3935889219297097e+00 1.7571746575559420e+01 0 0 0
  226 1 1 -2.9712516856554696e+01 -4.1896957591815385e+00 1.7303224825885788e+01 0 0 0
  227 1 1 -2.9789687421691379e+01 -5.1324427250627664e+00 1.7171151594706462e+01 0 0 0
  228 1 1 -2.8934065992420006e+01 -4.8420010959591036e+00 1.6753039840046380e+01 0 0 0
  229 1 1 -2.8819885500158264e+01 -5.1714028241739545e+00 1.7612979074026271e+01 0 0 0
  230 1 1 -2.8154045485500610e+01 -4.4922667473959903e+00 1.7486520685157796e+01 0 0 0
  231 1 1 -2.7707919830457662e+01 -5.3412350263704313e+00 1.7365568749694592e+01 0 0 0
  232 1 1 -2.7288908159329971e+01 -4.8311696058168785e+00 1.8019728263617871e+01 0 0 0
  233 1 1 -2.6693126738457799e+01 -5.5515758758558631e+00 1.7860288063809918e+01 0 0 0
  234 1 1 -2.6500939146005752e+01 -4.9258221729644216e+00 1.7212519222859623e+01 0 0 0
  235 1 1 -2.6854185649242691e+01 -5.7226411748938126e+00 1.6746940510954463e+01 0 0 0
  236 1 1 -2.5979884459389687e+01 -5.5726133995362535e+00 1.6410932851632690e+01 0 0 0
  237 1 1 -2.6398436360633376e+01 -6.1835813082544773e+00 1.5762535486669263e+01 0 0 0
  238 1 1 -2.5497450352934941e+01 -6.5130164725118975e+00 1.5993345588416764e+01 0 0 0
  239 1 1 -2.6047804234317095e+01 -7.2751243324061692e+00 1.5912152312916007e+01 0 0 0
  240 1 1 -2.5792157056342791e+01 -6.9764214658736794e+00 1.5032392541468871e+01 0 0 0
  241 1 1 -2.6320327972655988e+01 -7.7353667295682733e+00 1.5017071016679450e+01 0 0 0
  242 1 1 -2.6907523721323241e+01 -6.9139156587019244e+00 1.5000546940796115e+01 0 0 0
  243 1 1 -2.6948507877146707e+01 -7.4739987616697467e+00 1.4163956832394740e+01 0 0 0
  244 1 1 -2.6701700106708724e+01 -6.6330599719043661e+00 1.3946621394088456e+01 0 0 0
  245 1 1 -2.6617020801700882e+01 -7.1059765975568654e+00 1.3159572102546694e+01 0 0 0
  246 1 1 -2.5764354854162512e+01 -6.9103429017149187e+00 1.3521909234210636e+01 0 0 0
  247 1 1 -2.5867481528933489e+01 -7.8444384687646425e+00 1.3670307374199647e+01 0 0 0
  248 1 1 -2.5700095630800483e+01 -7.7499997095384865e+00 1.2767324997442419e+01 0 0 0
  249 1 1 -2.4880845723219643e+01 -7.9787386654510257e+00 1.3137546046750497e+01 0 0 0
  250 1 1 -2.4709045398520374e+01 -7.1067237417661895e+00 1.2781436514039031e+01 0 0 0
  251 1 1 -2.4374993530621339e+01 -7.1266944217099466e+00 1.3662500682312814e+01 0 0 0
  252 1 1 -2.3810615931029275e+01 -6.5763790373371860e+00 1.3009018222080336e+01 0 0 0
  253 1 1 -2.3363930146553560e+01 -7.4449537080980601e+00 1.3056398797082247e+01 0 0 0
  254 1 1 -2.3057145239346909e+01 -7.0159232637607563e+00 1.2274015188177726e+01 0 0 0
  255 1 1 -2.2529572922214165e+01 -7.7835835636054203e+00 1.2646471725381724e+01 0 0 0
  256 1 1 -2.2953880971022649e+01 -8.0022460283023094e+00 1.1812865089851321e+01 0 0 0
  257 1 1 -2.2239462364355422e+01 -8.6116288269290866e+00 1.1936392049299295e+01 0 0 0
  258 1 1 -2.1930318161483321e+01 -7.7841710028527809e+00 1.1480337600100286e+01 0 0 0
  259 1 1 -2.1213358581440126e+01 -8.5086101185682566e+00 1.1682085277129664e+01 0 0 0
  260 1 1 -2.1122414849566432e+01 -8.1234022113120421e+00 1.0776174915943345e+01 0 0 0
  261 1 1 -2.0817930332688515e+01 -9.0023781087100456e+00 1.0787948109667491e+01 0 0 0
  262 1 1 -2.1507457458360101e+01 -8.9544617556727868e+00 1.0133127577388763e+01 0 0 0
  263 1 1 -2.0758887684250222e+01 -9.1203686338493668e+00 9.5992403072661006e+00 0 0 0
  264 1 1 -2.1289405548702813e+01 -8.5569689664076627e+00 9.0696340695812996e+00 0 0 0
  265 1 1 -2.0692857539070346e+01 -9.0516738541191781e+00 8.5220945051446062e+00 0 0 0
  266 1 1 -2.0008477771694661e+01 -8.5635189268057328e+00 8.9740372399911283e+00 0 0 0
  267 1 1 -2.0402997031888386e+01 -7.9459221164132909e+00 8.3711923047170913e+00 0 0 0
  268 1 1 -1.9443882641746807e+01 -8.0458137425414833e+00 8.2114168551594968e+00 0 0 0
  269 1 1 -1.9662410764192661e+01 -7.1551679194673143e+00 8.1057067725273644e+00 0 0 0
  270 1 1 -1.8959499970882174e+01 -7.3244671760668325e+00 8.7825310628985882e+00 0 0 0
  271 1 1 -1.8616685699569391e+01 -7.2669541657956458e+00 7.8491004429887559e+00 0 0 0
  272 1 1 -1.8020264022360934e+01 -6.8740228720305616e+00 8.4169346312249615e+00 0 0 0
  273 1 1 -1.8223165079271503e+01 -6.2259701512231898e+00 7.6600687199956745e+00 0 0 0
  274 1 1 -1.8011900081607042e+01 -5.7816553049907018e+00 8.4783069540826883e+00 0 0 0
  275 1 1 -1.7210232371265231e+01 -6.1540129747966041e+00 8.0034056240166382e+00 0 0 0
  276 1 1 -1.7011638941003202e+01 -5.3572763265714478e+00 8.5813010853495282e+00 0 0 0
  277 1 1 -1.6198822534077582e+01 -5.7181100431100571e+00 8.2220095678772314e+00 0 0 0
  278 1 1 -1.6315203058178835e+01 -4.7515557089269480e+00 7.9381042514357318e+00 0 0 0
  279 1 1 -1.5928627480524309e+01 -5.2622069906700579e+00 7.1844263229160168e+00 0 0 0
  280 1 1 -1.5291757053629608e+01 -4.6009104446505305e+00 7.4689683478593878e+00 0 0 0
  281 1 1 -1.4997259236061648e+01 -5.0160226869075091e+00 6.7096689184816753e+00 0 0 0
  282 1 1 -1.4465383449889192e+01 -4.1781285371397106e+00 6.8295926229546620e+00 0 0 0
  283 1 1 -1.5264477604079525e+01 -4.1275488393697133e+00 6.2106702000094698e+00 0 0 0
  284 1 1 -1.4533074020101472e+01 -3.5509422019047805e+00 5.8943138612740134e+00 0 0 0
  285 1 1 -1.5099457982293705e+01 -3.2000105345138068e+00 6.6210043346340894e+00 0 0 0
  286 1 1 -1.4204347344044507e+01 -2.8320016077329178e+00 6.6984345818254010e+00 0 0 0
  287 1 1 -1.4799735953556455e+01 -2.1220629292548536e+00 7.1080726310973761e+00 0 0 0
  288 1 1 -1.4079498881841713e+01 -1.7211603536324356e+00 6.6054970440547045e+00 0 0 0
  289 1 1 -1.4398270686411690e+01 -1.1275142224070807e+00 7.3765635888556833e+00 0 0 0
  290 1 1 -1.3514623365974694e+01 -1.3866766497864598e+00 7.4487959854299897e+00 0 0 0
  291 1 1 -1.3924429857371335e+01 -1.2508327445679068e+00 8.3103659992559091e+00 0 0 0
  292 1 1 -1.3241316182082352e+01 -6.1532907466486531e-01 8.2685210999678116e+00 0 0 0
  293 1 1 -1.3318977651676301e+01 -7.4597714652749192e-01 9.2030409816011751e+00 0 0 0
  294 1 1 -1.3470239655048038e+01 1.3888235687898065e-01 8.9214150851467267e+00 0 0 0
  295 1 1 -1.3840287776127935e+01 2.6026573476875439e-02 9.8415315588431795e+00 0 0 0
  296 1 1 -1.4308230895902343e+01 6.8010273543751643e-01 9.3365412679038577e+00 0 0 0
  297 1 1 -1.4287229587032721e+01 9.3574555746417620e-01 1.0231063536562051e+01 0 0 0
  298 1 4 -1.4126865236117386e+01 1.7315672031603628e+00 9.7593119677169451e+00 0 0 0
  299 1 1 -1.3427897782372128e+01 1.5367268341498559e+00 1.0385924100467722e+01 0 0 0
  300 1 1 -1.3382546207323792e+01 2.4788179708869649e+00 1.0232075565978921e+01 0 0 0
  301 1 1 -1.2784704448616267e+01 1.9931848995058119e+00 9.6799417119623570e+00 0 0 0
  302 1 1 -1.2550899166414609e+01 2.9069529458581238e+00 9.6431980304055784e+00 0 0 0
  303 1 1 -1.1740335905856183e+01 2.5370295824892164e+00 9.8168994663252853e+00 0 0 0
  304 1 1 -1.1809830642920859e+01 2.5376233121750755e+00 8.8704034252231825e+00 0 0 0
  305 1 1 -1.1224984325316582e+01 3.2247535981967026e+00 9.2050013169585192e+00 0 0 0
  306 1 1 -1.0876372986711200e+01 2.9679930493825912e+00 8.3252046790703478e+00 0 0 0
  307 1 1 -1.0405548075975792e+01 3.7524934063239979e+00 8.6465073899039879e+00 0 0 0
  308 1 1 -1.0656352286040308e+01 3.9246704324009221e+00 7.7233164936121712e+00 0 0 0
  309 1 1 -9.7813541129311581e+00 4.2346789166977858e+00 7.9038122390825505e+00 0 0 0
  310 1 1 -9.7999488206584058e+00 3.8599939260431118e+00 7.0519010178376993e+00 0 0 0
  311 1 1 -8.8857424111018712e+00 4.1912312933904401e+00 7.2038773639268996e+00 0 0 0
  312 1 1 -8.9532740976929119e+00 3.2615121611114093e+00 6.8990829965353058e+00 0 0 0
  313 1 1 -9.1863690282994170e+00 3.7532183274388569e+00 6.1241545125683743e+00 0 0 0
  314 1 1 -8.3290449537256546e+00 3.2835184057363369e+00 6.1234290475236755e+00 0 0 0
  315 1 1 -8.5955296946575643e+00 3.3965817630098849e+00 5.2323961284325957e+00 0 0 0
  316 1 1 -7.6974510920283175e+00 3.5066106624863105e+00 5.3139878810508812e+00 0 0 0
  317 1 1 -7.7991108409779475e+00 3.0822664160818802e+00 4.4752322906192381e+00 0 0 0
  318 1 1 -7.1559849668688607e+00 3.7170954496367905e+00 4.2993253915843050e+00 0 0 0
  319 1 1 -7.4139666900718328e+00 3.1516717727568131e+00 3.4701406820425147e+00 0 0 0
  320 1 1 -6.6116718172620645e+00 3.7531880008078460e+00 3.3130007408153181e+00 0 0 0
  321 1 1 -7.3160879136208576e+00 3.8890768373270128e+00 2.6602222412006880e+00 0 0 0
  322 1 1 -7.3842003928304276e+00 4.5658602140874480e+00 3.4458297067093753e+00 0 0 0
  323 1 1 -6.6936188210819223e+00 4.7940023065279629e+00 2.8352714078525336e+00 0 0 0
  324 1 1 -6.8351554191945416e+00 5.4815434456075272e+00 3.5315845454291726e+00 0 0 0
  325 1 2 -7.4043613903331913e+00 5.6678631457068613e+00 2.7704527349923480e+00 0 0 0
  326 1 3 -6.8933870514592286e+00 6.4830838135274371e+00 2.9275959361276040e+00 0 0 0
  327 1 1 -7.6528951278996900e+00 6.5586631989195761e+00 3.5200445116728671e+00 0 0 0
  328 1 1 -7.1456176052631317e+00 7.4104179865350206e+00 3.4583847588755754e+00 0 0 0
  329 1 1 -7.8351904575786824e+00 7.2852117407860986e+00 2.7223353394285290e+00 0 0 0
  330 1 1 -7.0218507263536960e+00 7.6588590352660590e+00 2.3538500117129990e+00 0 0 0
  331 1 1 -7.6059596916152374e+00 8.3766316860278796e+00 2.5732608757192890e+00 0 0 0
  332 1 1 -6.7724294116595454e+00 8.7129121667032514e+00 2.7556812706908222e+00 0 0 0
  333 1 1 -7.0130556402847741e+00 8.9951618930928561e+00 1.8598253054931786e+00 0 0 0
  334 1 1 -6.0737508432237233e+00 8.5079964142190434e+00 1.8637738246550568e+00 0 0 0
  335 1 1 -5.9927796821839090e+00 9.3007693190775651e+00 2.3803310303248932e+00 0 0 0
  336 1 1 -5.3062229019909726e+00 8.6624177107135711e+00 2.5679679699849318e+00 0 0 0
  337 1 1 -4.9325616245090584e+00 9.4869142453434741e+00 2.2565630025295049e+00 0 0 0
  338 1 1 -4.2743886880645992e+00 8.7944276003478770e+00 2.4750577160812175e+00 0 0 0
  339 1 1 -4.4041673335296663e+00 8.8150091554015972e+00 1.5407196165428403e+00 0 0 0
  340 1 1 -3.7308515084034366e+00 9.4652825759762642e+00 1.7326726772266401e+00 0 0 0
  341 1 1 -3.6069460034654970e+00 9.0789537590825411e+00 8.1879923851330716e-01 0 0 0
  342 1 1 -3.0814727254550243e+00 9.8411845875932524e+00 8.9882661473503600e-01 0 0 0
  343 1 1 -3.8439071881103581e+00 1.0022933772954431e+01 2.9690875013863371e-01 0 0 0
  344 1 1 -3.0271498706359625e+00 1.0382617947301878e+01 -1.1897012416888944e-01 0 0 0
  345 1 1 -3.4495613328346475e+00 9.6602793199808872e+00 -6.1676707965979671e-01 0 0 0