LAMMPS data file via write_data, version 7 Dec 2015, timestep = 20000

10000 atoms
5 atom types
9399 bonds
3 bond types
4998 angles
1 angle types
2 extra bond per atom

-7.5000000000000000e+01 7.5000000000000000e+01 xlo xhi
-7.5000000000000000e+01 7.5000000000000000e+01 ylo yhi
-7.5000000000000000e+01 7.5000000000000000e+01 zlo zhi

Masses

1 1
2 1
3 1
4 1
5 1

Atoms

  1 1 1 -3.6399403729905777e+00 2.3779855848498705e+01 -9.6753984850651360e+00 0 0 0
  2 1 1 -3.3108884093005573e+00 2.3902770882971183e+01 -1.0560808472093763e+01 0 0 0
  3 1 1 -4.0449620931756289e+00 2.3241681110689203e+01 -1.0577540191921047e+01 0 0 0
  4 1 1 -3.2013498295589735e+00 2.2853814982931159e+01 -1.0590182444997776e+01 0 0 0
  5 1 1 -3.7508243706545037e+00 2.2318963877015399e+01 -1.1211311684578416e+01 0 0 0
  6 1 1 -2.8593428922375699e+00 2.2110352418842890e+01 -1.1347288856971675e+01 0 0 0
  7 1 1 -3.4531113071235136e+00 2.1347396920169913e+01 -1.1480029188601948e+01 0 0 0
  8 1 1 -3.0257704119553352e+00 2.1406159541207053e+01 -1.2245552972573044e+01 0 0 0
  9 1 2 -3.9259856670680597e+00 2.1613516900317471e+01 -1.2421078030158444e+01 0 0 0
  10 1 2 -3.3889631783882592e+00 2.1930564115294921e+01 -1.3130622743720402e+01 0 0 0
  11 1 1 -4.0063443545205040e+00 2.1245216749534855e+01 -1.3399379438720173e+01 0 0 0
  12 1 1 -3.0401426212812468e+00 2.0935674736159889e+01 -1.3428610087355372e+01 0 0 0
  13 1 2 -3.7416672914670404e+00 2.0314240895882811e+01 -1.3371858564564562e+01 0 0 0
  14 1 2 -2.9225053005973058e+00 1.9832102943832655e+01 -1.3404168099071258e+01 0 0 0
  15 1 2 -3.3782644558881039e+00 1.9979967782198717e+01 -1.4320385818775016e+01 0 0 0
  16 1 2 -2.4649192562470379e+00 2.0351370274142159e+01 -1.4319306243322590e+01 0 0 0
  17 1 2 -2.5278969969391785e+00 1.9394122861805599e+01 -1.4636915655478246e+01 0 0 0
  18 1 2 -1.6709737290772497e+00 1.9731567536267356e+01 -1.4506588632565737e+01 0 0 0
  19 1 2 -1.7152342833859315e+00 1.8740446817745173e+01 -1.4512938506203737e+01 0 0 0
  20 1 2 -9.7549707431075661e-01 1.9162021973883824e+01 -1.5015254257648371e+01 0 0 0
  21 1 2 -1.1296000064625125e+00 1.8202490275221820e+01 -1.5343897010149648e+01 0 0 0
  22 1 2 -2.9394270461581729e-01 1.8520878219854840e+01 -1.5662776359467770e+01 0 0 0
  23 1 2 -1.1985324174744337e-01 1.8028447840200915e+01 -1.4881421993186722e+01 0 0 0
  24 1 2 5.2311999386675620e-02 1.8931405745554457e+01 -1.4676461301895351e+01 0 0 0
  25 1 2 -4.3838371594565106e-01 1.8577251411684244e+01 -1.3949363291725044e+01 0 0 0
  26 1 1 3.0304092477146577e-01 1.9135949460574530e+01 -1.3653737505560008e+01 0 0 0
  27 1 2 -5.1345366143709847e-01 1.9308809470136445e+01 -1.3154119625890505e+01 0 0 0
  28 1 2 -5.8292217330829968e-02 1.8553938975292052e+01 -1.2737051997839743e+01 0 0 0
  29 1 1 4.3544257601835651e-01 1.9349774865092748e+01 -1.2577268839902006e+01 0 0 0
  30 1 1 5.0747727852256153e-01 1.8630900196272755e+01 -1.1911682406542155e+01 0 0 0
  31 1 1 4.9867765768920452e-01 1.9532213463935921e+01 -1.1516361604292809e+01 0 0 0
  32 1 1 1.1353884182787828e+00 1.8952042593627876e+01 -1.1006198091989258e+01 0 0 0
  33 1 1 7.2152729175266195e-01 1.9568988330491489e+01 -1.0442493176971061e+01 0 0 0
  34 1 1 6.7832497213466847e-01 1.8686403590745375e+01 -1.0066197971708698e+01 0 0 0
  35 1 1 9.8909401320760837e-01 1.9349114606412758e+01 -9.4786956811596035e+00 0 0 0
  36 1 1 6.5154644511577309e-01 1.8585612975236721e+01 -8.9955353079907354e+00 0 0 0
  37 1 2 9.3227801987846604e-01 1.9296945692018390e+01 -8.3864525064443463e+00 0 0 0
  38 1 1 5.5630907030964460e-01 1.8620166153136463e+01 -7.8801136218352310e+00 0 0 0
  39 1 1 -1.0325409481488246e-01 1.9005899279324620e+01 -8.4011558776011785e+00 0 0 0
  40 1 1 -4.0502084784912334e-01 1.8713683744181989e+01 -7.5397054627147906e+00 0 0 0
  41 1 2 -6.1359478759957353e-01 1.8038707871705292e+01 -8.3370982153934943e+00 0 0 0
  42 1 2 -1.1550370238391012e+00 1.7818843762019799e+01 -7.5662387674600344e+00 0 0 0
  43 1 1 -1.6045760142789269e+00 1.7372873893048258e+01 -8.2636280701917713e+00 0 0 0
  44 1 2 -1.1204469705144644e+00 1.6673874127739573e+01 -7.7908109578026528e+00 0 0 0
  45 1 2 -2.0581076414406527e+00 1.6354607698580800e+01 -7.9370480774882903e+00 0 0 0
  46 1 2 -1.3664295415050498e+00 1.5982788715210711e+01 -8.5296337564890550e+00 0 0 0
  47 1 2 -2.1580392977489509e+00 1.5669483957091584e+01 -8.8976793195188968e+00 0 0 0
  48 1 2 -1.4645687889967738e+00 1.5565442558105712e+01 -9.6022354898925091e+00 0 0 0
  49 1 2 -1.8097260272964399e+00 1.4722209933076204e+01 -9.2071198977342661e+00 0 0 0
  50 1 2 -2.0403978902683049e+00 1.4865137437231006e+01 -1.0098780407550001e+01 0 0 0
  51 1 2 -1.3176084132157238e+00 1.4256558794495941e+01 -1.0155315916533063e+01 0 0 0
  52 1 2 -1.3639288301863148e+00 1.4676763070742645e+01 -1.0996953137017933e+01 0 0 0
  53 1 1 -1.5678289669580905e+00 1.3740173352573224e+01 -1.1079783102814856e+01 0 0 0
  54 1 1 -1.0413319675805364e+00 1.4074585602567904e+01 -1.1879613446607413e+01 0 0 0
  55 1 2 -5.2966093800951142e-01 1.3323931126676618e+01 -1.1376085208386840e+01 0 0 0
  56 1 2 -8.3388915218159321e-01 1.3056554232971282e+01 -1.2230181103787652e+01 0 0 0
  57 1 2 -1.3743390526907224e+00 1.2537254630077500e+01 -1.1625363356797255e+01 0 0 0
  58 1 2 -1.3339329943681340e+00 1.2040384965346052e+01 -1.2436461465787445e+01 0 0 0
  59 1 2 -4.8972926604182776e-01 1.1885468859356765e+01 -1.1969877465032852e+01 0 0 0
  60 1 2 -4.7932381303599630e-01 1.1463292260357459e+01 -1.2861742713686624e+01 0 0 0
  61 1 2 2.7750044147216790e-01 1.1202600538459786e+01 -1.2207616954690369e+01 0 0 0
  62 1 2 4.3937542219774483e-03 1.0525258085361093e+01 -1.2921682984965772e+01 0 0 0
  63 1 2 1.0173525624795918e+00 1.0718940580960536e+01 -1.2862331726292760e+01 0 0 0
  64 1 1 9.2807549346408591e-01 9.8145638299765690e+00 -1.3029610335982696e+01 0 0 0
  65 1 1 1.0499185136417810e+00 1.0142301830318321e+01 -1.2006324872960331e+01 0 0 0
  66 1 1 1.5960285992967349e+00 9.4256436068285048e+00 -1.2292422517460803e+01 0 0 0
  67 1 1 1.3853571868411920e+00 9.2738786803203102e+00 -1.1365528296945724e+01 0 0 0
  68 1 1 2.3126551399719024e+00 9.5818011998062662e+00 -1.1470277486416629e+01 0 0 0
  69 1 1 1.9557856569958514e+00 9.7493269766701935e+00 -1.0618406659044174e+01 0 0 0
  70 1 1 2.0841788808963382e+00 8.7660511551186069e+00 -1.0704043266575997e+01 0 0 0
  71 1 2 2.1789593719196652e+00 9.0335385246577644e+00 -9.7906851885428399e+00 0 0 0
  72 1 1 2.1792849776547416e+00 8.0420854613641968e+00 -9.8115791935080452e+00 0 0 0
  73 1 1 2.4271853893332347e+00 8.2965717730748061e+00 -8.9402545537154907e+00 0 0 0
  74 1 1 3.1164234359496206e+00 7.8118225249004665e+00 -9.2169717706712611e+00 0 0 0
  75 1 1 2.9731644552945782e+00 7.4651634559752820e+00 -8.3415369420815733e+00 0 0 0
  76 1 1 3.9509302949971654e+00 7.4655344960838335e+00 -8.5700342219858729e+00 0 0 0
  77 1 1 3.7580647009339101e+00 7.4174168511494960e+00 -7.6113787692381631e+00 0 0 0
  78 1 1 4.0956533564703657e+00 8.2556332540538442e+00 -7.8476467288526726e+00 0 0 0
  79 1 2 3.2354091179421944e+00 8.3492913721107413e+00 -7.3589081229640660e+00 0 0 0
  80 1 3 3.4950233450760928e+00 9.0955872656990646e+00 -7.9810195924372982e+00 0 0 0
  81 1 2 2.7439530042894749e+00 9.3495762014168449e+00 -7.4428175796171514e+00 0 0 0
  82 1 2 3.4172198987778049e+00 1.0103900551981930e+01 -7.4063196004231173e+00 0 0 0
  83 1 2 2.6178421996032442e+00 1.0426823265102829e+01 -7.8110383970776045e+00 0 0 0
  84 1 1 3.3498853163479185e+00 1.1092218902115080e+01 -7.9735766123217759e+00 0 0 0
  85 1 2 2.5436128170348149e+00 1.1451735404844507e+01 -8.3176722467101865e+00 0 0 0
  86 1 2 2.4913701021679930e+00 1.1343663010215863e+01 -7.3448733551152490e+00 0 0 0
  87 1 2 1.9488566273311450e+00 1.2079731665433476e+01 -7.6237951716251873e+00 0 0 0
  88 1 2 1.4760469683221793e+00 1.1541366123999316e+01 -7.0016250451924700e+00 0 0 0
  89 1 2 1.0358598452032011e+00 1.2431369122529583e+01 -7.0881305853404362e+00 0 0 0
  90 1 2 4.6323654873826148e-01 1.1823186885556559e+01 -6.6286659307539342e+00 0 0 0
  91 1 2 6.0631509470388323e-01 1.2571104906519301e+01 -6.0724283798881569e+00 0 0 0
  92 1 2 3.0588526967323215e-01 1.1763591818301057e+01 -5.5706377474520838e+00 0 0 0
  93 1 2 -4.9305104489371310e-01 1.2192737390062479e+01 -5.7879734504602585e+00 0 0 0
  94 1 2 -2.9332417571931679e-01 1.2374385458693656e+01 -4.8299411724924042e+00 0 0 0
  95 1 1 3.8279355195228459e-02 1.3061338665411819e+01 -5.3923618096649379e+00 0 0 0
  96 1 1 -9.3139022772453828e-01 1.3040281871613367e+01 -5.2944622802905243e+00 0 0 0
  97 1 2 -6.6896569338242406e-01 1.3916230702608704e+01 -5.5894903540252949e+00 0 0 0
  98 1 2 -1.5714871206143484e+00 1.3923850985965972e+01 -5.4254207517970672e+00 0 0 0
  99 1 2 -1.4131524285137627e+00 1.4580159798656279e+01 -6.0516682850464809e+00 0 0 0
  100 1 2 -1.7560318358586644e+00 1.4940093825387772e+01 -5.2246369927622789e+00 0 0 0
  101 1 2 -9.3471200610342908e-01 1.5425915888317562e+01 -5.4635513365736612e+00 0 0 0
  102 1 2 -1.0000558678354365e+00 1.5441422563735388e+01 -4.5057210108015120e+00 0 0 0
  103 1 2 -3.8483172130186810e-01 1.6112609225595921e+01 -4.8766735679465132e+00 0 0 0
  104 1 2 -5.0999631257191735e-01 1.6236165053776801e+01 -3.8466875950169723e+00 0 0 0
  105 1 2 3.2857606534069733e-01 1.5843654537216938e+01 -4.0621540889531182e+00 0 0 0
  106 1 2 4.5178347323380597e-01 1.6714038196582134e+01 -3.4872728180152479e+00 0 0 0
  107 1 1 8.8032363007603143e-01 1.6837094563079560e+01 -4.3096206856603585e+00 0 0 0
  108 1 2 5.9780711094535344e-01 1.7659350908065964e+01 -3.9360009592467797e+00 0 0 0
  109 1 1 4.2844323263287926e-01 1.7720816977191738e+01 -4.8698914471194286e+00 0 0 0
  110 1 1 3.4306256869757751e-01 1.8540724600245511e+01 -4.4061247565323498e+00 0 0 0
  111 1 2 -5.4127891400113781e-01 1.8330687687132226e+01 -4.7598898201974800e+00 0 0 0
  112 1 2 -2.7323116697894512e-01 1.9115745855717577e+01 -5.1702938300478083e+00 0 0 0
  113 1 2 -1.1100895853111796e+00 1.9241347102733950e+01 -4.6911255989905536e+00 0 0 0
  114 1 2 -1.0302782506124257e+00 2.0073323223507344e+01 -5.1184108206864281e+00 0 0 0
  115 1 2 -1.9213926030207829e+00 1.9707187089508487e+01 -5.2560717718155727e+00 0 0 0
  116 1 2 -1.6818596031635291e+00 2.0498116765641136e+01 -5.9373790019703625e+00 0 0 0
  117 1 2 -1.7838165416017331e+00 1.9613260880762347e+01 -6.3174854892926708e+00 0 0 0
  118 1 2 -1.5789774724307137e+00 2.0227472516678979e+01 -6.9985793490804546e+00 0 0 0
  119 1 2 -2.1964780977447669e+00 1.9602223469554225e+01 -7.4064149426601169e+00 0 0 0
  120 1 2 -2.6714951319074642e+00 2.0000052938932328e+01 -6.6537797447842948e+00 0 0 0
  121 1 2 -3.1561299624213901e+00 1.9342996183683336e+01 -7.1252677111081635e+00 0 0 0
  122 1 2 -2.7012844172023120e+00 1.8949095680972345e+01 -6.3549893493436080e+00 0 0 0
  123 1 2 -3.6055710030237913e+00 1.9028555430387378e+01 -6.1265472416134363e+00 0 0 0
  124 1 2 -3.3217990358621079e+00 1.8053030879790853e+01 -6.1704697276238338e+00 0 0 0
  125 1 2 -4.2988757677306850e+00 1.8113630775560743e+01 -5.9890623951243693e+00 0 0 0
  126 1 3 -3.8000439957553063e+00 1.7951496411129362e+01 -5.1105164496609570e+00 0 0 0
  127 1 2 -4.2879107323115706e+00 1.7194783245136382e+01 -5.3643811124803396e+00 0 0 0
  128 1 2 -4.8804537186142500e+00 1.7962757871687426e+01 -5.1480124715172355e+00 0 0 0
  129 1 2 -5.4494299647354891e+00 1.7215770773010547e+01 -5.2324933668158575e+00 0 0 0
  130 1 2 -5.6211772337146630e+00 1.7470831694699811e+01 -4.3459734683990936e+00 0 0 0
  131 1 2 -6.4109673303962165e+00 1.7220126887056921e+01 -4.7725227485086226e+00 0 0 0
  132 1 2 -6.4310881689394437e+00 1.6684710708176922e+01 -3.9793960262785908e+00 0 0 0
  133 1 1 -7.3226916729581308e+00 1.6908064708121042e+01 -4.1575773470389716e+00 0 0 0
  134 1 2 -7.3519484052499458e+00 1.6811923953512458e+01 -3.1902565615048517e+00 0 0 0
  135 1 2 -7.8779336025192652e+00 1.7553829587266968e+01 -3.5788869485423285e+00 0 0 0
  136 1 2 -8.3121302650518221e+00 1.7109255919354787e+01 -2.9035694573875563e+00 0 0 0
  137 1 2 -7.8229442872915351e+00 1.7795241225688766e+01 -2.4621001623111045e+00 0 0 0
  138 1 2 -8.3496822133945567e+00 1.7416749820973656e+01 -1.7656717123402503e+00 0 0 0
  139 1 2 -7.4469310611433599e+00 1.7180274178464288e+01 -1.6866954234850229e+00 0 0 0
  140 1 2 -7.6453571282427637e+00 1.8020165712102681e+01 -1.1873016258376654e+00 0 0 0
  141 1 2 -7.8786521313220792e+00 1.7322817597228390e+01 -6.4369850406624873e-01 0 0 0
  142 1 2 -8.1508659991762986e+00 1.8082728443995915e+01 -2.0196887929111029e-01 0 0 0
  143 1 2 -7.8263249743133203e+00 1.7437872573009695e+01 4.1401096930746728e-01 0 0 0
  144 1 2 -8.5935385322782842e+00 1.7794383508427352e+01 6.5706747638090046e-01 0 0 0
  145 1 2 -8.5338774822428025e+00 1.6958661479555172e+01 1.1237655064934022e+00 0 0 0
  146 1 2 -8.6953396948032999e+00 1.7697964673995607e+01 1.7871057676043760e+00 0 0 0
  147 1 2 -9.0056465235984948e+00 1.6898201716569510e+01 2.1737955971501215e+00 0 0 0
  148 1 3 -9.6908392304914095e+00 1.7546409510384123e+01 2.2950748532798397e+00 0 0 0
  149 1 2 -9.8569635096351202e+00 1.6838674258969590e+01 1.6216310079404723e+00 0 0 0
  150 1 2 -1.0073925727460413e+01 1.6544319825186768e+01 2.4809624109271580e+00 0 0 0
  151 1 2 -1.0881143201995465e+01 1.6664597743603483e+01 1.9726838647578362e+00 0 0 0
  152 1 2 -1.0939987930975100e+01 1.5862707819278084e+01 2.5203933122845177e+00 0 0 0
  153 1 2 -1.1093866835873065e+01 1.6646896074255068e+01 3.0040707619615357e+00 0 0 0
  154 1 2 -1.1809508380298167e+01 1.5984739228377341e+01 3.1698768765378209e+00 0 0 0
  155 1 2 -1.2132875105267514e+01 1.6427400957380968e+01 2.4213863281200037e+00 0 0 0
  156 1 2 -1.2917587039021276e+01 1.5964890732152965e+01 2.7671018360478765e+00 0 0 0
  157 1 2 -1.2854910434367614e+01 1.6821749599998814e+01 3.1081603055537643e+00 0 0 0
  158 1 2 -1.3204543520063321e+01 1.6248751714955567e+01 3.7661074758705131e+00 0 0 0
  159 1 2 -1.3879069566825608e+01 1.6335836307065907e+01 3.0578509912222551e+00 0 0 0
  160 1 2 -1.4334189021676981e+01 1.5816826553866992e+01 3.7651432288389870e+00 0 0 0
  161 1 2 -1.4927693794604265e+01 1.6079166081720079e+01 3.0756667626746803e+00 0 0 0
  162 1 2 -1.5013845603089846e+01 1.5135269537523044e+01 3.2525483326437654e+00 0 0 0
  163 1 2 -1.5697545432856554e+01 1.5653933299896266e+01 3.6457675339359512e+00 0 0 0
  164 1 2 -1.5907169617243619e+01 1.4746227006977785e+01 3.6741730406156821e+00 0 0 0
  165 1 2 -1.6694634814087024e+01 1.5289335607182155e+01 3.6473381915271621e+00 0 0 0
  166 1 2 -1.6806558855779482e+01 1.4513594173461760e+01 3.1005776928397379e+00 0 0 0
  167 1 2 -1.7355538568342038e+01 1.4617618335475258e+01 3.9058082672620094e+00 0 0 0
  168 1 2 -1.7758083903732356e+01 1.3990377893308663e+01 3.3667077012518334e+00 0 0 0
  169 1 2 -1.8389281436521554e+01 1.4380331660277125e+01 4.1321103384619153e+00 0 0 0
  170 1 2 -1.7860040469925636e+01 1.3640855375285962e+01 4.4052153703741457e+00 0 0 0
  171 1 2 -1.8833512094880980e+01 1.3492385070348112e+01 4.5908684121724512e+00 0 0 0
  172 1 2 -1.8269929097403708e+01 1.2740344736279548e+01 4.8565380510752272e+00 0 0 0
  173 1 2 -1.8338452668561562e+01 1.3398106064491582e+01 5.5617951785536413e+00 0 0 0
  174 1 2 -1.8218215832154645e+01 1.2467519166084184e+01 5.9248357961943450e+00 0 0 0
  175 1 2 -1.8906975087209712e+01 1.2878723177871517e+01 6.4648201065278803e+00 0 0 0
  176 1 2 -1.9076603997608242e+01 1.1883405944087094e+01 6.3599398802643474e+00 0 0 0
  177 1 2 -1.8855018620534466e+01 1.2236732808557255e+01 7.2875899008002909e+00 0 0 0
  178 1 3 -1.8417202151380852e+01 1.1440593963158555e+01 7.0814583139147347e+00 0 0 0
  179 1 2 -1.7788730232016697e+01 1.2058897399036345e+01 7.4925119405612142e+00 0 0 0
  180 1 2 -1.8416596313545831e+01 1.1844350918311205e+01 8.1769453062716462e+00 0 0 0
  181 1 2 -1.7562265977977809e+01 1.2042861160215949e+01 8.4855329005461293e+00 0 0 0
  182 1 2 -1.7551226763600560e+01 1.1086323846116610e+01 8.2783679807286994e+00 0 0 0
  183 1 2 -1.7004327409748328e+01 1.1205942341463482e+01 8.9988178546543640e+00 0 0 0
  184 1 2 -1.7199603956147040e+01 1.0290835167714468e+01 8.8513923133825045e+00 0 0 0
  185 1 2 -1.7705627197651143e+01 1.0665461649834254e+01 9.5984886772991143e+00 0 0 0
  186 1 2 -1.8070372619906554e+01 9.8022186571268541e+00 9.3716805761820954e+00 0 0 0
  187 1 2 -1.8499431555585964e+01 1.0447189461529435e+01 8.7478288453559401e+00 0 0 0
  188 1 2 -1.9063827475591481e+01 9.7868893972325353e+00 9.1904211633421085e+00 0 0 0
  189 1 3 -1.9190901902334041e+01 1.0603099356640961e+01 9.6469730153087720e+00 0 0 0
  190 1 2 -1.9559622959465170e+01 9.8681612116769895e+00 1.0158572547116309e+01 0 0 0
  191 1 1 -1.9745760047716406e+01 1.0762394584373851e+01 1.0523094404185665e+01 0 0 0
  192 1 1 -2.0517755308803860e+01 1.0246843070541328e+01 1.0600899679630107e+01 0 0 0
  193 1 1 -2.0368189716650384e+01 1.0752124511135760e+01 1.1442056203682091e+01 0 0 0
  194 1 1 -1.9767469714231503e+01 1.0029303607751165e+01 1.1424894544381520e+01 0 0 0
  195 1 1 -2.0123303291531968e+01 1.0272735917226690e+01 1.2304748784768870e+01 0 0 0
  196 1 1 -1.9326658465479685e+01 1.0813612241671740e+01 1.2171691722608562e+01 0 0 0
  197 1 1 -1.9037391587322560e+01 9.9116166711628821e+00 1.2418406440652998e+01 0 0 0
  198 1 1 -1.8253399041277156e+01 1.0571346395802205e+01 1.2349793739809408e+01 0 0 0
  199 1 1 -1.8004783108826043e+01 9.6585985394253875e+00 1.2368108125407376e+01 0 0 0
  200 1 1 -1.7593649207140498e+01 1.0140654798817121e+01 1.3117166787815766e+01 0 0 0
  201 1 1 -1.7162178519090428e+01 1.0369983705325303e+01 1.2281314660781806e+01 0 0 0
  202 1 1 -1.6833580710381678e+01 9.4955133382407357e+00 1.2591333869675653e+01 0 0 0
  203 1 1 -1.6027345320366713e+01 1.0099276682088655e+01 1.2222580714857781e+01 0 0 0
  204 1 1 -1.6166769920775369e+01 1.0187524699549877e+01 1.3146589346491666e+01 0 0 0
  205 1 1 -1.5174069122833412e+01 1.0270213719976892e+01 1.3052173082771132e+01 0 0 0
  206 1 1 -1.5363228606976197e+01 9.7045110228342413e+00 1.3754138239994985e+01 0 0 0
  207 1 1 -1.5158341824028028e+01 9.1518488494345522e+00 1.3048674381296298e+01 0 0 0
  208 1 1 -1.5996047563571942e+01 8.8453419397310853e+00 1.3425217796742224e+01 0 0 0
  209 1 1 -1.5405248891066266e+01 8.0797769242215001e+00 1.3262141705616658e+01 0 0 0
  210 1 1 -1.5684672327242041e+01 8.0498321925609044e+00 1.4172061708240186e+01 0 0 0
  211 1 1 -1.4735123257202618e+01 8.1582822273903925e+00 1.4044349138267489e+01 0 0 0
  212 1 1 -1.5124079917030793e+01 8.7433694100182855e+00 1.4680529970411508e+01 0 0 0
  213 1 1 -1.4175375530930191e+01 9.0393561532150830e+00 1.4509813379493940e+01 0 0 0
  214 1 1 -1.4414357017307482e+01 9.2208243005281556e+00 1.5438853259970900e+01 0 0 0
  215 1 1 -1.3721254892643874e+01 9.8056382691361144e+00 1.5104778396304773e+01 0 0 0
  216 1 1 -1.4506916313195687e+01 1.0189785315574566e+01 1.4920115464818025e+01 0 0 0
  217 1 1 -1.3776375330028213e+01 1.0788066045199702e+01 1.4748327356370988e+01 0 0 0
  218 1 1 -1.3898804744554248e+01 1.0903909646506211e+01 1.5645404395975705e+01 0 0 0
  219 1 1 -1.3870929319751673e+01 1.1790924528002989e+01 1.5324946898944370e+01 0 0 0
  220 1 1 -1.4682759918437092e+01 1.1646950044502272e+01 1.5849427976452498e+01 0 0 0
  221 1 1 -1.4115934052947157e+01 1.2083290168239111e+01 1.6450345569773731e+01 0 0 0
  222 1 1 -1.4989134865679002e+01 1.2447054416366614e+01 1.6584828666339952e+01 0 0 0
  223 1 1 -1.4414795507013464e+01 1.2627748387126971e+01 1.7390364257835202e+01 0 0 0
  224 1 1 -1.5058569069637334e+01 1.1925196293642680e+01 1.7642520488669199e+01 0 0 0
  225 1 1 -1.4696996653017171e+01 1.2344192217959682e+01 1.8476021099088356e+01 0 0 0
  226 1 1 -1.4905173454433086e+01 1.1413267101262816e+01 1.8572317182839527e+01 0 0 0
  227 1 1 -1.3957707290981331e+01 1.1468598852345650e+01 1.8585844596433866e+01 0 0 0
  228 1 1 -1.4145683919456662e+01 1.1277031614262915e+01 1.9493737571502248e+01 0 0 0
  229 1 1 -1.3214504798540810e+01 1.1612584277551477e+01 1.9428229894725469e+01 0 0 0
  230 1 1 -1.3102257786107783e+01 1.0714405487978516e+01 1.9136291527542408e+01 0 0 0
  231 1 1 -1.2266882636568297e+01 1.1241945115041860e+01 1.9177927495488259e+01 0 0 0
  232 1 1 -1.2043082397287115e+01 1.0443393444098900e+01 1.8694347968436741e+01 0 0 0
  233 1 1 -1.2304948136733032e+01 1.0097886203203158e+01 1.9510491767469134e+01 0 0 0
  234 1 1 -1.1552603868142853e+01 9.5623514993735554e+00 1.9371133114698281e+01 0 0 0
  235 1 1 -1.2412190645291616e+01 9.0702800105182355e+00 1.9461978457174620e+01 0 0 0
  236 1 1 -1.1656762093302920e+01 8.5677721495725390e+00 1.9791034203564205e+01 0 0 0
  237 1 1 -1.2037552061769533e+01 8.2648768386710909e+00 1.8922719073686206e+01 0 0 0
  238 1 1 -1.1884685842950326e+01 7.4448678782653133e+00 1.9432348979692897e+01 0 0 0
  239 1 1 -1.2145955628367101e+01 7.1453666524836805e+00 1.8531345886482878e+01 0 0 0
  240 1 1 -1.1273951990381095e+01 6.8861486572032957e+00 1.8715680281446584e+01 0 0 0
  241 1 1 -1.1560717068835439e+01 6.3319237624564098e+00 1.7994733392534400e+01 0 0 0
  242 1 1 -1.1960872784657392e+01 6.0070646189564636e+00 1.8862067518850388e+01 0 0 0
  243 1 1 -1.2684725998893029e+01 6.1785886420315190e+00 1.8185161425536300e+01 0 0 0
  244 1 1 -1.2153725330076313e+01 5.4014395393131291e+00 1.8080174862316504e+01 0 0 0
  245 1 1 -1.2769993578536825e+01 5.3686258259569399e+00 1.7431786179298481e+01 0 0 0
  246 1 1 -1.2056112949588062e+01 5.8018372294831924e+00 1.6990132063585108e+01 0 0 0
  247 1 1 -1.2681138510150511e+01 5.4691411108884145e+00 1.6334343374081346e+01 0 0 0
  248 1 1 -1.3012803331955661e+01 6.1969855988463003e+00 1.6881504684577930e+01 0 0 0
  249 1 1 -1.3781285108314950e+01 5.7690917391939118e+00 1.6515323506228196e+01 0 0 0
  250 1 1 -1.3804309459114975e+01 6.6867975739227434e+00 1.6336210218011413e+01 0 0 0
  251 1 1 -1.3929321160136892e+01 6.1818523287177003e+00 1.5530999627458087e+01 0 0 0
  252 1 1 -1.3001303430948866e+01 6.3303860836884960e+00 1.5489504517661389e+01 0 0 0
  253 1 1 -1.3380856817250313e+01 7.1215313200810462e+00 1.5194852203224119e+01 0 0 0
  254 1 1 -1.2885890263450507e+01 6.8234961973150794e+00 1.4424667736665119e+01 0 0 0
  255 1 1 -1.3247520793483977e+01 7.7378239744362212e+00 1.4220246176532701e+01 0 0 0
  256 1 1 -1.3157657593846617e+01 7.2177460105286144e+00 1.3401629993785107e+01 0 0 0
  257 1 1 -1.3130722608214011e+01 8.1749711148330029e+00 1.3237513196822260e+01 0 0 0
  258 1 1 -1.2629396049147889e+01 7.7227010713220903e+00 1.2494464561756928e+01 0 0 0
  259 1 1 -1.2396733992145061e+01 8.6719393720470759e+00 1.2706830270076257e+01 0 0 0
  260 1 1 -1.1586363132402440e+01 8.1413102585146468e+00 1.2716285049710914e+01 0 0 0
  261 1 1 -1.1984803417482253e+01 8.0021258609204544e+00 1.3604169302763983e+01 0 0 0
  262 1 1 -1.1131419921042127e+01 8.4112626123954950e+00 1.3693117625640973e+01 0 0 0
  263 1 1 -1.1837539679111091e+01 9.0345868073723281e+00 1.3954849686983145e+01 0 0 0
  264 1 1 -1.1118422602638343e+01 9.0450636017520285e+00 1.4577360564505746e+01 0 0 0
  265 1 1 -1.0843674652319550e+01 9.5909032437843607e+00 1.3806881897024295e+01 0 0 0
  266 1 1 -1.0370525723986505e+01 9.9329696669916956e+00 1.4572889861465786e+01 0 0 0
  267 1 1 -1.0648952294678120e+01 1.0607475785808198e+01 1.3928200850804574e+01 0 0 0
  268 1 1 -9.7183694589438936e+00 1.0478540180128775e+01 1.3996627847988680e+01 0 0 0
  269 1 1 -9.9299377375082756e+00 1.1100066901888539e+01 1.3261943152569367e+01 0 0 0
  270 1 1 -9.1139686131061008e+00 1.1373409076347853e+01 1.3632140044525878e+01 0 0 0
  271 1 1 -9.4518572434260388e+00 1.2127267149291532e+01 1.3068846315349980e+01 0 0 0
  272 1 1 -8.5971338833027744e+00 1.2340635857098643e+01 1.3494126974979185e+01 0 0 0
  273 1 1 -9.2417767722004278e+00 1.2980025295215283e+01 1.3765788664257174e+01 0 0 0
  274 1 1 -8.9661073318086721e+00 1.3202489311902230e+01 1.2890206102856048e+01 0 0 0
  275 1 1 -8.7871962593944257e+00 1.3934186171668339e+01 1.3496207609994839e+01 0 0 0
  276 1 1 -8.1497229094763419e+00 1.3862569090662337e+01 1.2714838254345807e+01 0 0 0
  277 1 1 -7.7889525414525655e+00 1.4335556198352432e+01 1.3526935861757863e+01 0 0 0
  278 1 1 -7.9100697015882648e+00 1.4964226325965384e+01 1.2756705444229206e+01 0 0 0
  279 1 1 -7.0485047235439522e+00 1.4717963232782456e+01 1.2852744726668895e+01 0 0 0
  280 1 1 -7.0779674267816164e+00 1.5699704904955778e+01 1.2801145641624297e+01 0 0 0
  281 1 1 -7.1359057832878952e+00 1.5400619895094977e+01 1.3720960090884706e+01 0 0 0
  282 1 1 -6.6631375981562879e+00 1.6240875468990080e+01 1.3761998682873751e+01 0 0 0
  283 1 1 -7.6042877239763689e+00 1.6362547748039606e+01 1.3533257191337450e+01 0 0 0
  284 1 1 -7.2467109082655234e+00 1.7211841677464296e+01 1.3968204976840024e+01 0 0 0
  285 1 1 -8.0422568798178204e+00 1.6832240332834218e+01 1.4474853692049777e+01 0 0 0
  286 1 1 -7.8253028661716737e+00 1.7658120742443845e+01 1.4779579439526261e+01 0 0 0
  287 1 1 -8.7285538826070699e+00 1.7678839115177638e+01 1.4440262029609929e+01 0 0 0
  288 1 1 -8.6463005604877203e+00 1.7645325061981676e+01 1.5418879520514409e+01 0 0 0
  289 1 1 -9.5726760243711997e+00 1.7756036128276879e+01 1.5123014153408626e+01 0 0 0
  290 1 1 -9.5838273593707104e+00 1.7349915241996854e+01 1.5953615728208820e+01 0 0 0
  291 1 1 -9.7540475419494364e+00 1.8310375974338324e+01 1.6035754765131461e+01 0 0 0
  292 1 1 -9.3551179349405214e+00 1.7940012603026130e+01 1.6843294586900452e+01 0 0 0
  293 1 1 -9.1419483664654582e+00 1.8888510434950692e+01 1.6726042516690388e+01 0 0 0
  294 1 1 -1.0134185634479943e+01 1.8744039759858325e+01 1.6965289515535595e+01 0 0 0
  295 1 1 -9.8210997026207210e+00 1.9613510071904880e+01 1.7225073182144946e+01 0 0 0
  296 1 1 -1.0634644398605822e+01 1.9761950874809475e+01 1.6578352998434905e+01 0 0 0
  297 1 1 -9.8992210290468190e+00 2.0423459927803176e+01 1.6479992721123669e+01 0 0 0
  298 1 4 -1.0439502726417015e+01 2.0411076204984514e+01 1.5682172074589175e+01 0 0 0
  299 1 1 -1.0789946193490643e+01 2.0930760273467698e+01 1.6386610715010764e+01 0 0 0
  300 1 1 -1.1535986958891950e+01 2.0478250472073057e+01 1.6042913452598292e+01 0 0 0
  301 1 1 -1.1844077165083881e+01 2.1286577672847230e+01 1.6370282674382985e+01 0 0 0
  302 1 1 -1.1793177610034791e+01 2.1313304393596209e+01 1.5455027061980417e+01 0 0 0
  303 1 1 -1.0995729858025644e+01 2.1667205343095468e+01 1.5693268651399880e+01 0 0 0
  304 1 1 -1.1298279592105120e+01 2.2058237505457850e+01 1.4747602774636693e+01 0 0 0
  305 1 1 -1.0602673756808283e+01 2.2553993469381684e+01 1.5130121342283786e+01 0 0 0
  306 1 1 -1.0637133781735661e+01 2.2803059271847690e+01 1.4142633614781140e+01 0 0 0
  307 1 1 -1.0229157930362446e+01 2.3545571204235433e+01 1.4737175946790435e+01 0 0 0
  308 1 1 -9.9467612586590288e+00 2.3558374959385887e+01 1.3852292812612532e+01 0 0 0
  309 1 1 -9.1207698970123303e+00 2.3234593301485120e+01 1.4351378748714621e+01 0 0 0
  310 1 1 -9.1138217204876355e+00 2.4241492245631061e+01 1.4269654903255615e+01 0 0 0
  311 1 1 -8.3730355347614704e+00 2.3942654830485939e+01 1.3801188044209978e+01 0 0 0
  312 1 1 -8.7149437991628620e+00 2.4684263022567205e+01 1.3301479963776474e+01 0 0 0
  313 1 1 -8.4961576416126174e+00 2.4092636164602382e+01 1.2586744850062471e+01 0 0 0
  314 1 1 -8.0586535631287344e+00 2.4946012538796985e+01 1.2445095882276219e+01 0 0 0
  315 1 1 -8.9957053338925679e+00 2.5008447046270373e+01 1.2222375781779554e+01 0 0 0
  316 1 1 -8.5182509312213792e+00 2.5878620165804737e+01 1.2162186603572822e+01 0 0 0
  317 1 1 -8.3656415510199356e+00 2.5495240881340205e+01 1.1377035781435609e+01 0 0 0
  318 1 1 -7.5195277143697412e+00 2.5642635049171925e+01 1.1766126536533889e+01 0 0 0
  319 1 1 -7.4368347134060144e+00 2.5392348790603506e+01 1.0862898268490609e+01 0 0 0
  320 1 1 -6.6985653798156264e+00 2.5899739472990788e+01 1.1146767260205918e+01 0 0 0
  321 1 1 -6.4194976196939821e+00 2.5357706417987529e+01 1.0389276585080784e+01 0 0 0
  322 1 1 -5.6489941676023401e+00 2.5660449262714177e+01 1.0955959897362080e+01 0 0 0
  323 1 1 -5.7091591827646928e+00 2.6032382762731746e+01 1.0079518723454184e+01 0 0 0
  324 1 1 -4.9244605929354046e+00 2.5554096806862276e+01 1.0122035655421170e+01 0 0 0
  325 1 2 -4.9328498725373944e+00 2.5961515419466625e+01 9.2799036768631442e+00 0 0 0
  326 1 3 -4.0265981235680144e+00 2.5692183201283889e+01 9.5516119433781039e+00 0 0 0
  327 1 1 -4.4108008519082080e+00 2.5349353738982355e+01 8.6432468877008830e+00 0 0 0
  328 1 1 -3.7570260398705346e+00 2.6084649379349234e+01 8.5676756666786407e+00 0 0 0
  329 1 1 -3.3990786013298306e+00 2.5377900067687396e+01 8.0637817937944618e+00 0 0 0
  330 1 1 -3.7689707021881098e+00 2.6011278747873465e+01 7.4681058368811319e+00 0 0 0
  331 1 1 -2.8944320156691070e+00 2.5781460656292765e+01 7.1021915004813509e+00 0 0 0
  332 1 1 -3.5705452658971777e+00 2.5372042294944031e+01 6.5695587617685032e+00 0 0 0
  333 1 1 -2.9076306339457529e+00 2.5833903638100068e+01 6.0501883405480053e+00 0 0 0
  334 1 1 -3.1968441626659025e+00 2.5094377349894483e+01 5.5638972057595968e+00 0 0 0
  335 1 1 -3.4286027771240337e+00 2.5950996811826009e+01 5.1160970504780083e+00 0 0 0
  336 1 1 -3.3184040154812275e+00 2.5188471003737483e+01 4.4648669490362130e+00 0 0 0
  337 1 1 -2.7097822635091879e+00 2.5936122588825658e+01 4.2332814399646583e+00 0 0 0
  338 1 1 -3.3144901373327378e+00 2.5958533195722900e+01 3.5360480076073895e+00 0 0 0
  339 1 1 -2.4146605272103305e+00 2.5896120898065732e+01 3.1670037851077013e+00 0 0 0
  340 1 1 -2.9290367688972134e+00 2.5133052552131513e+01 3.1375408615396956e+00 0 0 0
  341 1 1 -3.1120906827725325e+00 2.5609317229918851e+01 2.3293410593793449e+00 0 0 0
  342 1 1 -2.5822399162063387e+00 2.4816288656513677e+01 2.1410180657061071e+00 0 0 0
  343 1 1 -2.8616822807763658e+00 2.5092278326826019e+01 1.2721347158710572e+00 0 0 0
  344 1 1 -2.2493847963786577e+00 2.4322630158798010e+01 1.1638205192845228e+00 0 0 0