LAMMPS data file via write_data, version 7 Dec 2015, timestep = 20000

10000 atoms
5 atom types
9399 bonds
3 bond types
4998 angles
1 angle types
2 extra bond per atom

-7.5000000000000000e+01 7.5000000000000000e+01 xlo xhi
-7.5000000000000000e+01 7.5000000000000000e+01 ylo yhi
-7.5000000000000000e+01 7.5000000000000000e+01 zlo zhi

Masses

1 1
2 1
3 1
4 1
5 1

Atoms

  1 1 1 -3.1643220592095304e+01 -2.5538546039154429e+01 -1.4025473780049230e+01 0 0 0
  2 1 1 -3.1344072179676530e+01 -2.6167402495655072e+01 -1.4607638907061661e+01 0 0 0
  3 1 1 -3.2289984572223908e+01 -2.5974237055885919e+01 -1.4791811390811269e+01 0 0 0
  4 1 1 -3.2084471602539196e+01 -2.6897142815299215e+01 -1.4918137633854588e+01 0 0 0
  5 1 1 -3.2007470098909110e+01 -2.6769071045828042e+01 -1.4010321866081650e+01 0 0 0
  6 1 1 -3.2447210025339558e+01 -2.7592984932032795e+01 -1.4180614228315843e+01 0 0 0
  7 1 1 -3.2693206658997191e+01 -2.7183119985553439e+01 -1.3358446574083443e+01 0 0 0
  8 1 1 -3.2466992777752303e+01 -2.8027501355464796e+01 -1.3066462371910507e+01 0 0 0
  9 1 2 -3.3417147689257504e+01 -2.7951707086267959e+01 -1.3259121251982311e+01 0 0 0
  10 1 2 -3.3274868141526220e+01 -2.8748944064426492e+01 -1.2716950396407102e+01 0 0 0
  11 1 1 -3.3912941078316052e+01 -2.8866445579080757e+01 -1.3585294530898054e+01 0 0 0
  12 1 1 -3.3556841573861632e+01 -2.9730759314907122e+01 -1.3232213596308259e+01 0 0 0
  13 1 2 -3.3390908525588024e+01 -2.9621379701555540e+01 -1.4145021879327627e+01 0 0 0
  14 1 2 -3.4296534831638425e+01 -2.9829341497535214e+01 -1.4089716277662577e+01 0 0 0
  15 1 2 -3.3891894996088176e+01 -2.9866903129299715e+01 -1.5017498563001286e+01 0 0 0
  16 1 2 -3.4279278549585683e+01 -2.9043118885248905e+01 -1.4874140560981131e+01 0 0 0
  17 1 2 -3.3998205102130129e+01 -2.9095201433785270e+01 -1.5825225859302641e+01 0 0 0
  18 1 2 -3.4953738443324887e+01 -2.9153749292240487e+01 -1.5721678255056560e+01 0 0 0
  19 1 2 -3.4632978913948129e+01 -2.8235531656377074e+01 -1.5620771812795988e+01 0 0 0
  20 1 2 -3.5628184149483090e+01 -2.8248124670006071e+01 -1.5581085775788495e+01 0 0 0
  21 1 2 -3.5324893980238393e+01 -2.7399336681435379e+01 -1.5880390389748163e+01 0 0 0
  22 1 2 -3.5863816771059284e+01 -2.7294098921398621e+01 -1.5076783090339420e+01 0 0 0
  23 1 2 -3.4910719317816621e+01 -2.7114898966273131e+01 -1.4817531209501704e+01 0 0 0
  24 1 2 -3.5476093343995863e+01 -2.6370708856102219e+01 -1.5017100818408554e+01 0 0 0
  25 1 2 -3.4674454507719318e+01 -2.6288548498730901e+01 -1.5573151204172257e+01 0 0 0
  26 1 1 -3.4787271021092714e+01 -2.5521277124889053e+01 -1.4937799656448862e+01 0 0 0
  27 1 2 -3.4928774333516913e+01 -2.5207296236811466e+01 -1.5875466726092561e+01 0 0 0
  28 1 2 -3.5556863394311954e+01 -2.4765550813838907e+01 -1.5357749962871964e+01 0 0 0
  29 1 1 -3.4790923234120562e+01 -2.4184123495991400e+01 -1.5440338196899120e+01 0 0 0
  30 1 1 -3.5633519832719763e+01 -2.3654444905271813e+01 -1.5523889657356973e+01 0 0 0
  31 1 1 -3.4887346729924971e+01 -2.3092878003435771e+01 -1.5509094284330159e+01 0 0 0
  32 1 1 -3.5658394521073959e+01 -2.2604292668464744e+01 -1.5216715770563310e+01 0 0 0
  33 1 1 -3.5091801090206971e+01 -2.2015144607185935e+01 -1.5660152945132667e+01 0 0 0
  34 1 1 -3.5909274698633446e+01 -2.1544263806276486e+01 -1.5521498676930204e+01 0 0 0
  35 1 1 -3.5567684891861283e+01 -2.1656408021733785e+01 -1.4677441552307986e+01 0 0 0
  36 1 1 -3.5706861503874201e+01 -2.0749514420873151e+01 -1.4924739008842117e+01 0 0 0
  37 1 2 -3.4792020685291732e+01 -2.0847727071396619e+01 -1.4705269007123848e+01 0 0 0
  38 1 1 -3.5020226818590430e+01 -2.0036267777722784e+01 -1.5231385934608070e+01 0 0 0
  39 1 1 -3.4681778792183373e+01 -1.9772803403970922e+01 -1.4374198231671931e+01 0 0 0
  40 1 1 -3.4540929127139478e+01 -1.9063803632375283e+01 -1.4898010214503801e+01 0 0 0
  41 1 2 -3.3766019093583537e+01 -1.9254787094557702e+01 -1.4276936082333366e+01 0 0 0
  42 1 2 -3.3745161643130629e+01 -1.9895839926707239e+01 -1.4994287554612901e+01 0 0 0
  43 1 1 -3.2966713433652643e+01 -1.9354170260800160e+01 -1.5044867448709374e+01 0 0 0
  44 1 2 -3.3721484327614888e+01 -1.8902272520493174e+01 -1.5503535085044115e+01 0 0 0
  45 1 2 -3.2833270109503395e+01 -1.8641452255103850e+01 -1.5964518631189833e+01 0 0 0
  46 1 2 -3.3493750808841469e+01 -1.7893829879367892e+01 -1.5935540751819062e+01 0 0 0
  47 1 2 -3.2562740212970084e+01 -1.7538555981879924e+01 -1.5788132711984053e+01 0 0 0
  48 1 2 -3.2968310519766710e+01 -1.7733706168228775e+01 -1.4910255184119483e+01 0 0 0
  49 1 2 -3.3147603437524822e+01 -1.6785555767351532e+01 -1.5188957859154522e+01 0 0 0
  50 1 2 -3.3542181850517942e+01 -1.7041545226199297e+01 -1.4296481078886874e+01 0 0 0
  51 1 2 -3.2817716163339313e+01 -1.6467822788573891e+01 -1.4279131727095900e+01 0 0 0
  52 1 2 -3.3340107390407724e+01 -1.6260336767721146e+01 -1.3508378109597528e+01 0 0 0
  53 1 1 -3.2400323088344379e+01 -1.6207210272720037e+01 -1.3179116627892425e+01 0 0 0
  54 1 1 -3.2479405986047958e+01 -1.5642044541805889e+01 -1.3918606155834713e+01 0 0 0
  55 1 2 -3.1574275432019686e+01 -1.5747183837730457e+01 -1.3767039944024006e+01 0 0 0
  56 1 2 -3.1598615800123952e+01 -1.5469417948752870e+01 -1.4677074628776262e+01 0 0 0
  57 1 2 -3.0760281024993755e+01 -1.5130985564925453e+01 -1.4438922978004953e+01 0 0 0
  58 1 2 -3.1258495663813257e+01 -1.4422831572102410e+01 -1.4862059190973318e+01 0 0 0
  59 1 2 -3.0783346912373556e+01 -1.4975565590032062e+01 -1.5535077029613278e+01 0 0 0
  60 1 2 -3.0346197542207133e+01 -1.4127508720327873e+01 -1.5352851562588485e+01 0 0 0
  61 1 2 -3.0330122510213023e+01 -1.4276180030061051e+01 -1.6258930014565806e+01 0 0 0
  62 1 2 -2.9637190497560859e+01 -1.4786763782935923e+01 -1.5845159223321474e+01 0 0 0
  63 1 2 -2.9277393229568599e+01 -1.4358149154471336e+01 -1.6746798301962166e+01 0 0 0
  64 1 1 -2.8787837808986165e+01 -1.5086168879830572e+01 -1.6416569994340300e+01 0 0 0
  65 1 1 -2.9479264027541156e+01 -1.5451909315764610e+01 -1.6987091755672246e+01 0 0 0
  66 1 1 -2.8670092168829367e+01 -1.5525744865967436e+01 -1.7491991059233474e+01 0 0 0
  67 1 1 -2.9348308281961462e+01 -1.5649189741412894e+01 -1.8125563222724598e+01 0 0 0
  68 1 1 -2.8985904061242142e+01 -1.4768379186151288e+01 -1.8209980041108661e+01 0 0 0
  69 1 1 -2.9929156937840006e+01 -1.4697356520353910e+01 -1.8346096942371901e+01 0 0 0
  70 1 1 -2.9400467169499148e+01 -1.4802185020567817e+01 -1.9266519517197061e+01 0 0 0
  71 1 2 -3.0055745288260638e+01 -1.4134675761671597e+01 -1.9333237871085970e+01 0 0 0
  72 1 1 -2.9369028224871531e+01 -1.4002322782256764e+01 -1.9957243918853809e+01 0 0 0
  73 1 1 -2.9179279369903572e+01 -1.3370119356948265e+01 -1.9188845115600859e+01 0 0 0
  74 1 1 -2.9948093994895110e+01 -1.3125695392356986e+01 -1.9712486085607338e+01 0 0 0
  75 1 1 -3.0087978822835169e+01 -1.2789236781373246e+01 -1.8799758724092495e+01 0 0 0
  76 1 1 -2.9668127452139814e+01 -1.2137932691493528e+01 -1.9429051862449377e+01 0 0 0
  77 1 1 -2.9746228204843838e+01 -1.1743762907096553e+01 -1.8580445292136027e+01 0 0 0
  78 1 1 -3.0565332835834223e+01 -1.1459970211315635e+01 -1.9111171594974035e+01 0 0 0
  79 1 2 -2.9752064087086445e+01 -1.0901921852504236e+01 -1.9321176798732960e+01 0 0 0
  80 1 3 -3.0373104791657155e+01 -1.0292647596577364e+01 -1.9006371845175000e+01 0 0 0
  81 1 2 -2.9472619926748390e+01 -1.0204713511283968e+01 -1.8529819835205693e+01 0 0 0
  82 1 2 -2.9612399178708664e+01 -9.5114848009240376e+00 -1.9173130850189143e+01 0 0 0
  83 1 2 -2.9419680952990781e+01 -9.0547510802197024e+00 -1.8376634365247607e+01 0 0 0
  84 1 1 -3.0279061990206117e+01 -8.7820963205046212e+00 -1.8736730016101326e+01 0 0 0
  85 1 2 -3.0357158144954692e+01 -9.1403875502259755e+00 -1.7821528500877797e+01 0 0 0
  86 1 2 -3.1148390347896672e+01 -8.5467676135282922e+00 -1.8014049676843868e+01 0 0 0
  87 1 2 -3.0509940113947483e+01 -8.2319629519556834e+00 -1.7363525384004106e+01 0 0 0
  88 1 2 -3.0726475354293417e+01 -7.5287700308470225e+00 -1.7921133168819402e+01 0 0 0
  89 1 2 -3.0441887575793043e+01 -7.1210664334547822e+00 -1.7113101968522834e+01 0 0 0
  90 1 2 -3.1071208037460632e+01 -6.4966404891832168e+00 -1.7565775100635012e+01 0 0 0
  91 1 2 -3.0283563481103037e+01 -6.0632812519678874e+00 -1.7281716768893791e+01 0 0 0
  92 1 2 -3.1052511900178871e+01 -5.5405105558176206e+00 -1.7042248795631107e+01 0 0 0
  93 1 2 -3.0532649741963791e+01 -5.7888963162247320e+00 -1.6267320963998699e+01 0 0 0
  94 1 2 -3.0953831079047564e+01 -4.9839908462496672e+00 -1.6101717228355927e+01 0 0 0
  95 1 1 -2.9904975096322605e+01 -4.9555648892486452e+00 -1.6127270765739745e+01 0 0 0
  96 1 1 -3.0288483239861431e+01 -4.5727440772898778e+00 -1.5348989257071539e+01 0 0 0
  97 1 2 -2.9359106935183362e+01 -4.1987818229761977e+00 -1.5463557603316433e+01 0 0 0
  98 1 2 -2.9525582438753393e+01 -4.3322939315546671e+00 -1.4579710727912271e+01 0 0 0
  99 1 2 -2.8894534244308499e+01 -3.5856209083272979e+00 -1.4736204040045626e+01 0 0 0
  100 1 2 -2.9700967288590174e+01 -3.1347018681775158e+00 -1.4747060067470500e+01 0 0 0
  101 1 2 -2.9351971701233861e+01 -3.1789906700578530e+00 -1.3802422834573065e+01 0 0 0
  102 1 2 -3.0376863304070518e+01 -3.3193372505285139e+00 -1.3821779529911542e+01 0 0 0
  103 1 2 -3.0058087735213348e+01 -3.2901887181811138e+00 -1.2923692133148723e+01 0 0 0
  104 1 2 -3.0420177059020283e+01 -4.2441496955590843e+00 -1.3067405507583626e+01 0 0 0
  105 1 2 -3.0332039138438336e+01 -4.0347735177825470e+00 -1.2114914307073555e+01 0 0 0
  106 1 2 -2.9975422737933219e+01 -4.9346123878038828e+00 -1.2382210701567320e+01 0 0 0
  107 1 1 -3.0236041883754563e+01 -4.8448001775358120e+00 -1.1442184979181459e+01 0 0 0
  108 1 2 -2.9284439946466520e+01 -4.5349081380559788e+00 -1.1639336830919977e+01 0 0 0
  109 1 1 -2.9496840412597763e+01 -4.3289251717285646e+00 -1.0748993290491621e+01 0 0 0
  110 1 1 -2.8647954107471641e+01 -4.7428806668126917e+00 -1.0704057825796031e+01 0 0 0
  111 1 2 -2.9249919732172334e+01 -4.9578875419813926e+00 -9.9844588572154223e+00 0 0 0
  112 1 2 -2.8925774815419171e+01 -4.1069122539628893e+00 -9.8412354307055967e+00 0 0 0
  113 1 2 -2.8197168361296502e+01 -4.6335233807967686e+00 -9.7406600476555472e+00 0 0 0
  114 1 2 -2.7940944652272069e+01 -3.7319743565528283e+00 -9.9014758135000083e+00 0 0 0
  115 1 2 -2.7180385214328144e+01 -4.2916625605835899e+00 -9.7961185815112728e+00 0 0 0
  116 1 2 -2.6975068138556242e+01 -3.5305217996891689e+00 -1.0306489718218851e+01 0 0 0
  117 1 2 -2.6984929054609744e+01 -4.3129257502815932e+00 -1.0867742503571602e+01 0 0 0
  118 1 2 -2.7179373542696215e+01 -3.4631818770978247e+00 -1.1347908542534359e+01 0 0 0
  119 1 2 -2.6884786992566326e+01 -4.1009667801687035e+00 -1.1976492348973748e+01 0 0 0
  120 1 2 -2.6017918769319518e+01 -3.7831816903182371e+00 -1.1673117953834490e+01 0 0 0
  121 1 2 -2.5912979352200505e+01 -4.7304128510375154e+00 -1.1857875839001521e+01 0 0 0
  122 1 2 -2.5292624324320233e+01 -4.5559692725062062e+00 -1.1130985882851819e+01 0 0 0
  123 1 2 -2.4917392002265977e+01 -5.2289403656140472e+00 -1.1744747936130782e+01 0 0 0
  124 1 2 -2.4375516386767966e+01 -5.2485456778037562e+00 -1.0965723721884167e+01 0 0 0
  125 1 2 -2.4879145469397738e+01 -6.0895453890009463e+00 -1.0929918404697665e+01 0 0 0
  126 1 3 -2.4225602256105539e+01 -6.1526904077002804e+00 -1.0216644495943884e+01 0 0 0
  127 1 2 -2.3927873635551020e+01 -6.7769279087256065e+00 -1.0935152607755821e+01 0 0 0
  128 1 2 -2.3458975415274519e+01 -5.9317478036138045e+00 -1.1035818407272920e+01 0 0 0
  129 1 2 -2.3525886843820043e+01 -6.4075072277760787e+00 -1.1904881190697225e+01 0 0 0
  130 1 2 -2.2674819343663881e+01 -6.4573466443529188e+00 -1.1480234497078078e+01 0 0 0
  131 1 2 -2.2688828281230229e+01 -5.7514607656980576e+00 -1.2141103305807750e+01 0 0 0
  132 1 2 -2.1875421086714052e+01 -6.1192860306145516e+00 -1.2005944305106459e+01 0 0 0
  133 1 1 -2.2176798187489680e+01 -6.4802662641816626e+00 -1.2818954362742295e+01 0 0 0
  134 1 2 -2.1500136856968151e+01 -5.8843416034107978e+00 -1.3148547218689446e+01 0 0 0
  135 1 2 -2.1523436114713419e+01 -6.5845256297447730e+00 -1.3740170583711130e+01 0 0 0
  136 1 2 -2.2344952296561011e+01 -6.2076898273061882e+00 -1.3854586613070790e+01 0 0 0
  137 1 2 -2.1687858330158281e+01 -5.5333152524735993e+00 -1.4136449989308854e+01 0 0 0
  138 1 2 -2.2511203235503473e+01 -5.4245311787749380e+00 -1.4635268177398107e+01 0 0 0
  139 1 2 -2.1773999242632385e+01 -5.4992450405015081e+00 -1.5266047030836113e+01 0 0 0
  140 1 2 -2.2421751232135271e+01 -6.2218301589278715e+00 -1.5322263817039802e+01 0 0 0
  141 1 2 -2.1461251961653190e+01 -6.4812570475866247e+00 -1.5281883557281022e+01 0 0 0
  142 1 2 -2.1731010653071031e+01 -6.2051964371416481e+00 -1.6157850011143886e+01 0 0 0
  143 1 2 -2.0964798849451487e+01 -6.7107095784496682e+00 -1.6173408708287031e+01 0 0 0
  144 1 2 -2.1732070469581711e+01 -7.3413569564327181e+00 -1.6202135636612653e+01 0 0 0
  145 1 2 -2.1040410993205807e+01 -7.8730156894161532e+00 -1.5793466607067645e+01 0 0 0
  146 1 2 -2.1877736529003716e+01 -8.4518399069151595e+00 -1.5718109672461516e+01 0 0 0
  147 1 2 -2.1068824570621601e+01 -8.9733978833475732e+00 -1.5865241840682849e+01 0 0 0
  148 1 3 -2.1228986561517310e+01 -8.5227784770343220e+00 -1.6708574193508316e+01 0 0 0
  149 1 2 -2.0268649173771902e+01 -8.6560323174443781e+00 -1.6689081489367453e+01 0 0 0
  150 1 2 -2.0567801337570202e+01 -7.7205163776876180e+00 -1.6783346228884160e+01 0 0 0
  151 1 2 -1.9677704138769371e+01 -7.9317875422012447e+00 -1.7146720057191224e+01 0 0 0
  152 1 2 -1.9750753633379624e+01 -7.0360682455185257e+00 -1.7083205196096085e+01 0 0 0
  153 1 2 -1.9322778273163792e+01 -7.3692207296632528e+00 -1.6346547207805877e+01 0 0 0
  154 1 2 -1.9310871862220477e+01 -6.3752441353678204e+00 -1.6387724925534219e+01 0 0 0
  155 1 2 -1.8497779100073789e+01 -6.7637967355458084e+00 -1.6715329167986440e+01 0 0 0
  156 1 2 -1.8740130476158630e+01 -5.9079573414052797e+00 -1.7143340952536512e+01 0 0 0
  157 1 2 -1.8156850975563497e+01 -5.7734354691347747e+00 -1.6381012015477964e+01 0 0 0
  158 1 2 -1.7596752656351875e+01 -6.1054399312265302e+00 -1.7128443318766031e+01 0 0 0
  159 1 2 -1.7455362075314419e+01 -6.5849144000787447e+00 -1.6305673843716011e+01 0 0 0
  160 1 2 -1.6692323704356106e+01 -6.6744885680927499e+00 -1.6838622786219066e+01 0 0 0
  161 1 2 -1.7163375138202614e+01 -7.4934245744415060e+00 -1.6841931277684051e+01 0 0 0
  162 1 2 -1.6265770156706719e+01 -7.6378218537036942e+00 -1.7069562283719943e+01 0 0 0
  163 1 2 -1.6244052166589608e+01 -7.4794115887911605e+00 -1.6115566060874137e+01 0 0 0
  164 1 2 -1.5529722691078019e+01 -7.0605112261120828e+00 -1.6499722412045987e+01 0 0 0
  165 1 2 -1.5964482843291723e+01 -6.5046565685390734e+00 -1.5874450571002463e+01 0 0 0
  166 1 2 -1.5620370321390622e+01 -5.9895282554123650e+00 -1.6580907813237122e+01 0 0 0
  167 1 2 -1.5295036091911379e+01 -5.6266096900195981e+00 -1.5774091142773798e+01 0 0 0
  168 1 2 -1.4610220620851766e+01 -5.4755982479206633e+00 -1.6416255803829355e+01 0 0 0
  169 1 2 -1.4429822910352630e+01 -4.8587702503406920e+00 -1.5767363655762450e+01 0 0 0
  170 1 2 -1.4779831633037576e+01 -4.4078802805084569e+00 -1.6486013878233457e+01 0 0 0
  171 1 2 -1.3958845457006060e+01 -4.8063357973691812e+00 -1.6756113851698643e+01 0 0 0
  172 1 2 -1.4596128426544452e+01 -4.8926318750442146e+00 -1.7490761495089004e+01 0 0 0
  173 1 2 -1.4005461511548940e+01 -4.1567195683820826e+00 -1.7640154062842221e+01 0 0 0
  174 1 2 -1.4804532719351753e+01 -3.9742887934813322e+00 -1.8088412903114222e+01 0 0 0
  175 1 2 -1.4918893014498019e+01 -3.5191237624421396e+00 -1.7241974259148275e+01 0 0 0
  176 1 2 -1.4886325401770199e+01 -2.8883213951049194e+00 -1.8011836350776974e+01 0 0 0
  177 1 2 -1.4802240784699272e+01 -2.3257843888026652e+00 -1.7217173454301296e+01 0 0 0
  178 1 3 -1.5165829826904762e+01 -1.7732512297907819e+00 -1.7876519372380951e+01 0 0 0
  179 1 2 -1.5875666422793017e+01 -2.4126405563678581e+00 -1.7691519276251380e+01 0 0 0
  180 1 2 -1.6014010504887544e+01 -1.5886816231540128e+00 -1.7226294606304599e+01 0 0 0
  181 1 2 -1.6853149713266504e+01 -2.0883392648583787e+00 -1.7361303558502321e+01 0 0 0
  182 1 2 -1.6673922729666444e+01 -1.6064406229480443e+00 -1.8172845018509900e+01 0 0 0
  183 1 2 -1.7521271127300352e+01 -2.0189489077145071e+00 -1.8190203597523869e+01 0 0 0
  184 1 2 -1.7524742292345682e+01 -1.2016233859486658e+00 -1.8697274170486580e+01 0 0 0
  185 1 2 -1.7451413136388172e+01 -1.9878506464618348e+00 -1.9228199849644760e+01 0 0 0
  186 1 2 -1.6900171548266194e+01 -1.3459628476568652e+00 -1.9568126696554618e+01 0 0 0
  187 1 2 -1.7112335615700854e+01 -2.0000130761357777e+00 -2.0295557253426587e+01 0 0 0
  188 1 2 -1.6763880907686630e+01 -1.1725153398505301e+00 -2.0624718695001430e+01 0 0 0
  189 1 3 -1.6189554458581522e+01 -1.8594668644730472e+00 -2.0998776495490084e+01 0 0 0
  190 1 2 -1.6548029534990135e+01 -1.3482409060977003e+00 -2.1667179735932557e+01 0 0 0
  191 1 1 -1.5776709681756396e+01 -1.7828612918692057e+00 -2.2051049712478406e+01 0 0 0
  192 1 1 -1.5462647643391628e+01 -9.7740620693405278e-01 -2.1567029463616020e+01 0 0 0
  193 1 1 -1.5228226012698693e+01 -8.8928379912275424e-01 -2.2544890886695715e+01 0 0 0
  194 1 1 -1.5845460142822757e+01 -2.2953854113282571e-01 -2.2248470082590380e+01 0 0 0
  195 1 1 -1.5674013550678870e+01 -1.0442648631359387e-01 -2.3221921641832374e+01 0 0 0
  196 1 1 -1.5922228713335626e+01 7.8111289946981588e-01 -2.2822777304034119e+01 0 0 0
  197 1 1 -1.5283741318550753e+01 9.8002780847607707e-01 -2.3465236231215691e+01 0 0 0
  198 1 1 -1.5204945924284063e+01 1.6484727278032010e+00 -2.2782282326776397e+01 0 0 0
  199 1 1 -1.4644524829546617e+01 8.3858684160655617e-01 -2.2520800166677883e+01 0 0 0
  200 1 1 -1.4089202154352003e+01 1.5805912518537248e+00 -2.3029897899309898e+01 0 0 0
  201 1 1 -1.3501864008836462e+01 9.4158716577944468e-01 -2.2643179277483014e+01 0 0 0
  202 1 1 -1.3095555515450444e+01 1.0403565700030488e+00 -2.3522353719980181e+01 0 0 0
  203 1 1 -1.3085806579389315e+01 1.2545882530437161e-01 -2.3242534929861861e+01 0 0 0
  204 1 1 -1.3831795935677778e+01 2.2474573344974977e-01 -2.3786445942965365e+01 0 0 0
  205 1 1 -1.3343186284105554e+01 -5.1335050753523748e-01 -2.4183195373509967e+01 0 0 0
  206 1 1 -1.2917057906395897e+01 3.3485359802670578e-01 -2.4299444873663312e+01 0 0 0
  207 1 1 -1.2291182470780431e+01 -3.0695782036209568e-01 -2.3990966446403075e+01 0 0 0
  208 1 1 -1.1845079749886493e+01 4.7194674556273042e-01 -2.4108683904641158e+01 0 0 0
  209 1 1 -1.1257230929202622e+01 -1.4002729428358587e-01 -2.3626423604808490e+01 0 0 0
  210 1 1 -1.1477721905291197e+01 6.8071973261982888e-01 -2.3013150395970001e+01 0 0 0
  211 1 1 -1.1196788470950644e+01 1.6337847329145269e-03 -2.2469763924792083e+01 0 0 0
  212 1 1 -1.2034486185449561e+01 3.3605028280120713e-01 -2.2121112864261310e+01 0 0 0
  213 1 1 -1.1337801860942117e+01 1.0099479931576674e+00 -2.2009211506070642e+01 0 0 0
  214 1 1 -1.1270672037478704e+01 3.3371036880294747e-01 -2.1298818605281724e+01 0 0 0
  215 1 1 -1.0579968995966247e+01 9.8190115564067904e-01 -2.1175812943000849e+01 0 0 0
  216 1 1 -1.0745578563933980e+01 6.0394889366744797e-01 -2.0337692754459802e+01 0 0 0
  217 1 1 -1.0136630961769184e+01 1.1687120735597452e-02 -2.0939935473061954e+01 0 0 0
  218 1 1 -9.6847393690104902e+00 4.1050935298380242e-01 -2.0108669527773788e+01 0 0 0
  219 1 1 -9.9195764842099710e+00 -5.0085836610062773e-01 -1.9965764862503168e+01 0 0 0
  220 1 1 -9.5623343582710998e+00 -1.3985666571934977e-01 -1.9180198522523536e+01 0 0 0
  221 1 1 -1.0292586678421303e+01 -8.0791160557340691e-01 -1.9035307066438275e+01 0 0 0
  222 1 1 -9.4846978293075530e+00 -1.2850873864100782e+00 -1.8903129014988920e+01 0 0 0
  223 1 1 -1.0195614159247009e+01 -1.9405040640141853e+00 -1.9060068766088236e+01 0 0 0
  224 1 1 -9.4178781798954052e+00 -2.0531950661200131e+00 -1.9671030425601810e+01 0 0 0
  225 1 1 -1.0135845567912467e+01 -2.6379076413876676e+00 -1.9969953255292872e+01 0 0 0
  226 1 1 -1.0329419664595841e+01 -1.6387780220334174e+00 -2.0384766964437407e+01 0 0 0
  227 1 1 -1.0661000087254086e+01 -2.3856019386485947e+00 -2.0910928483707767e+01 0 0 0
  228 1 1 -1.1134718078264022e+01 -1.6544646781958572e+00 -2.1232879021503138e+01 0 0 0
  229 1 1 -1.1755835982638999e+01 -2.1611916025916273e+00 -2.0636989464982275e+01 0 0 0
  230 1 1 -1.1514553710313713e+01 -2.6206919075965587e+00 -2.1444416414197512e+01 0 0 0
  231 1 1 -1.2494805558672612e+01 -2.3968040321540194e+00 -2.1546530924716858e+01 0 0 0
  232 1 1 -1.2213159962439814e+01 -2.9462327016025065e+00 -2.2231988045024561e+01 0 0 0
  233 1 1 -1.2919831157425607e+01 -2.4803878735736133e+00 -2.2505320470988011e+01 0 0 0
  234 1 1 -1.3161057410099836e+01 -3.4427727990907355e+00 -2.2610680329237855e+01 0 0 0
  235 1 1 -1.3594483109097784e+01 -3.0876373760935070e+00 -2.1855863396421181e+01 0 0 0
  236 1 1 -1.3953394664995439e+01 -3.9589802378131127e+00 -2.1991389493053067e+01 0 0 0
  237 1 1 -1.3677688534110356e+01 -3.7966760001812148e+00 -2.1058883748496473e+01 0 0 0
  238 1 1 -1.3368704956607319e+01 -4.6472874516990155e+00 -2.1368831236557174e+01 0 0 0
  239 1 1 -1.2616810222659399e+01 -4.0698882980308637e+00 -2.1215190301139351e+01 0 0 0
  240 1 1 -1.2313221947357858e+01 -4.9263607518425312e+00 -2.1058350552123795e+01 0 0 0
  241 1 1 -1.1532397324461416e+01 -4.3581208045196940e+00 -2.1049924788220995e+01 0 0 0
  242 1 1 -1.1856441174627069e+01 -4.4190198903224553e+00 -2.0122660693619181e+01 0 0 0
  243 1 1 -1.1113355835993742e+01 -3.8734484062504895e+00 -2.0180736777624038e+01 0 0 0
  244 1 1 -1.0812740956300097e+01 -4.7695129832730192e+00 -2.0264906494397319e+01 0 0 0
  245 1 1 -1.0078372286212879e+01 -4.2142337336328151e+00 -2.0317641349837444e+01 0 0 0
  246 1 1 -1.0100971261251779e+01 -4.7441484000906646e+00 -1.9493006744206749e+01 0 0 0
  247 1 1 -9.7437523788836273e+00 -5.1990162805609925e+00 -2.0252143566233141e+01 0 0 0
  248 1 1 -9.8327852584196371e+00 -5.7841537044825388e+00 -1.9498426400830855e+01 0 0 0
  249 1 1 -8.9699938266127308e+00 -5.3767282053542003e+00 -1.9403044310713213e+01 0 0 0
  250 1 1 -9.3277258729735166e+00 -5.6909988761555850e+00 -1.8549990019803243e+01 0 0 0
  251 1 1 -8.6735281557785964e+00 -6.3224412403847836e+00 -1.8848937836312661e+01 0 0 0
  252 1 1 -9.1384394842180274e+00 -6.6266415152991112e+00 -1.8047626017161853e+01 0 0 0
  253 1 1 -8.4705737966153727e+00 -5.9919633460223158e+00 -1.7765236583918064e+01 0 0 0
  254 1 1 -8.5932251892565237e+00 -6.6638969050633090e+00 -1.7035283291291631e+01 0 0 0
  255 1 1 -9.3952033507003012e+00 -6.1342454517492921e+00 -1.7058941036493682e+01 0 0 0
  256 1 1 -8.9691981205529814e+00 -5.9765261156814713e+00 -1.6173351959219772e+01 0 0 0
  257 1 1 -9.2864176761748745e+00 -5.1171538200848783e+00 -1.6722288783726501e+01 0 0 0
  258 1 1 -8.5202004085376206e+00 -4.9271748238344175e+00 -1.6240402387966530e+01 0 0 0
  259 1 1 -8.8486900356284952e+00 -4.0667430193923897e+00 -1.6657210403201013e+01 0 0 0
  260 1 1 -8.9298423635683886e+00 -3.9834124635401271e+00 -1.5711629934778644e+01 0 0 0
  261 1 1 -8.4566973486974941e+00 -3.2007981489083743e+00 -1.6062684589094768e+01 0 0 0
  262 1 1 -8.5317354822493563e+00 -3.1568153098850260e+00 -1.5121191225160345e+01 0 0 0
  263 1 1 -9.2896354786413990e+00 -2.7808394988685041e+00 -1.5531476011333208e+01 0 0 0
  264 1 1 -9.1549773412443134e+00 -2.3304906992475432e+00 -1.4751809375951149e+01 0 0 0
  265 1 1 -9.9034663114988071e+00 -2.9273246372663113e+00 -1.4565851810416417e+01 0 0 0
  266 1 1 -9.2340117219357722e+00 -3.3562665186826428e+00 -1.4090405342532279e+01 0 0 0
  267 1 1 -9.8651065994640277e+00 -4.0446637907985501e+00 -1.4349714681403235e+01 0 0 0
  268 1 1 -1.0244129065061413e+01 -3.4275494401691993e+00 -1.3727491260213050e+01 0 0 0
  269 1 1 -1.0136112329143323e+01 -4.2484373416310532e+00 -1.3188392289779182e+01 0 0 0
  270 1 1 -1.1007253691959392e+01 -3.9339298911914691e+00 -1.3027039551049265e+01 0 0 0
  271 1 1 -1.0480809381514097e+01 -3.3794091917195463e+00 -1.2403490213619062e+01 0 0 0
  272 1 1 -1.1320011672088176e+01 -2.9409879286275409e+00 -1.2704950931797738e+01 0 0 0
  273 1 1 -1.1371195455182979e+01 -3.2499869180028247e+00 -1.1807884771497912e+01 0 0 0
  274 1 1 -1.2190887083323251e+01 -2.6818430613527648e+00 -1.2007449844536390e+01 0 0 0
  275 1 1 -1.2393906324773598e+01 -3.4985382214158971e+00 -1.1518520786988036e+01 0 0 0
  276 1 1 -1.2158613523594786e+01 -2.8915986298379632e+00 -1.0886514362913392e+01 0 0 0
  277 1 1 -1.2066814542553278e+01 -3.7119953379817763e+00 -1.0404185612466190e+01 0 0 0
  278 1 1 -1.1145445925054938e+01 -3.4121780120267555e+00 -1.0573392479381788e+01 0 0 0
  279 1 1 -1.1243763894063115e+01 -3.9001944377789468e+00 -9.7231961006239516e+00 0 0 0
  280 1 1 -1.0404102768155594e+01 -4.0998954375091907e+00 -1.0024952941860834e+01 0 0 0
  281 1 1 -1.0358809092116887e+01 -4.0323590602537784e+00 -9.0672672230756888e+00 0 0 0
  282 1 1 -1.0558206520655611e+01 -4.9186007469443656e+00 -9.2772350701179995e+00 0 0 0
  283 1 1 -1.0152832056847425e+01 -5.0732198176061134e+00 -8.4375403322837865e+00 0 0 0
  284 1 1 -9.5315004449402583e+00 -5.1457345950140390e+00 -9.1627858089521528e+00 0 0 0
  285 1 1 -9.5179215599680855e+00 -6.0298834868352120e+00 -8.5771951473393422e+00 0 0 0
  286 1 1 -9.9191911110709050e+00 -6.2065347295915076e+00 -9.4608991176971280e+00 0 0 0
  287 1 1 -8.9661697183973246e+00 -6.3682157409695099e+00 -9.5548830084763257e+00 0 0 0
  288 1 1 -9.3823751963696278e+00 -7.1808034395200915e+00 -9.5189098745189131e+00 0 0 0
  289 1 1 -8.4965992782928446e+00 -7.2543960630388202e+00 -9.0938625325103448e+00 0 0 0
  290 1 1 -8.6264104983527830e+00 -8.0173911759779486e+00 -9.6819475505919641e+00 0 0 0
  291 1 1 -8.6209381577571200e+00 -8.3083380698323595e+00 -8.7397488392228979e+00 0 0 0
  292 1 1 -8.8507690402577737e+00 -8.9941522732113324e+00 -9.3926848626982764e+00 0 0 0
  293 1 1 -9.6887742551133158e+00 -8.4937733463876715e+00 -9.2031040059414266e+00 0 0 0
  294 1 1 -9.4450010673370581e+00 -8.5240701589695824e+00 -1.0154472887305724e+01 0 0 0
  295 1 1 -1.0365033018027727e+01 -8.4536105836022699e+00 -1.0185433110609551e+01 0 0 0
  296 1 1 -1.0099012581913032e+01 -8.1707628255804181e+00 -1.1051731377277275e+01 0 0 0
  297 1 1 -1.0702098832631023e+01 -8.9203989538219766e+00 -1.1112803310064283e+01 0 0 0
  298 1 4 -1.0611593262895733e+01 -8.6080050895071842e+00 -1.1999285953795406e+01 0 0 0
  299 1 1 -1.0333550583247213e+01 -9.5153648461675608e+00 -1.1896694450372539e+01 0 0 0
  300 1 1 -1.0941441052157368e+01 -9.3453939943868001e+00 -1.2659068641333757e+01 0 0 0
  301 1 1 -1.1481499814800275e+01 -9.7496685948835129e+00 -1.1991745603314575e+01 0 0 0
  302 1 1 -1.1764284239837060e+01 -8.8485199316291805e+00 -1.2060983306647776e+01 0 0 0
  303 1 1 -1.2350178409622181e+01 -9.4364060219439541e+00 -1.2558248823590409e+01 0 0 0
  304 1 1 -1.2672770900279396e+01 -8.4911892182090583e+00 -1.2627167825830812e+01 0 0 0
  305 1 1 -1.3312983608939540e+01 -8.9457303913852932e+00 -1.2102709662578489e+01 0 0 0
  306 1 1 -1.3621783792990795e+01 -8.0205774423861875e+00 -1.2234929184428625e+01 0 0 0
  307 1 1 -1.4226028186126728e+01 -8.7331883359997651e+00 -1.2704346824966612e+01 0 0 0
  308 1 1 -1.4502963631912795e+01 -7.8595721838086101e+00 -1.2962383669024117e+01 0 0 0
  309 1 1 -1.4095363545296868e+01 -8.3874642806683060e+00 -1.3668281145981444e+01 0 0 0
  310 1 1 -1.4879227088648912e+01 -8.0564482482028268e+00 -1.4047688390789249e+01 0 0 0
  311 1 1 -1.5133340537150191e+01 -8.9001546731762300e+00 -1.3689848322581829e+01 0 0 0
  312 1 1 -1.5811075895534920e+01 -8.2375027617685035e+00 -1.3468602308036818e+01 0 0 0
  313 1 1 -1.5510705909101034e+01 -8.5785353022573130e+00 -1.2621791684222167e+01 0 0 0
  314 1 1 -1.6498448565144393e+01 -8.4680273425425518e+00 -1.2531854649188260e+01 0 0 0
  315 1 1 -1.6137722720250423e+01 -7.7143677650643268e+00 -1.2098023532414340e+01 0 0 0
  316 1 1 -1.7104458303472992e+01 -7.7442542843978375e+00 -1.1905950620942814e+01 0 0 0
  317 1 1 -1.6625330681810510e+01 -7.7022895006414052e+00 -1.1127302536637821e+01 0 0 0
  318 1 1 -1.7489154542764528e+01 -7.4516410127604757e+00 -1.0924577013972902e+01 0 0 0
  319 1 1 -1.6995078684223369e+01 -6.5675087315263845e+00 -1.0992915724560980e+01 0 0 0
  320 1 1 -1.7896695658765125e+01 -6.2678909292947997e+00 -1.0852865751518291e+01 0 0 0
  321 1 1 -1.7377629067455551e+01 -5.6800243278567031e+00 -1.0339330930405083e+01 0 0 0
  322 1 1 -1.8239891977102246e+01 -5.8362381118078011e+00 -9.9399645736626017e+00 0 0 0
  323 1 1 -1.7707647685326403e+01 -5.7296871735555559e+00 -9.1594480276195167e+00 0 0 0
  324 1 1 -1.8413248672216881e+01 -6.3067393222301593e+00 -8.9865348079323226e+00 0 0 0
  325 1 2 -1.8448256460312120e+01 -5.6156657538722499e+00 -8.3329037817953271e+00 0 0 0
  326 1 3 -1.8792751302373340e+01 -5.2121572558934837e+00 -9.1451565923810083e+00 0 0 0
  327 1 1 -1.8415555071031179e+01 -4.5664667477261647e+00 -8.5897963483217676e+00 0 0 0
  328 1 1 -1.9216732426186262e+01 -4.2556051173460681e+00 -8.9788583775197282e+00 0 0 0
  329 1 1 -1.8511012825225439e+01 -3.8075975505389361e+00 -9.4289686236463730e+00 0 0 0
  330 1 1 -1.8877193488397680e+01 -3.3578447887717386e+00 -8.6337649278534876e+00 0 0 0
  331 1 1 -1.7870208155004818e+01 -3.2408431145592691e+00 -8.6981877202195150e+00 0 0 0
  332 1 1 -1.8341519567942665e+01 -2.4414309047178784e+00 -8.7137479620608183e+00 0 0 0
  333 1 1 -1.7471400552047960e+01 -2.3393802662532557e+00 -8.3338767398574554e+00 0 0 0
  334 1 1 -1.7554996567356749e+01 -1.8326806972782363e+00 -9.1749152812853065e+00 0 0 0
  335 1 1 -1.6902815237189778e+01 -2.5053391735357051e+00 -9.2410478812476651e+00 0 0 0
  336 1 1 -1.6952610831552072e+01 -2.0868153008120474e+00 -1.0063895224703943e+01 0 0 0
  337 1 1 -1.6679294354251081e+01 -1.4021743735968848e+00 -9.3739930817037553e+00 0 0 0
  338 1 1 -1.7072401381280642e+01 -1.0433822003082611e+00 -1.0158974664804369e+01 0 0 0