LAMMPS data file via write_data, version 7 Dec 2015, timestep = 20000

10000 atoms
5 atom types
9399 bonds
3 bond types
4998 angles
1 angle types
2 extra bond per atom

-7.5000000000000000e+01 7.5000000000000000e+01 xlo xhi
-7.5000000000000000e+01 7.5000000000000000e+01 ylo yhi
-7.5000000000000000e+01 7.5000000000000000e+01 zlo zhi

Masses

1 1
2 1
3 1
4 1
5 1

Atoms

  1 1 1 2.2376234913164446e+01 8.7248037416896000e+00 -1.4023795228959779e+00 0 0 0
  2 1 1 2.1834806167087514e+01 8.6113332171681503e+00 -2.1870396161498515e+00 0 0 0
  3 1 1 2.2793416508270568e+01 8.5198589717916278e+00 -2.4025305860719519e+00 0 0 0
  4 1 1 2.2302385700728660e+01 7.6742680501204230e+00 -2.3897604266691292e+00 0 0 0
  5 1 1 2.2955544070347671e+01 7.6892376128198947e+00 -1.7010647920408120e+00 0 0 0
  6 1 1 2.2965937903206612e+01 6.7395159660151736e+00 -2.0572230446693154e+00 0 0 0
  7 1 1 2.3678562081710322e+01 7.3075469103917836e+00 -2.4456418038691088e+00 0 0 0
  8 1 1 2.3559740547615412e+01 6.5667414271012339e+00 -2.9964240284990931e+00 0 0 0
  9 1 2 2.4369789638506049e+01 6.8667678553896989e+00 -3.3417611974538501e+00 0 0 0
  10 1 2 2.4234336579041759e+01 6.0535624500495047e+00 -3.7740109758927858e+00 0 0 0
  11 1 1 2.5088280103555647e+01 6.4080846698540403e+00 -4.0681581294596691e+00 0 0 0
  12 1 1 2.4637577620230950e+01 6.0137513020314532e+00 -4.8626722761907075e+00 0 0 0
  13 1 2 2.5579662100882249e+01 5.8694125967064794e+00 -4.9468951255612010e+00 0 0 0
  14 1 2 2.5307905566785543e+01 6.3056865665925690e+00 -5.7561721243613322e+00 0 0 0
  15 1 2 2.5981389823472341e+01 6.8891903519360511e+00 -5.3148813359310703e+00 0 0 0
  16 1 2 2.5211955767648508e+01 7.4183807460961484e+00 -5.5532500750680036e+00 0 0 0
  17 1 2 2.5901463306912319e+01 7.9887970469241516e+00 -5.1889971653249338e+00 0 0 0
  18 1 2 2.5452281210369538e+01 8.3263676808844114e+00 -5.9615416455429910e+00 0 0 0
  19 1 2 2.6353901243350624e+01 8.1875668141211477e+00 -6.1609159369508841e+00 0 0 0
  20 1 2 2.6049174254250072e+01 8.8789959072670488e+00 -6.7182768513342292e+00 0 0 0
  21 1 2 2.6962793291602559e+01 8.6548319912200817e+00 -6.9198198151903316e+00 0 0 0
  22 1 2 2.6586073326782831e+01 9.2494853889179947e+00 -7.5756398056243821e+00 0 0 0
  23 1 2 2.6982355167724155e+01 9.7775405863426457e+00 -6.8517056668582850e+00 0 0 0
  24 1 2 2.6552593644849917e+01 1.0291994174835573e+01 -7.4881381695743059e+00 0 0 0
  25 1 2 2.5832224671435618e+01 1.0070999947484413e+01 -6.8793009384747510e+00 0 0 0
  26 1 1 2.6277652691245290e+01 1.0765895925157539e+01 -6.4901740000858199e+00 0 0 0
  27 1 2 2.5401147235194546e+01 1.1027750285232898e+01 -6.6863844438317850e+00 0 0 0
  28 1 2 2.6061358470190982e+01 1.1644559517043151e+01 -6.9962745655254057e+00 0 0 0
  29 1 1 2.5646669947070720e+01 1.1936077056993808e+01 -6.1307459988496928e+00 0 0 0
  30 1 1 2.5019009681828273e+01 1.2033316692135088e+01 -6.8373681476819392e+00 0 0 0
  31 1 1 2.4513389239548513e+01 1.2010564237337343e+01 -5.9216186263935109e+00 0 0 0
  32 1 1 2.4752356737203868e+01 1.2928524362916784e+01 -6.2180980308691121e+00 0 0 0
  33 1 1 2.5297054701225118e+01 1.2652465162927177e+01 -5.4862980291195136e+00 0 0 0
  34 1 1 2.5454710262185376e+01 1.3613761757279265e+01 -5.7213792382897219e+00 0 0 0
  35 1 1 2.5910226619268713e+01 1.3007594249774451e+01 -6.3014680759533785e+00 0 0 0
  36 1 1 2.6145497765187102e+01 1.3967684736118004e+01 -6.5060635226832799e+00 0 0 0
  37 1 2 2.6960455888527239e+01 1.3557241923388542e+01 -6.3215088476483663e+00 0 0 0
  38 1 1 2.6555970307577159e+01 1.3945981057769739e+01 -5.5313211192255736e+00 0 0 0
  39 1 1 2.6855347843403361e+01 1.4620924870823734e+01 -6.1786694152105204e+00 0 0 0
  40 1 1 2.6844402344067760e+01 1.5036353305035110e+01 -5.3051819584712430e+00 0 0 0
  41 1 2 2.7319116297096222e+01 1.5595303093159728e+01 -5.9627734421520451e+00 0 0 0
  42 1 2 2.8065747365975746e+01 1.5220042236462389e+01 -5.4521982796175212e+00 0 0 0
  43 1 1 2.8109942433698912e+01 1.6172693136707831e+01 -5.4477672955139971e+00 0 0 0
  44 1 2 2.8361577237262846e+01 1.5812854139335917e+01 -4.5691930632872850e+00 0 0 0
  45 1 2 2.8265516804724225e+01 1.6744413840786969e+01 -4.4233188667491303e+00 0 0 0
  46 1 2 2.9203479163883692e+01 1.6534230910927675e+01 -4.3815405405565366e+00 0 0 0
  47 1 2 2.8882428611641600e+01 1.6868807298942148e+01 -3.5010357668218002e+00 0 0 0
  48 1 2 2.8970155153078640e+01 1.5910831673671751e+01 -3.4655832892638978e+00 0 0 0
  49 1 2 2.8678299669351428e+01 1.6437292947467355e+01 -2.6547307583173190e+00 0 0 0
  50 1 2 2.7883553297269977e+01 1.5873939267941916e+01 -3.0724891922895416e+00 0 0 0
  51 1 2 2.8499184039472709e+01 1.5382583985382636e+01 -2.4858006265742079e+00 0 0 0
  52 1 2 2.7586351899981192e+01 1.5337316342904805e+01 -2.1079860710074176e+00 0 0 0
  53 1 1 2.8116686591793414e+01 1.5421014702005348e+01 -1.3341705200677314e+00 0 0 0
  54 1 1 2.7944794107030205e+01 1.6352034776662030e+01 -1.6125693533666721e+00 0 0 0
  55 1 2 2.8905878160858933e+01 1.6204096501763029e+01 -1.5013516073311344e+00 0 0 0
  56 1 2 2.8480016732929705e+01 1.6249609420958102e+01 -6.5750704480796263e-01 0 0 0
  57 1 2 2.9503151597885584e+01 1.6355512528288564e+01 -5.9156963194911227e-01 0 0 0
  58 1 2 2.9144872321148831e+01 1.7123640567020914e+01 -9.9974352533303801e-01 0 0 0
  59 1 2 2.9276360243920337e+01 1.7375636992325830e+01 -9.9298743790126404e-02 0 0 0
  60 1 2 2.9752428710081627e+01 1.8041820317821589e+01 -5.5716258887133929e-01 0 0 0
  61 1 2 3.0087084134092478e+01 1.8012262224442004e+01 3.8395957974322359e-01 0 0 0
  62 1 2 3.0804736434994709e+01 1.8188675441392117e+01 -2.0069754688210686e-01 0 0 0
  63 1 2 3.0551603957441316e+01 1.9008059542916726e+01 1.7965687027184407e-01 0 0 0
  64 1 1 3.1431411927899781e+01 1.8763819092905589e+01 5.1485591129299335e-01 0 0 0
  65 1 1 3.0799056497648699e+01 1.8684286051401109e+01 1.2283564064211192e+00 0 0 0
  66 1 1 3.1739162132401436e+01 1.8809750680121507e+01 1.6005265142192875e+00 0 0 0
  67 1 1 3.1187570251430593e+01 1.9535481955779549e+01 1.8367691918533757e+00 0 0 0
  68 1 1 3.1707134927185049e+01 1.9789809158547754e+01 1.0987191586439415e+00 0 0 0
  69 1 1 3.1527465846478545e+01 2.0652041185980298e+01 1.4527153084856337e+00 0 0 0
  70 1 1 3.2461862453222992e+01 2.0589691372745680e+01 1.4547585231430533e+00 0 0 0
  71 1 2 3.2211036853384904e+01 2.1062464516117913e+01 6.8039216043167949e-01 0 0 0
  72 1 1 3.3109810191480825e+01 2.0967959346845188e+01 6.5504951255190691e-01 0 0 0
  73 1 1 3.2927085606558997e+01 2.1874433304378595e+01 5.0312725282610415e-01 0 0 0
  74 1 1 3.3822999596604568e+01 2.1822945521452173e+01 8.4788505200841202e-01 0 0 0
  75 1 1 3.3300311256326189e+01 2.1453308706622025e+01 1.5623264268782093e+00 0 0 0
  76 1 1 3.4362140740128112e+01 2.1412523202025994e+01 1.6687858139986780e+00 0 0 0
  77 1 1 3.3826963283309382e+01 2.0608491275619240e+01 2.0661661418017880e+00 0 0 0
  78 1 1 3.4647071458377837e+01 2.0407741355112531e+01 1.6871833961478937e+00 0 0 0
  79 1 2 3.4598014447728296e+01 2.0159797704641765e+01 2.6355116584875011e+00 0 0 0
  80 1 3 3.4876442499737458e+01 1.9350167696740094e+01 2.0911205136666826e+00 0 0 0
  81 1 2 3.5205939756286952e+01 1.9308619740828796e+01 3.0019588317638783e+00 0 0 0
  82 1 2 3.5518076240194453e+01 1.8535801513444270e+01 2.4855792024845158e+00 0 0 0
  83 1 2 3.6269923951266748e+01 1.8882651641832091e+01 2.9456469926821311e+00 0 0 0
  84 1 1 3.6187965960953669e+01 1.7942512487753127e+01 3.1631510197144426e+00 0 0 0
  85 1 2 3.6737607245401634e+01 1.8041493925346664e+01 2.4069980528590835e+00 0 0 0
  86 1 2 3.6300178185859913e+01 1.7171366896409765e+01 2.3743704463471667e+00 0 0 0
  87 1 2 3.7267416927032997e+01 1.6990699211778182e+01 2.5293181513570926e+00 0 0 0
  88 1 2 3.6595421118482854e+01 1.6561061739004952e+01 3.1372890488910734e+00 0 0 0
  89 1 2 3.7355569945247751e+01 1.6062390890315697e+01 3.1563825419532230e+00 0 0 0
  90 1 2 3.6585481877443421e+01 1.5489928912004650e+01 3.2412110212062561e+00 0 0 0
  91 1 2 3.6575897713472592e+01 1.5720918170353780e+01 2.3155633046899604e+00 0 0 0
  92 1 2 3.5693557696568881e+01 1.5428484261671247e+01 2.4747048035963979e+00 0 0 0
  93 1 2 3.5638051007679181e+01 1.6124446997635566e+01 1.7493199198838267e+00 0 0 0
  94 1 2 3.4917983190741374e+01 1.5369903172130599e+01 1.7301940559703621e+00 0 0 0
  95 1 1 3.4635554209075437e+01 1.6176883376434134e+01 1.2459022954148642e+00 0 0 0
  96 1 1 3.4056981309140539e+01 1.5535060152218431e+01 1.0341908264752211e+00 0 0 0
  97 1 2 3.4090430736834847e+01 1.6255704154861274e+01 3.5105266578126315e-01 0 0 0
  98 1 2 3.3360475977299615e+01 1.6444290735796859e+01 1.0341329015456802e+00 0 0 0
  99 1 2 3.3139491969031305e+01 1.5638853497753633e+01 5.5873803137534117e-01 0 0 0
  100 1 2 3.2414127079408900e+01 1.5827855285337581e+01 1.1395217847390411e+00 0 0 0
  101 1 2 3.2144394705870837e+01 1.5323664073575163e+01 4.2279565269630781e-01 0 0 0
  102 1 2 3.2038692092294475e+01 1.4859092928109876e+01 1.2261380414128349e+00 0 0 0
  103 1 2 3.1477974538989837e+01 1.4444911068664210e+01 5.5542906072176590e-01 0 0 0
  104 1 2 3.2159029913795081e+01 1.3725064813253811e+01 8.2506298011065338e-01 0 0 0
  105 1 2 3.1741217325949410e+01 1.3521106575093420e+01 -2.6428320995093568e-05 0 0 0
  106 1 2 3.2136875587993657e+01 1.2734402558006245e+01 4.0463289546568659e-01 0 0 0
  107 1 1 3.2831557547092991e+01 1.3109243840638545e+01 -1.4291990590713263e-01 0 0 0
  108 1 2 3.2112927425292575e+01 1.2700133486704919e+01 -6.9629228049710368e-01 0 0 0
  109 1 1 3.2804892487735984e+01 1.1949068497327817e+01 -5.0796910381557980e-01 0 0 0
  110 1 1 3.1978779320840424e+01 1.1797637325103251e+01 -5.1152382825358014e-02 0 0 0
  111 1 2 3.2599112218706580e+01 1.1089772501583724e+01 1.9670092748353690e-01 0 0 0
  112 1 2 3.1666213728469774e+01 1.0760786888201554e+01 2.5094742037440460e-01 0 0 0
  113 1 2 3.2177704721284336e+01 1.0237250057183841e+01 -4.2026445108719623e-01 0 0 0
  114 1 2 3.1468500107629737e+01 9.6916429667724771e+00 -4.1942624264856031e-02 0 0 0
  115 1 2 3.1827583282723641e+01 9.1219875274991118e+00 -7.0132625674174409e-01 0 0 0
  116 1 2 3.0847120812537252e+01 8.8389504051028016e+00 -4.9550096538872107e-01 0 0 0
  117 1 2 3.1425479241044371e+01 8.3346844105314215e+00 6.2103230827876651e-02 0 0 0
  118 1 2 3.0468533963571780e+01 7.9880091412961036e+00 5.7035822322603319e-02 0 0 0
  119 1 2 3.0966188459376536e+01 7.3698824944984409e+00 -4.0716120587626148e-01 0 0 0
  120 1 2 3.0946603110451829e+01 7.0508345978123632e+00 5.9114967716317035e-01 0 0 0
  121 1 2 3.1768603960326864e+01 6.7933993742792609e+00 5.6033123870319848e-02 0 0 0
  122 1 2 3.1560378843725921e+01 6.1453326665756700e+00 7.4735248858520664e-01 0 0 0
  123 1 2 3.2349719878127345e+01 5.7929920488438533e+00 2.3539159859697842e-01 0 0 0
  124 1 2 3.1678605725913009e+01 5.0893465019583273e+00 4.7184390233308227e-01 0 0 0
  125 1 2 3.2524448304000131e+01 4.7013779659879198e+00 6.7460967046248255e-01 0 0 0
  126 1 3 3.2230876270517335e+01 4.4215442392793030e+00 -2.0494998245161725e-01 0 0 0
  127 1 2 3.2207515104728543e+01 3.6264767721995836e+00 3.6721892216577018e-01 0 0 0
  128 1 2 3.1391338003641160e+01 3.7824081904678368e+00 -1.3634133979063165e-01 0 0 0
  129 1 2 3.1223077571852563e+01 3.2371238555396218e+00 6.4072725080375348e-01 0 0 0
  130 1 2 3.0936109818785365e+01 2.6834048448680243e+00 -1.6049067473238107e-01 0 0 0
  131 1 2 3.1310548702416078e+01 2.1626112665021497e+00 5.2234170254122980e-01 0 0 0
  132 1 2 3.1630585436227289e+01 1.8663158949077081e+00 -3.9477961726975569e-01 0 0 0
  133 1 1 3.1090702698923064e+01 1.1773873126638428e+00 -2.1019959927458511e-02 0 0 0
  134 1 2 3.1771047083944843e+01 7.4175839203824334e-01 -5.8266286206858176e-01 0 0 0
  135 1 2 3.1457579748954654e+01 2.3083464678099738e-01 1.8549416679038919e-01 0 0 0
  136 1 2 3.1523747127526899e+01 -3.0724449698667616e-01 -5.4414204027928847e-01 0 0 0
  137 1 2 3.0889000089575269e+01 -7.5776883316462018e-01 3.2254416384433077e-02 0 0 0
  138 1 2 3.1280864964117470e+01 -1.4137690484399239e+00 -6.5867085897547895e-01 0 0 0
  139 1 2 3.0615428743796379e+01 -1.7937182550672641e+00 -9.6981092670621868e-02 0 0 0
  140 1 2 3.1349621525143252e+01 -2.4380203750345757e+00 -2.0404931509345173e-01 0 0 0
  141 1 2 3.1226101009345339e+01 -2.4356928590383711e+00 7.5577551615882244e-01 0 0 0
  142 1 2 3.2175989329847297e+01 -2.5450982806057820e+00 5.1138913292940291e-01 0 0 0
  143 1 2 3.1961639262674378e+01 -3.1455684983530023e+00 1.1989573435874652e+00 0 0 0
  144 1 2 3.2523099865178914e+01 -3.5658642915177339e+00 4.7980178667256179e-01 0 0 0
  145 1 2 3.2967438089024519e+01 -3.5891877796257865e+00 1.3161061018619962e+00 0 0 0
  146 1 2 3.3654038581251719e+01 -3.6302632952802267e+00 5.7397272175663783e-01 0 0 0
  147 1 2 3.4096339732314753e+01 -3.8069417252397937e+00 1.3893426136449551e+00 0 0 0
  148 1 3 3.4379401577968018e+01 -4.3648599084162711e+00 6.6840273433241948e-01 0 0 0
  149 1 2 3.3971724268324671e+01 -4.9503543267377292e+00 1.3005352205538270e+00 0 0 0
  150 1 2 3.3465781790672452e+01 -5.1959273886641624e+00 5.3479979347812234e-01 0 0 0
  151 1 2 3.4327329910532740e+01 -5.6233592431782871e+00 5.4834318848894015e-01 0 0 0
  152 1 2 3.4206674832004339e+01 -5.3962565446978035e+00 -3.3811065417102215e-01 0 0 0
  153 1 2 3.5058957184250765e+01 -5.9425055574793157e+00 -1.7888941782431278e-01 0 0 0
  154 1 2 3.4843150477751465e+01 -5.8203777742262144e+00 -1.0908772139549137e+00 0 0 0
  155 1 2 3.4216042641195791e+01 -6.4394355160247851e+00 -8.0609529740325447e-01 0 0 0
  156 1 2 3.4387788133302948e+01 -6.6793063714325944e+00 -1.6842929896061880e+00 0 0 0
  157 1 2 3.3909994734852333e+01 -7.4047470932231807e+00 -1.3426167738788484e+00 0 0 0
  158 1 2 3.3373451166260807e+01 -6.8772577155556238e+00 -1.9764254159420074e+00 0 0 0
  159 1 2 3.2823270374188709e+01 -7.1774654264653046e+00 -1.2369593488848827e+00 0 0 0
  160 1 2 3.2665531397235732e+01 -6.2635017146651251e+00 -1.3980508110561243e+00 0 0 0
  161 1 2 3.2327591034646538e+01 -6.8256181231807274e+00 -2.1741528034808431e+00 0 0 0
  162 1 2 3.1589213521845597e+01 -6.7868519894947630e+00 -1.5100472363973820e+00 0 0 0
  163 1 2 3.1490671171645968e+01 -7.5719963201906202e+00 -1.9750293586111671e+00 0 0 0
  164 1 2 3.0665602171367791e+01 -7.4358935869923615e+00 -1.5381424361390632e+00 0 0 0
  165 1 2 3.0652936894373873e+01 -6.7619672251851783e+00 -2.2262971731679970e+00 0 0 0
  166 1 2 2.9969848634314793e+01 -7.4345529423213339e+00 -2.4402190245954212e+00 0 0 0
  167 1 2 3.0141952485949037e+01 -6.8008383831987098e+00 -3.2389924088467663e+00 0 0 0
  168 1 2 3.0709825154155645e+01 -7.5675767622165457e+00 -3.3395165915930951e+00 0 0 0
  169 1 2 3.1296679860301875e+01 -6.7204948595951857e+00 -3.3230975873910698e+00 0 0 0
  170 1 2 3.0745820760319646e+01 -6.7380262948719256e+00 -4.1503672785751444e+00 0 0 0
  171 1 2 3.1726205644859697e+01 -6.6769718766425727e+00 -4.3220518890910382e+00 0 0 0
  172 1 2 3.1233186890531034e+01 -6.5501515331094708e+00 -5.1534947303833256e+00 0 0 0
  173 1 2 3.1443756422281940e+01 -7.4337269862190842e+00 -5.0896494508084311e+00 0 0 0
  174 1 2 3.1960013239004066e+01 -7.1034795438154541e+00 -5.7768220925166531e+00 0 0 0
  175 1 2 3.2473883620632186e+01 -7.7410745384144430e+00 -5.2772820429273208e+00 0 0 0
  176 1 2 3.2222785107803908e+01 -8.1249913389517641e+00 -6.1287982465556219e+00 0 0 0
  177 1 2 3.1858698796588033e+01 -8.6243493769790955e+00 -5.3518384104264527e+00 0 0 0
  178 1 3 3.2585807421489868e+01 -9.0705125581766115e+00 -5.8026847468554603e+00 0 0 0
  179 1 2 3.1794981500852145e+01 -9.6241903943687195e+00 -5.8567526919597599e+00 0 0 0
  180 1 2 3.2552692644197556e+01 -1.0188988310342237e+01 -6.0846252791975841e+00 0 0 0
  181 1 2 3.1766815177155859e+01 -1.0519728091945092e+01 -6.4602294189390772e+00 0 0 0
  182 1 2 3.2593460295162522e+01 -1.0846485161244843e+01 -6.9184053705439084e+00 0 0 0
  183 1 2 3.1912094891169364e+01 -1.1406557304778481e+01 -7.0723945247247970e+00 0 0 0
  184 1 2 3.2234821637424517e+01 -1.1170660898495793e+01 -7.9695902709789479e+00 0 0 0
  185 1 2 3.1703381060445047e+01 -1.1942264895469490e+01 -8.1755463897219993e+00 0 0 0
  186 1 2 3.2477292955484529e+01 -1.1960931063616099e+01 -8.7414960179315724e+00 0 0 0
  187 1 2 3.2261317186039527e+01 -1.2919140317817069e+01 -8.5570748395719001e+00 0 0 0
  188 1 2 3.3260647016723944e+01 -1.2696908748745303e+01 -8.5041207075570071e+00 0 0 0
  189 1 3 3.3074653330026919e+01 -1.3623412664834083e+01 -8.1892929785784130e+00 0 0 0
  190 1 2 3.2871302336851393e+01 -1.3028095340168390e+01 -7.4970348310141350e+00 0 0 0
  191 1 1 3.2402170265768191e+01 -1.3916680742282205e+01 -7.4397663509562495e+00 0 0 0
  192 1 1 3.1886296400969027e+01 -1.3166837320526593e+01 -7.1409800245742101e+00 0 0 0
  193 1 1 3.1540753359474383e+01 -1.4051869990056110e+01 -6.8842894827925250e+00 0 0 0
  194 1 1 3.2184136377157209e+01 -1.3698562858790675e+01 -6.2928708892216232e+00 0 0 0
  195 1 1 3.1705840993318542e+01 -1.4417781732987377e+01 -5.8597368743738443e+00 0 0 0
  196 1 1 3.2594240440039727e+01 -1.4652663925965312e+01 -5.6617269468764162e+00 0 0 0
  197 1 1 3.2095568606769667e+01 -1.5510455306204586e+01 -5.8125994740655980e+00 0 0 0
  198 1 1 3.2312326831692438e+01 -1.5366746356364487e+01 -4.8513553294064122e+00 0 0 0
  199 1 1 3.1442007499229298e+01 -1.5837326006302863e+01 -4.8871693503661122e+00 0 0 0
  200 1 1 3.1268906687694496e+01 -1.5122931764613927e+01 -4.2826953368854781e+00 0 0 0
  201 1 1 3.0867669056135458e+01 -1.4984635195252549e+01 -5.1772437898907659e+00 0 0 0
  202 1 1 3.0161582303613059e+01 -1.5007669398227929e+01 -4.4773106268807563e+00 0 0 0
  203 1 1 3.0031805073531039e+01 -1.5677759510843206e+01 -5.1553949632272964e+00 0 0 0
  204 1 1 2.9409865978276535e+01 -1.4897495280977905e+01 -5.2385264037158201e+00 0 0 0
  205 1 1 2.8973752709840557e+01 -1.5689326908884222e+01 -5.1132777071950528e+00 0 0 0
  206 1 1 2.9234322627689149e+01 -1.5427216620570780e+01 -4.2607812460286159e+00 0 0 0
  207 1 1 2.8323224103638537e+01 -1.5519894454763739e+01 -4.1425129213649843e+00 0 0 0
  208 1 1 2.8377169209899829e+01 -1.4828878616991132e+01 -4.7996435430018733e+00 0 0 0
  209 1 1 2.7540667397913591e+01 -1.4805978227934814e+01 -4.4075934858423746e+00 0 0 0
  210 1 1 2.7491952759974971e+01 -1.4021929414627250e+01 -5.0094335039925273e+00 0 0 0
  211 1 1 2.8019341413493862e+01 -1.3873818561220354e+01 -4.2031410213370863e+00 0 0 0
  212 1 1 2.7654497851211577e+01 -1.3071329419087752e+01 -4.5946009670576133e+00 0 0 0
  213 1 1 2.7857301998104116e+01 -1.2893965789228366e+01 -3.6535851292437687e+00 0 0 0
  214 1 1 2.6881239457115935e+01 -1.2614260003782221e+01 -3.8861443782765153e+00 0 0 0
  215 1 1 2.6886972975827437e+01 -1.2887492316355843e+01 -2.9829484979718939e+00 0 0 0
  216 1 1 2.6231280083927736e+01 -1.2234226788058175e+01 -3.1141076027365329e+00 0 0 0
  217 1 1 2.5963954368362408e+01 -1.2989111182376019e+01 -3.6366008693322329e+00 0 0 0
  218 1 1 2.5261431565775947e+01 -1.2323145030510073e+01 -3.4760474486255539e+00 0 0 0
  219 1 1 2.5204946666652592e+01 -1.3115123935441030e+01 -2.9343820010353361e+00 0 0 0
  220 1 1 2.4367414283134682e+01 -1.2898823443797630e+01 -3.2636458510611037e+00 0 0 0
  221 1 1 2.4226791976190494e+01 -1.3656608889822570e+01 -2.6316351365406399e+00 0 0 0
  222 1 1 2.3887351971405774e+01 -1.2913433621283895e+01 -2.2172800279318952e+00 0 0 0
  223 1 1 2.4347387244894477e+01 -1.3569286398390757e+01 -1.5886586860864433e+00 0 0 0
  224 1 1 2.4214877389149532e+01 -1.2648716185526242e+01 -1.2797132608501509e+00 0 0 0
  225 1 1 2.3354826726527183e+01 -1.3100936985847014e+01 -1.3677959217600988e+00 0 0 0
  226 1 1 2.3308996289273828e+01 -1.2338379324120261e+01 -7.9310699694444908e-01 0 0 0
  227 1 1 2.2748635811699387e+01 -1.2988538407050118e+01 -4.9360283114123538e-01 0 0 0
  228 1 1 2.3366159812790443e+01 -1.2778378542632911e+01 3.4113207407569240e-01 0 0 0
  229 1 1 2.2606152728094450e+01 -1.3191856093954305e+01 7.0440271173860725e-01 0 0 0
  230 1 1 2.3379811116364920e+01 -1.3776085114075281e+01 8.0190754007888265e-01 0 0 0
  231 1 1 2.2644838420818385e+01 -1.4138199388274092e+01 1.3268896946588333e+00 0 0 0
  232 1 1 2.2393405865219826e+01 -1.4133438678995816e+01 4.1464909653358645e-01 0 0 0
  233 1 1 2.1760978782930639e+01 -1.3600718864022051e+01 9.4383843324386241e-01 0 0 0
  234 1 1 2.1574253545769380e+01 -1.3379650897208366e+01 7.7954034536885319e-02 0 0 0
  235 1 1 2.0864521674593199e+01 -1.2957954372243522e+01 7.0802757463748411e-01 0 0 0
  236 1 1 2.0577017519164645e+01 -1.2874260135195872e+01 -1.5655997857122517e-01 0 0 0
  237 1 1 2.0458942175414542e+01 -1.2052549799327071e+01 2.9096932114994006e-01 0 0 0
  238 1 1 2.1114065507015237e+01 -1.1882563560457887e+01 -4.0062504052896547e-01 0 0 0
  239 1 1 2.0380437694943467e+01 -1.1280970236703629e+01 -5.6492663559876499e-01 0 0 0
  240 1 1 2.0134013603409596e+01 -1.2116065995942808e+01 -9.3307531857332093e-01 0 0 0
  241 1 1 1.9415431744762028e+01 -1.1648601279290077e+01 -6.0189123086775587e-01 0 0 0
  242 1 1 1.9341662029258160e+01 -1.1974968103614136e+01 -1.5013702938274898e+00 0 0 0
  243 1 1 1.8540100564285808e+01 -1.2216393828183424e+01 -1.0137131536509905e+00 0 0 0
  244 1 1 1.9267431685117284e+01 -1.2810935760279108e+01 -8.1199134174778054e-01 0 0 0
  245 1 1 1.8951854038136251e+01 -1.3115651626634111e+01 -1.6557784169945640e+00 0 0 0
  246 1 1 1.8930930426029317e+01 -1.3813114847170661e+01 -1.0301498009981878e+00 0 0 0
  247 1 1 1.8362585844142313e+01 -1.3956474244045044e+01 -1.7901619098242769e+00 0 0 0
  248 1 1 1.7844317332611116e+01 -1.3936235019633587e+01 -9.1836731293667873e-01 0 0 0
  249 1 1 1.7939449882485786e+01 -1.4812760575461812e+01 -1.2952777861192923e+00 0 0 0
  250 1 1 1.7188457300686508e+01 -1.4382179848945201e+01 -1.7130956725854123e+00 0 0 0
  251 1 1 1.6938476079228476e+01 -1.4913329140513103e+01 -9.6255636764884089e-01 0 0 0
  252 1 1 1.6653807890326508e+01 -1.5353913134354690e+01 -1.8511967466075026e+00 0 0 0
  253 1 1 1.6739463658966155e+01 -1.6029735411299992e+01 -1.2104305354513814e+00 0 0 0
  254 1 1 1.6276355483381771e+01 -1.6403246544308786e+01 -1.9581746440025640e+00 0 0 0
  255 1 1 1.6184904618256880e+01 -1.6994170301869172e+01 -1.2120281182106953e+00 0 0 0
  256 1 1 1.5497934346231062e+01 -1.7082323427008280e+01 -1.9312763297152413e+00 0 0 0
  257 1 1 1.5858768991120886e+01 -1.7968760014285483e+01 -1.7058358197215959e+00 0 0 0
  258 1 1 1.4917537013000176e+01 -1.8088879272036777e+01 -2.0801507245263853e+00 0 0 0
  259 1 1 1.5586455570617224e+01 -1.8034144915267841e+01 -2.7262219799796763e+00 0 0 0
  260 1 1 1.4889114470425513e+01 -1.7351719275213409e+01 -2.8210586414017094e+00 0 0 0
  261 1 1 1.5207717364276768e+01 -1.7558449213561719e+01 -3.6893657529777557e+00 0 0 0
  262 1 1 1.4276553128496209e+01 -1.7318502333430974e+01 -3.7176921791265012e+00 0 0 0
  263 1 1 1.4373310346352527e+01 -1.8318514304934101e+01 -3.9362260205147304e+00 0 0 0
  264 1 1 1.4812272055056651e+01 -1.7793127595303016e+01 -4.6086409860535991e+00 0 0 0
  265 1 1 1.5313877745201284e+01 -1.8581262307063774e+01 -4.4459577884916852e+00 0 0 0
  266 1 1 1.5160113194753668e+01 -1.8572160921650777e+01 -5.3832998167138735e+00 0 0 0
  267 1 1 1.4761675599743652e+01 -1.9403473808185108e+01 -5.0712333573408594e+00 0 0 0
  268 1 1 1.4097478249655126e+01 -1.8650850593350636e+01 -5.0720631066426662e+00 0 0 0
  269 1 1 1.3777197721545347e+01 -1.9360119568197923e+01 -5.6111073778183327e+00 0 0 0
  270 1 1 1.3193827875852424e+01 -1.8704774647551933e+01 -5.8832995193727289e+00 0 0 0
  271 1 1 1.2715477722491668e+01 -1.9524847340695278e+01 -5.8547962573679415e+00 0 0 0
  272 1 1 1.2765451592945331e+01 -1.9163790920410356e+01 -6.7285541534621247e+00 0 0 0
  273 1 1 1.2898315087098128e+01 -2.0093520717235492e+01 -6.8976896216650188e+00 0 0 0
  274 1 1 1.1941848281188575e+01 -1.9972643154382652e+01 -6.7157681982835697e+00 0 0 0
  275 1 1 1.2138674276462687e+01 -1.9947287696988138e+01 -7.6987005629519336e+00 0 0 0
  276 1 1 1.1245874749801287e+01 -2.0295527604956121e+01 -7.5721612581953339e+00 0 0 0
  277 1 1 1.1354258237006736e+01 -1.9788674736530435e+01 -8.3883976498242170e+00 0 0 0
  278 1 1 1.0858937443616675e+01 -1.9202700399672946e+01 -7.7162988833419881e+00 0 0 0
  279 1 1 1.0896875988337113e+01 -1.8849610423369580e+01 -8.5377938742706494e+00 0 0 0
  280 1 1 9.9914276643754292e+00 -1.8955058621986481e+01 -8.3411258553380723e+00 0 0 0
  281 1 1 1.0112718609324507e+01 -1.9104132418907433e+01 -9.3238692787395490e+00 0 0 0
  282 1 1 9.9502484005477658e+00 -1.9900733873878174e+01 -8.8014987497048338e+00 0 0 0
  283 1 1 9.6372913422112259e+00 -2.0076245590051979e+01 -9.7169724698358788e+00 0 0 0
  284 1 1 1.0644203737410022e+01 -1.9963299389561843e+01 -9.7560462332949580e+00 0 0 0
  285 1 1 1.0182886788989888e+01 -1.9445246029765805e+01 -1.0453009299607718e+01 0 0 0
  286 1 1 1.1037029323219821e+01 -1.9831061471591219e+01 -1.0762765663597291e+01 0 0 0
  287 1 1 1.0714522135647726e+01 -1.9114451529010800e+01 -1.1389535731845966e+01 0 0 0
  288 1 1 1.0654295517281030e+01 -2.0009330463923085e+01 -1.1810113614018819e+01 0 0 0
  289 1 1 1.0055092652503069e+01 -1.9408789487425384e+01 -1.2343086819047082e+01 0 0 0
  290 1 1 9.5890423664419338e+00 -1.9511648209789442e+01 -1.1529697727080634e+01 0 0 0
  291 1 1 9.6562846677266538e+00 -2.0367873554779042e+01 -1.1924373944061967e+01 0 0 0
  292 1 1 8.7408358162334547e+00 -2.0306670233226360e+01 -1.1635990349491248e+01 0 0 0
  293 1 1 8.6958664628575448e+00 -2.0744509327009350e+01 -1.2461899263461380e+01 0 0 0
  294 1 1 7.9596653631759180e+00 -2.1066454699119689e+01 -1.1956216950343556e+01 0 0 0
  295 1 1 8.0887131841955995e+00 -2.1709335098338851e+01 -1.2664830229404691e+01 0 0 0
  296 1 1 7.6015565485104366e+00 -2.2058715535307972e+01 -1.1901252177481547e+01 0 0 0
  297 1 1 7.0144451666777705e+00 -2.1640580247996599e+01 -1.2538977634622931e+01 0 0 0
  298 1 4 6.9299815985137583e+00 -2.1250488541800458e+01 -1.1690511159822119e+01 0 0 0
  299 1 1 6.4480155060550439e+00 -2.2042152063758799e+01 -1.1558810118730412e+01 0 0 0
  300 1 1 6.5069464239364931e+00 -2.1624797957318066e+01 -1.0706906210614617e+01 0 0 0
  301 1 1 6.6195856512596203e+00 -2.2582573270712047e+01 -1.0578018777087030e+01 0 0 0
  302 1 1 6.5601915933299653e+00 -2.2157810011164610e+01 -9.7209561440004499e+00 0 0 0
  303 1 1 6.8948838336194429e+00 -2.3005132321551169e+01 -9.5575322708686468e+00 0 0 0
  304 1 1 6.0988836489682665e+00 -2.2903646454894421e+01 -9.0663249583093020e+00 0 0 0
  305 1 1 6.5999620935084460e+00 -2.3702571284494724e+01 -8.7182946750485897e+00 0 0 0
  306 1 1 5.6628706634462951e+00 -2.3842476754057767e+01 -8.7380845240727929e+00 0 0 0
  307 1 1 5.9570434737646210e+00 -2.4638105921008997e+01 -8.3654305450769346e+00 0 0 0
  308 1 1 5.7239966508474689e+00 -2.4082915433495220e+01 -7.6589391112642957e+00 0 0 0
  309 1 1 5.0591809125716694e+00 -2.4777892200976609e+01 -7.5643395525725081e+00 0 0 0
  310 1 1 4.6310173093148421e+00 -2.3945760827131128e+01 -7.5310532930314089e+00 0 0 0
  311 1 1 4.3808110884682572e+00 -2.4517557935992912e+01 -6.7854973387138102e+00 0 0 0
  312 1 1 3.5250797360634230e+00 -2.4139685786080559e+01 -7.1901306940266139e+00 0 0 0
  313 1 1 3.3322806775371832e+00 -2.4735369300602045e+01 -6.5506704515271830e+00 0 0 0
  314 1 1 2.4695608368632573e+00 -2.4562171415536401e+01 -6.9675177873809169e+00 0 0 0
  315 1 1 2.5463522554226818e+00 -2.4765308477761007e+01 -5.9482068102811505e+00 0 0 0
  316 1 1 2.1246598186323165e+00 -2.3937502876238462e+01 -6.1268571496703919e+00 0 0 0
  317 1 1 1.6204674663733665e+00 -2.4285308939704798e+01 -5.3856599885303034e+00 0 0 0
  318 1 1 1.0015829748794594e+00 -2.4016521346199340e+01 -6.0711426845952321e+00 0 0 0
  319 1 1 1.0039108392823068e+00 -2.3495203190670907e+01 -5.2555803887313255e+00 0 0 0
  320 1 1 6.2384019404866320e-01 -2.2986718563636991e+01 -5.9616365392783317e+00 0 0 0
  321 1 1 -2.2396281575306477e-02 -2.3661255277459230e+01 -5.7200321020272806e+00 0 0 0
  322 1 1 3.3573020730289782e-02 -2.3606882721478236e+01 -6.6971985276828976e+00 0 0 0
  323 1 1 -9.5556038920963726e-01 -2.3748042716185971e+01 -6.3569185570498377e+00 0 0 0
  324 1 1 -8.9140462417303801e-01 -2.2864794235437458e+01 -6.7934412384979286e+00 0 0 0
  325 1 2 -1.7860530690121585e+00 -2.3110936537768438e+01 -6.5741233726141735e+00 0 0 0
  326 1 3 -1.7385806799557917e+00 -2.2198746869454542e+01 -6.9990343758513101e+00 0 0 0
  327 1 1 -2.6253168630714607e+00 -2.2556700264964334e+01 -7.0021043149415663e+00 0 0 0
  328 1 1 -2.4920406418224066e+00 -2.2192952434300583e+01 -6.1538567515870843e+00 0 0 0
  329 1 1 -3.2974770559488271e+00 -2.1852021481903400e+01 -6.3787615684969605e+00 0 0 0
  330 1 1 -3.3715075686162725e+00 -2.2479383408544518e+01 -5.6531214757607255e+00 0 0 0
  331 1 1 -4.2914760141072668e+00 -2.2078929732821614e+01 -5.7532207033434641e+00 0 0 0
  332 1 1 -4.3278388369402228e+00 -2.2968053886888132e+01 -5.2943731867705717e+00 0 0 0
  333 1 1 -4.8986157523148659e+00 -2.2951169951246449e+01 -6.0405635097205819e+00 0 0 0
  334 1 1 -4.8407335355926611e+00 -2.3872328294504850e+01 -5.7582098196240761e+00 0 0 0
  335 1 1 -4.1116256660471269e+00 -2.3712032746699236e+01 -6.4021003811611941e+00 0 0 0
  336 1 1 -4.9073833310045281e+00 -2.3822619591121644e+01 -6.9279424834671604e+00 0 0 0
  337 1 1 -4.1846155891456984e+00 -2.4372168450396867e+01 -7.2990818041945120e+00 0 0 0
  338 1 1 -5.0119638783532752e+00 -2.4527785429062298e+01 -7.7099122867030170e+00 0 0 0
  339 1 1 -4.8093647458524300e+00 -2.5313898807311290e+01 -7.2338139910005692e+00 0 0 0
  340 1 1 -5.3810489845529963e+00 -2.4754634541704188e+01 -6.7181673043492118e+00 0 0 0
  341 1 1 -5.8866789835684941e+00 -2.5485408325871198e+01 -7.2675457037479489e+00 0 0 0
  342 1 1 -5.5392673142021591e+00 -2.5707665826373908e+01 -6.3691863534343325e+00 0 0 0
  343 1 1 -6.4218650322917590e+00 -2.5299485011562428e+01 -6.2717021507058170e+00 0 0 0
  344 1 1 -6.4071284891361335e+00 -2.6114593932416124e+01 -5.8314059957577369e+00 0 0 0