LAMMPS data file via write_data, version 7 Dec 2015, timestep = 20000

10000 atoms
5 atom types
9399 bonds
3 bond types
4998 angles
1 angle types
2 extra bond per atom

-7.5000000000000000e+01 7.5000000000000000e+01 xlo xhi
-7.5000000000000000e+01 7.5000000000000000e+01 ylo yhi
-7.5000000000000000e+01 7.5000000000000000e+01 zlo zhi

Masses

1 1
2 1
3 1
4 1
5 1

Atoms

  1 1 1 3.0897795655834912e+01 -4.3123706265092125e+01 -2.5464183113677016e+01 0 0 0
  2 1 1 3.0761503736794982e+01 -4.2374305894206714e+01 -2.6131064710908479e+01 0 0 0
  3 1 1 2.9899342004025659e+01 -4.2710684449884226e+01 -2.5758973421738403e+01 0 0 0
  4 1 1 3.0095538663494864e+01 -4.1882340507615382e+01 -2.5326351339792176e+01 0 0 0
  5 1 1 2.9357811932986625e+01 -4.2367969569735912e+01 -2.4981796039911362e+01 0 0 0
  6 1 1 2.8982074990141388e+01 -4.1757186710320184e+01 -2.5596104314745720e+01 0 0 0
  7 1 1 2.9403324737395760e+01 -4.1232396014460925e+01 -2.4861789362564693e+01 0 0 0
  8 1 1 2.9067224603430905e+01 -4.0697976500135397e+01 -2.5545616272147480e+01 0 0 0
  9 1 2 2.8455377239811746e+01 -4.0856353482418648e+01 -2.4745126106768911e+01 0 0 0
  10 1 2 2.8715080082129731e+01 -3.9912838861759290e+01 -2.4985569060760668e+01 0 0 0
  11 1 1 2.9227829404157141e+01 -4.0211609445103164e+01 -2.4192537013874741e+01 0 0 0
  12 1 1 2.8381790069749975e+01 -3.9689534893198555e+01 -2.3967135933580337e+01 0 0 0
  13 1 2 2.8596871283798077e+01 -4.0275586121525073e+01 -2.3290809820936062e+01 0 0 0
  14 1 2 2.8298149629111276e+01 -3.9458112102193525e+01 -2.2865476163354341e+01 0 0 0
  15 1 2 2.8205660667584205e+01 -4.0223028524308205e+01 -2.2332980931673905e+01 0 0 0
  16 1 2 2.8730852750707157e+01 -3.9572360287685662e+01 -2.1865386875837821e+01 0 0 0
  17 1 2 2.8469443302644866e+01 -4.0145470993012523e+01 -2.1217988794876995e+01 0 0 0
  18 1 2 2.8900590435022622e+01 -3.9504627900976935e+01 -2.0646322793055162e+01 0 0 0
  19 1 2 2.8015961344891060e+01 -3.9090270401247132e+01 -2.0826290925052394e+01 0 0 0
  20 1 2 2.7996762706354119e+01 -3.9352615506801961e+01 -1.9884859631769174e+01 0 0 0
  21 1 2 2.8610147682475972e+01 -3.8657664701756701e+01 -2.0069024224805290e+01 0 0 0
  22 1 2 2.8304413955086869e+01 -3.8617946292111576e+01 -1.9159639373518921e+01 0 0 0
  23 1 2 2.7996673315461422e+01 -3.7808664717083872e+01 -1.9591912019047658e+01 0 0 0
  24 1 2 2.8517475276870766e+01 -3.7588042253806741e+01 -1.8805493756515869e+01 0 0 0
  25 1 2 2.7587145381695397e+01 -3.7268903979189474e+01 -1.8793496090556665e+01 0 0 0
  26 1 1 2.8058889778165273e+01 -3.6799157715256300e+01 -1.8129194038379424e+01 0 0 0
  27 1 2 2.7185833435461358e+01 -3.6617282945013606e+01 -1.7986593995184421e+01 0 0 0
  28 1 2 2.7600447223670972e+01 -3.5823388200003755e+01 -1.8394961262793974e+01 0 0 0
  29 1 1 2.7240145193526065e+01 -3.5570645677700270e+01 -1.7530077719513262e+01 0 0 0
  30 1 1 2.8012121238314730e+01 -3.5083233721067927e+01 -1.7552704526617489e+01 0 0 0
  31 1 1 2.7981544255533461e+01 -3.5509136588916490e+01 -1.6710729459911775e+01 0 0 0
  32 1 1 2.7312604416133794e+01 -3.4807732892766410e+01 -1.6734612255899584e+01 0 0 0
  33 1 1 2.7683708762934451e+01 -3.4748790853516191e+01 -1.5840285477283857e+01 0 0 0
  34 1 1 2.7844855493873084e+01 -3.3912317816554221e+01 -1.6351303951456622e+01 0 0 0
  35 1 1 2.8639344790609872e+01 -3.4469554252576508e+01 -1.6338117060480997e+01 0 0 0
  36 1 1 2.8885471881331640e+01 -3.3559066926248960e+01 -1.6320899003102340e+01 0 0 0
  37 1 2 2.9482251505941313e+01 -3.4197279976879805e+01 -1.5853866715651030e+01 0 0 0
  38 1 1 2.9338219747869996e+01 -3.3540909018495014e+01 -1.5221328352387285e+01 0 0 0
  39 1 1 3.0017511552551451e+01 -3.4155500944163165e+01 -1.4915270925133374e+01 0 0 0
  40 1 1 2.9344975375371476e+01 -3.3922213285470626e+01 -1.4265014622635992e+01 0 0 0
  41 1 2 2.9430996299600924e+01 -3.4834849453718860e+01 -1.4228928700721788e+01 0 0 0
  42 1 2 2.8589317133506874e+01 -3.4648767186538961e+01 -1.3795800312629099e+01 0 0 0
  43 1 1 2.8459050083891505e+01 -3.5131153937585793e+01 -1.4689017136703850e+01 0 0 0
  44 1 2 2.7837192105076866e+01 -3.5364006158556897e+01 -1.3972514032779412e+01 0 0 0
  45 1 2 2.7460780940409663e+01 -3.4530427650472760e+01 -1.4403589605745823e+01 0 0 0
  46 1 2 2.6823451580766051e+01 -3.4942842899679334e+01 -1.3724146273540635e+01 0 0 0
  47 1 2 2.6748468309857735e+01 -3.4035944644711648e+01 -1.3566151719416228e+01 0 0 0
  48 1 2 2.7326659788322981e+01 -3.4504740580979806e+01 -1.2919835558230385e+01 0 0 0
  49 1 2 2.7154457707134583e+01 -3.3637305768556423e+01 -1.2579226324802670e+01 0 0 0
  50 1 2 2.8149229472790608e+01 -3.3787290062967777e+01 -1.2629518941504271e+01 0 0 0
  51 1 2 2.7792225093491794e+01 -3.3552582027048530e+01 -1.1766183463227888e+01 0 0 0
  52 1 2 2.8607322840411520e+01 -3.3037807833995451e+01 -1.1880041727543102e+01 0 0 0
  53 1 1 2.7889548776847100e+01 -3.2473998386680812e+01 -1.1592640303304217e+01 0 0 0
  54 1 1 2.7907157716937245e+01 -3.2500389732960002e+01 -1.2528005944806601e+01 0 0 0
  55 1 2 2.7074274659712021e+01 -3.2174765552453884e+01 -1.2129039851270713e+01 0 0 0
  56 1 2 2.7298934224593019e+01 -3.1607332835587830e+01 -1.2926793477036089e+01 0 0 0
  57 1 2 2.6520090883628423e+01 -3.1295390889665654e+01 -1.2518930534438324e+01 0 0 0
  58 1 2 2.7314941140487459e+01 -3.0790348806810805e+01 -1.2204228546654573e+01 0 0 0
  59 1 2 2.6525138410418645e+01 -3.0179891815903343e+01 -1.2223291264047869e+01 0 0 0
  60 1 2 2.6654862331764566e+01 -3.0641164649019267e+01 -1.1333177249611833e+01 0 0 0
  61 1 2 2.5863708846440627e+01 -3.0166261697757729e+01 -1.1369974544052749e+01 0 0 0
  62 1 2 2.5560915497274770e+01 -3.0997271742807005e+01 -1.1611249842466602e+01 0 0 0
  63 1 2 2.4779066672666442e+01 -3.0492339379788756e+01 -1.1444516584655323e+01 0 0 0
  64 1 1 2.4552477281995159e+01 -3.1462979578404003e+01 -1.1450509166419877e+01 0 0 0
  65 1 1 2.4516605918249816e+01 -3.0982502897039890e+01 -1.0549710776327334e+01 0 0 0
  66 1 1 2.3610569334526936e+01 -3.1405194906974383e+01 -1.0821435536686955e+01 0 0 0
  67 1 1 2.3491984671453388e+01 -3.0800627075086791e+01 -1.0102891250557613e+01 0 0 0
  68 1 1 2.2769760081203621e+01 -3.1483122371882146e+01 -1.0082088125544981e+01 0 0 0
  69 1 1 2.3645133020957292e+01 -3.1699409654171731e+01 -9.7070334280318136e+00 0 0 0
  70 1 1 2.3085650651783443e+01 -3.2395185474747457e+01 -9.4766410243899788e+00 0 0 0
  71 1 2 2.3986115551710245e+01 -3.2773761839611119e+01 -9.5785089311393108e+00 0 0 0
  72 1 1 2.3347572619694709e+01 -3.3453332459357675e+01 -9.2729608558242163e+00 0 0 0
  73 1 1 2.3297941174177215e+01 -3.3335238198355832e+01 -1.0256021042946221e+01 0 0 0
  74 1 1 2.3533731507641011e+01 -3.4215707060417621e+01 -1.0090655399844715e+01 0 0 0
  75 1 1 2.2626895785370127e+01 -3.4185667606758258e+01 -1.0396398295143584e+01 0 0 0
  76 1 1 2.3265105724776117e+01 -3.4446684880389711e+01 -1.1027808303553664e+01 0 0 0
  77 1 1 2.2670850480216487e+01 -3.3920304235755104e+01 -1.1566547727337696e+01 0 0 0
  78 1 1 2.2631089517075896e+01 -3.4828196221872865e+01 -1.1857243153817006e+01 0 0 0
  79 1 2 2.2358397364366450e+01 -3.4396624690255194e+01 -1.2643396764812200e+01 0 0 0
  80 1 3 2.1942311163802493e+01 -3.5314703486815461e+01 -1.2579287494098073e+01 0 0 0
  81 1 2 2.2237762651206701e+01 -3.5163073450169556e+01 -1.3449626802997260e+01 0 0 0
  82 1 2 2.1248328152415834e+01 -3.5168458697285800e+01 -1.3392977854142067e+01 0 0 0
  83 1 2 2.1531783626528554e+01 -3.4337137799213380e+01 -1.3720509750950706e+01 0 0 0
  84 1 1 2.1134092181998884e+01 -3.4928420134737067e+01 -1.4364265828198677e+01 0 0 0
  85 1 2 2.2044631417772052e+01 -3.4889943016847845e+01 -1.4726530309735983e+01 0 0 0
  86 1 2 2.1513329158766087e+01 -3.5518120418580224e+01 -1.5197177637320825e+01 0 0 0
  87 1 2 2.2026830617844904e+01 -3.5119507808826498e+01 -1.5827669865209820e+01 0 0 0
  88 1 2 2.1163865418037943e+01 -3.5032464749081221e+01 -1.6137580688510397e+01 0 0 0
  89 1 2 2.1674166883997106e+01 -3.5688572588932715e+01 -1.6716045715276611e+01 0 0 0
  90 1 2 2.0785943793382273e+01 -3.5651214007449383e+01 -1.7045323793899030e+01 0 0 0
  91 1 2 2.1241116651206458e+01 -3.5022382957232097e+01 -1.7541529215842257e+01 0 0 0
  92 1 2 2.0945959992553966e+01 -3.5894983229693757e+01 -1.8064540406949320e+01 0 0 0
  93 1 2 2.1630882993217185e+01 -3.5522036989939465e+01 -1.8553610261555207e+01 0 0 0
  94 1 2 2.1696511898388188e+01 -3.6486819029911281e+01 -1.8683054475228722e+01 0 0 0
  95 1 1 2.2287274021606724e+01 -3.6022821111802614e+01 -1.9308621224918273e+01 0 0 0
  96 1 1 2.1406431830350453e+01 -3.5760292418181884e+01 -1.9535237551323064e+01 0 0 0
  97 1 2 2.1973923077971385e+01 -3.5287925976676547e+01 -2.0089801889060951e+01 0 0 0
  98 1 2 2.1590069929726827e+01 -3.5993801978626500e+01 -2.0614579187830937e+01 0 0 0
  99 1 2 2.2561071765624842e+01 -3.6003227329688698e+01 -2.0731651569753154e+01 0 0 0
  100 1 2 2.2073214781533633e+01 -3.5330544533220731e+01 -2.1321194289675205e+01 0 0 0
  101 1 2 2.2881221827072917e+01 -3.4994092175220430e+01 -2.0917997583072005e+01 0 0 0
  102 1 2 2.2644589881995085e+01 -3.4575394448781175e+01 -2.1729074211529539e+01 0 0 0
  103 1 2 2.3556760510985939e+01 -3.4314143078735057e+01 -2.1526620548499075e+01 0 0 0
  104 1 2 2.3581129327812121e+01 -3.5297758533394642e+01 -2.1643763407233493e+01 0 0 0
  105 1 2 2.3546157724367745e+01 -3.4877711019182250e+01 -2.2453160312584647e+01 0 0 0
  106 1 2 2.2949014943433280e+01 -3.5632577951048752e+01 -2.2572557966471898e+01 0 0 0
  107 1 1 2.3675521013626668e+01 -3.5728273970475875e+01 -2.3207742261758149e+01 0 0 0
  108 1 2 2.3053489045550101e+01 -3.5071455749407725e+01 -2.3467583273775809e+01 0 0 0
  109 1 1 2.3931765462193496e+01 -3.4909698500157091e+01 -2.3780483960188619e+01 0 0 0
  110 1 1 2.3439118523946718e+01 -3.5412321143447592e+01 -2.4391392276108654e+01 0 0 0
  111 1 2 2.4113372968535725e+01 -3.4871405760930081e+01 -2.4843922384683253e+01 0 0 0
  112 1 2 2.3736967286693140e+01 -3.5531181886870272e+01 -2.5413390884694714e+01 0 0 0
  113 1 2 2.4332972290445660e+01 -3.5880485870066046e+01 -2.4771962196152593e+01 0 0 0
  114 1 2 2.4430987654178491e+01 -3.6423967116351889e+01 -2.5509868616758073e+01 0 0 0
  115 1 2 2.5245182133459743e+01 -3.5880863553168638e+01 -2.5389266419680297e+01 0 0 0
  116 1 2 2.4623791087431002e+01 -3.5426440487119308e+01 -2.5999390159094599e+01 0 0 0
  117 1 2 2.5528302268045678e+01 -3.5197835473244609e+01 -2.6050819449455116e+01 0 0 0
  118 1 2 2.4918774901626186e+01 -3.4555933277067091e+01 -2.6550783908187626e+01 0 0 0
  119 1 2 2.5427299132055563e+01 -3.4128780715220550e+01 -2.5842711049301741e+01 0 0 0
  120 1 2 2.5782856638844361e+01 -3.3858035579777329e+01 -2.6699128876636856e+01 0 0 0
  121 1 2 2.4818561578222649e+01 -3.3609305338411978e+01 -2.6634848305853673e+01 0 0 0
  122 1 2 2.5284065232219426e+01 -3.3102657882708172e+01 -2.7386247409766749e+01 0 0 0
  123 1 2 2.4940267898556780e+01 -3.2498618328166621e+01 -2.6772311246501683e+01 0 0 0
  124 1 2 2.4560099028014449e+01 -3.2455684004075799e+01 -2.7740454744178141e+01 0 0 0
  125 1 2 2.3964533713890127e+01 -3.2191927474787718e+01 -2.7054552691924261e+01 0 0 0
  126 1 3 2.3681542307023332e+01 -3.1800737234053280e+01 -2.7900143265470227e+01 0 0 0
  127 1 2 2.3986176606635045e+01 -3.1057593732640150e+01 -2.7348366796604999e+01 0 0 0
  128 1 2 2.4620113917970649e+01 -3.1115063689482046e+01 -2.8101888431640834e+01 0 0 0
  129 1 2 2.5047744402642937e+01 -3.1380274321171392e+01 -2.7277770308905360e+01 0 0 0
  130 1 2 2.5679814465967940e+01 -3.0874787247069957e+01 -2.7937833031301881e+01 0 0 0
  131 1 2 2.5745436996244724e+01 -3.0621483558271969e+01 -2.6951206693909015e+01 0 0 0
  132 1 2 2.6077238827735343e+01 -2.9938099965430535e+01 -2.7561365283463203e+01 0 0 0
  133 1 1 2.5294717334528858e+01 -2.9554046825835655e+01 -2.7059053536527202e+01 0 0 0
  134 1 2 2.6154776816679256e+01 -2.9085494538824069e+01 -2.6974798502732064e+01 0 0 0
  135 1 2 2.5675494159463973e+01 -2.8622667105242957e+01 -2.7669417919503346e+01 0 0 0
  136 1 2 2.6591235317074609e+01 -2.8564070056060181e+01 -2.7774101920066297e+01 0 0 0
  137 1 2 2.6144020241730473e+01 -2.7721462366193190e+01 -2.8128227903608106e+01 0 0 0
  138 1 2 2.6664872283500049e+01 -2.7738433071606686e+01 -2.7227694963522879e+01 0 0 0
  139 1 2 2.7191925708300641e+01 -2.7388709702502020e+01 -2.7963853670936967e+01 0 0 0
  140 1 2 2.7530551426706477e+01 -2.8183879709458846e+01 -2.7628628491962079e+01 0 0 0
  141 1 2 2.8247200219703654e+01 -2.7546539732368931e+01 -2.7465229678433811e+01 0 0 0
  142 1 2 2.7886738387404034e+01 -2.7979188711352549e+01 -2.6709247911177105e+01 0 0 0
  143 1 2 2.8842774971146042e+01 -2.7927199373063981e+01 -2.6512681182015690e+01 0 0 0
  144 1 2 2.8323261865008160e+01 -2.7095291914288779e+01 -2.6379946406737581e+01 0 0 0
  145 1 2 2.9019086404208835e+01 -2.7080839940604154e+01 -2.5738336658070647e+01 0 0 0
  146 1 2 2.9146365580447423e+01 -2.6376457424240755e+01 -2.6443915832654714e+01 0 0 0
  147 1 2 2.9128042657050717e+01 -2.5896733986272810e+01 -2.5696168642242238e+01 0 0 0
  148 1 3 2.8657794102592359e+01 -2.5401053202095945e+01 -2.6457133726614007e+01 0 0 0
  149 1 2 2.8776697849317834e+01 -2.4923835856719091e+01 -2.5625240627688576e+01 0 0 0
  150 1 2 2.9274028612955135e+01 -2.4471437420824692e+01 -2.6257046083508165e+01 0 0 0
  151 1 2 2.9895097278280080e+01 -2.5027568696385252e+01 -2.5881766798054926e+01 0 0 0
  152 1 2 2.9980882592893273e+01 -2.5090523477798740e+01 -2.6870560565549198e+01 0 0 0
  153 1 2 3.0265760504843652e+01 -2.5898778692685021e+01 -2.6343925263367751e+01 0 0 0
  154 1 2 3.1022055244737377e+01 -2.5408299033127758e+01 -2.6800062343633453e+01 0 0 0
  155 1 2 3.1175091944754971e+01 -2.6375631890689881e+01 -2.6562237491473461e+01 0 0 0
  156 1 2 3.1832238404068825e+01 -2.6147723170935922e+01 -2.7151383577819335e+01 0 0 0
  157 1 2 3.0947348916240447e+01 -2.6167640280833169e+01 -2.7566595889333968e+01 0 0 0
  158 1 2 3.1615280405822705e+01 -2.6546985799295914e+01 -2.8092715928935871e+01 0 0 0
  159 1 2 3.1745200668217649e+01 -2.5589764775312883e+01 -2.8127063749108345e+01 0 0 0
  160 1 2 3.1773048395187285e+01 -2.6024238178273791e+01 -2.9006812661989997e+01 0 0 0
  161 1 2 3.2656416392870639e+01 -2.5850653686866906e+01 -2.8727000780040719e+01 0 0 0
  162 1 2 3.2300228058756204e+01 -2.5094907769812242e+01 -2.9171300274913207e+01 0 0 0
  163 1 2 3.3077680719598476e+01 -2.4809848691694548e+01 -2.8748220452275902e+01 0 0 0
  164 1 2 3.2424721811884886e+01 -2.4202910677220896e+01 -2.8494914603523132e+01 0 0 0
  165 1 2 3.3190561284800012e+01 -2.3987654354781991e+01 -2.8048691390084247e+01 0 0 0
  166 1 2 3.2920979291639782e+01 -2.3331263781230440e+01 -2.8687507703634846e+01 0 0 0
  167 1 2 3.3844568454179864e+01 -2.3578572372862499e+01 -2.8786604021032684e+01 0 0 0
  168 1 2 3.3850176996735946e+01 -2.3049531863258522e+01 -2.8036869865551679e+01 0 0 0
  169 1 2 3.3555287370418434e+01 -2.2469389431902115e+01 -2.8718577510296754e+01 0 0 0
  170 1 2 3.4390213978376238e+01 -2.2151454083919170e+01 -2.8408572352351282e+01 0 0 0
  171 1 2 3.3804057716829298e+01 -2.1396083106351561e+01 -2.8459413734031706e+01 0 0 0
  172 1 2 3.4704348754248699e+01 -2.1070307788929323e+01 -2.8571372239574995e+01 0 0 0
  173 1 2 3.4196812498918568e+01 -2.1049314607195356e+01 -2.9409947812674304e+01 0 0 0
  174 1 2 3.5066394542615363e+01 -2.0680827037218037e+01 -2.9569151381853047e+01 0 0 0
  175 1 2 3.4626863905853689e+01 -2.0032698870696201e+01 -2.9103592476623362e+01 0 0 0
  176 1 2 3.4130927672785582e+01 -2.0177014498236598e+01 -2.9894307875188222e+01 0 0 0
  177 1 2 3.4690746127688719e+01 -1.9442256537395121e+01 -3.0095364361620167e+01 0 0 0
  178 1 3 3.3794568030485621e+01 -1.9186104489769594e+01 -2.9981300849876366e+01 0 0 0
  179 1 2 3.4187652348084512e+01 -1.8621106636004722e+01 -3.0662755775657576e+01 0 0 0
  180 1 2 3.3592424220119234e+01 -1.9269196561361841e+01 -3.1101557569215046e+01 0 0 0
  181 1 2 3.3753125060449882e+01 -1.8586047763653745e+01 -3.1778851040975990e+01 0 0 0
  182 1 2 3.4607272438834379e+01 -1.9107261765539828e+01 -3.1529390317697366e+01 0 0 0
  183 1 2 3.4662712087413325e+01 -1.8636727234840574e+01 -3.2448947900853028e+01 0 0 0
  184 1 2 3.5525167811582541e+01 -1.8481568185152767e+01 -3.1963392905074475e+01 0 0 0
  185 1 2 3.5607657726805179e+01 -1.9103566754192848e+01 -3.2751319516169687e+01 0 0 0
  186 1 2 3.5514169868515026e+01 -1.8169789315228751e+01 -3.3030812166844086e+01 0 0 0
  187 1 2 3.5083252832773582e+01 -1.8735951337897678e+01 -3.3679176005686571e+01 0 0 0
  188 1 2 3.4466625362084876e+01 -1.8073441087081953e+01 -3.3455830704650246e+01 0 0 0
  189 1 3 3.4090394699209632e+01 -1.8489326806022582e+01 -3.4198501561771408e+01 0 0 0
  190 1 2 3.3848377430255518e+01 -1.8994664622999679e+01 -3.3419924213183208e+01 0 0 0
  191 1 1 3.3024823004447235e+01 -1.8677700525112769e+01 -3.3963214689900155e+01 0 0 0
  192 1 1 3.2756437654696015e+01 -1.9192031385014545e+01 -3.3188213037640068e+01 0 0 0
  193 1 1 3.2570970403254236e+01 -1.8297705642707978e+01 -3.2944855956825357e+01 0 0 0
  194 1 1 3.1748441995379327e+01 -1.8692710045029706e+01 -3.2909902296850120e+01 0 0 0
  195 1 1 3.1722652406539623e+01 -1.8017060228581968e+01 -3.3603837517282294e+01 0 0 0
  196 1 1 3.1020202752368466e+01 -1.8725756154860477e+01 -3.3754926299319983e+01 0 0 0
  197 1 1 3.1183697305784431e+01 -1.8154136524925072e+01 -3.4491971550844575e+01 0 0 0
  198 1 1 3.0792175298086594e+01 -1.9036259688144643e+01 -3.4809775498634728e+01 0 0 0
  199 1 1 3.0118835762410377e+01 -1.8584485296736279e+01 -3.4304780872888919e+01 0 0 0
  200 1 1 3.0060192239239381e+01 -1.8177686633337579e+01 -3.5160259944897831e+01 0 0 0
  201 1 1 2.9807911920919594e+01 -1.7480320782683375e+01 -3.4605403712418870e+01 0 0 0
  202 1 1 2.9238638882745040e+01 -1.7458222717016071e+01 -3.5371687220327573e+01 0 0 0
  203 1 1 2.9348761143421306e+01 -1.6609239228609635e+01 -3.5021257427439515e+01 0 0 0
  204 1 1 3.0041181702055130e+01 -1.6846191076295554e+01 -3.5637223376868008e+01 0 0 0
  205 1 1 3.0224475482606035e+01 -1.5946502388730069e+01 -3.5309296254954930e+01 0 0 0
  206 1 1 3.0179292607102465e+01 -1.5944932360189455e+01 -3.6305552414227733e+01 0 0 0
  207 1 1 2.9996215408363472e+01 -1.5076314826203911e+01 -3.6011053745820448e+01 0 0 0
  208 1 1 2.9262119785381561e+01 -1.5694261560990062e+01 -3.5874746679618923e+01 0 0 0
  209 1 1 2.9027781565802233e+01 -1.5000157780282292e+01 -3.6453266045407950e+01 0 0 0
  210 1 1 2.8691977857756548e+01 -1.4690239817497400e+01 -3.5595085970292956e+01 0 0 0
  211 1 1 2.8409410685626252e+01 -1.4137150851936143e+01 -3.6461633627021321e+01 0 0 0
  212 1 1 2.8421422672406266e+01 -1.3656297508657255e+01 -3.5594581374847266e+01 0 0 0
  213 1 1 2.7523137628532250e+01 -1.3964591522796248e+01 -3.5813309006028291e+01 0 0 0
  214 1 1 2.7717482269025059e+01 -1.3813747983468231e+01 -3.4832176321341827e+01 0 0 0
  215 1 1 2.7682547969220760e+01 -1.4794048242547236e+01 -3.5056356379294002e+01 0 0 0
  216 1 1 2.7583577112694545e+01 -1.4720836641250614e+01 -3.4108392564530718e+01 0 0 0
  217 1 1 2.6842454331493339e+01 -1.4439085200122884e+01 -3.4539498729408322e+01 0 0 0
  218 1 1 2.6923370062511729e+01 -1.5399592319942261e+01 -3.4657571557326648e+01 0 0 0
  219 1 1 2.6340938209542983e+01 -1.5217108633944417e+01 -3.3997608381257990e+01 0 0 0
  220 1 1 2.5890319712417533e+01 -1.5881275161458102e+01 -3.4577674727720506e+01 0 0 0
  221 1 1 2.5322585078690558e+01 -1.5142179794508468e+01 -3.4248994699073968e+01 0 0 0
  222 1 1 2.4970851613636725e+01 -1.6025140258047042e+01 -3.4055994880007574e+01 0 0 0
  223 1 1 2.4799220683388565e+01 -1.5434335688478388e+01 -3.3295439721115564e+01 0 0 0
  224 1 1 2.3991085350317498e+01 -1.5932759985766001e+01 -3.3496022310717983e+01 0 0 0
  225 1 1 2.3766728610724112e+01 -1.5023762081974692e+01 -3.3518353106132494e+01 0 0 0
  226 1 1 2.2958962246632272e+01 -1.5456633884225242e+01 -3.3273091959457467e+01 0 0 0
  227 1 1 2.3214291675580448e+01 -1.4635380601840748e+01 -3.2776681632202369e+01 0 0 0
  228 1 1 2.3019977731676644e+01 -1.5417038482130101e+01 -3.2185879072145219e+01 0 0 0
  229 1 1 2.2256035564484648e+01 -1.4928555649920289e+01 -3.2418425416059073e+01 0 0 0
  230 1 1 2.2142117112013377e+01 -1.5366404502715005e+01 -3.1554329752195965e+01 0 0 0
  231 1 1 2.1466417856046952e+01 -1.5560249682973687e+01 -3.2133772518224674e+01 0 0 0
  232 1 1 2.1306907358681020e+01 -1.5966422944297484e+01 -3.1333246184886388e+01 0 0 0
  233 1 1 2.1228326831575899e+01 -1.5060428353261351e+01 -3.1112262164869581e+01 0 0 0
  234 1 1 2.0634967598126696e+01 -1.5557068826616677e+01 -3.0529617495759151e+01 0 0 0
  235 1 1 2.1232205189148967e+01 -1.5215583574656792e+01 -2.9918387899542179e+01 0 0 0
  236 1 1 2.0477138465262851e+01 -1.5644274846341148e+01 -2.9499395446522072e+01 0 0 0
  237 1 1 2.0293717917120333e+01 -1.4690916016953111e+01 -2.9538230617522341e+01 0 0 0
  238 1 1 2.0162143987831016e+01 -1.4969070752462599e+01 -2.8681153989009960e+01 0 0 0
  239 1 1 1.9313622769048980e+01 -1.4616697634821760e+01 -2.9052247827594481e+01 0 0 0
  240 1 1 1.9097347190730510e+01 -1.5062076357511669e+01 -2.8257602007780314e+01 0 0 0
  241 1 1 1.8342493474707638e+01 -1.4609986451829858e+01 -2.8495356348529700e+01 0 0 0
  242 1 1 1.8086864315869768e+01 -1.5490495169692990e+01 -2.8682208959791563e+01 0 0 0
  243 1 1 1.7895644953162961e+01 -1.4811259505301644e+01 -2.9349994443869889e+01 0 0 0
  244 1 1 1.7320886089194143e+01 -1.4851398330490227e+01 -2.8566079374274572e+01 0 0 0
  245 1 1 1.6858470248847784e+01 -1.4300294219523662e+01 -2.9190010763206406e+01 0 0 0
  246 1 1 1.6885092171937995e+01 -1.3951487485779547e+01 -2.8252124589828476e+01 0 0 0
  247 1 1 1.6074689923855878e+01 -1.4397393684782752e+01 -2.8376962666027637e+01 0 0 0
  248 1 1 1.6112107670780365e+01 -1.4125189729455908e+01 -2.7452680775389425e+01 0 0 0
  249 1 1 1.6567134936550801e+01 -1.4988741220017401e+01 -2.7593276153012571e+01 0 0 0
  250 1 1 1.5602591956978394e+01 -1.5116118879476428e+01 -2.7568484624008480e+01 0 0 0
  251 1 1 1.6036101654770160e+01 -1.5805722623666378e+01 -2.7990577926801805e+01 0 0 0
  252 1 1 1.5138306114612664e+01 -1.6016837474720838e+01 -2.8059274699921797e+01 0 0 0
  253 1 1 1.5525694361461909e+01 -1.6051705408524239e+01 -2.8945995413064832e+01 0 0 0
  254 1 1 1.5175772887474512e+01 -1.6941194480378091e+01 -2.8756689020263860e+01 0 0 0
  255 1 1 1.4458377336434840e+01 -1.6321397301497448e+01 -2.8952806333629024e+01 0 0 0
  256 1 1 1.4880866754238607e+01 -1.6557686755614423e+01 -2.9770780998212857e+01 0 0 0
  257 1 1 1.4046629295601250e+01 -1.7037192058356990e+01 -2.9725952065465371e+01 0 0 0
  258 1 1 1.4690914283821366e+01 -1.7476706650881816e+01 -3.0276277363650632e+01 0 0 0
  259 1 1 1.4657847912732656e+01 -1.7953768267899815e+01 -2.9445761912607622e+01 0 0 0
  260 1 1 1.5549129806634086e+01 -1.7673837997446213e+01 -2.9593163216089856e+01 0 0 0
  261 1 1 1.5505406068849593e+01 -1.8605199632876339e+01 -2.9861502270875224e+01 0 0 0
  262 1 1 1.5929289304546250e+01 -1.8457487721778506e+01 -2.9075885833344177e+01 0 0 0
  263 1 1 1.6551945252771542e+01 -1.9063997888644224e+01 -2.9586142842970872e+01 0 0 0
  264 1 1 1.5836963316184335e+01 -1.9525175617800507e+01 -2.9107106984368787e+01 0 0 0
  265 1 1 1.6546957808467521e+01 -1.9044430346542857e+01 -2.8549902265317204e+01 0 0 0
  266 1 1 1.6273657472306041e+01 -1.9787874611582073e+01 -2.8053418589675143e+01 0 0 0
  267 1 1 1.6388416174933912e+01 -1.9114594715978331e+01 -2.7385831968404620e+01 0 0 0
  268 1 1 1.5872456855797694e+01 -1.9904592559518406e+01 -2.7050708349138525e+01 0 0 0
  269 1 1 1.6701672598019297e+01 -1.9678984710580128e+01 -2.6518615707521565e+01 0 0 0
  270 1 1 1.6976643897246880e+01 -2.0264687042491964e+01 -2.7287593599320672e+01 0 0 0
  271 1 1 1.7005473475022786e+01 -2.0660233044560197e+01 -2.6433833992226440e+01 0 0 0
  272 1 1 1.6731752264070057e+01 -2.1343247179734607e+01 -2.7103135925425946e+01 0 0 0
  273 1 1 1.7644021282511659e+01 -2.1165382168398235e+01 -2.7176713165501319e+01 0 0 0
  274 1 1 1.7342994575699400e+01 -2.1785212297311997e+01 -2.7783723727123370e+01 0 0 0
  275 1 1 1.7527999867642340e+01 -2.2204079999580141e+01 -2.6902963283697407e+01 0 0 0
  276 1 1 1.7008049622425194e+01 -2.2752577053225330e+01 -2.7426242487761037e+01 0 0 0
  277 1 1 1.6947582906594004e+01 -2.3107750016332311e+01 -2.6545303176714423e+01 0 0 0
  278 1 1 1.6916513448661501e+01 -2.3867007810282558e+01 -2.7123705163700595e+01 0 0 0
  279 1 1 1.6034360457335829e+01 -2.3793172060822165e+01 -2.6826918060659064e+01 0 0 0
  280 1 1 1.6128496898910232e+01 -2.4586605189838174e+01 -2.7453106229635090e+01 0 0 0
  281 1 1 1.6034493500692584e+01 -2.4883056002136261e+01 -2.6536659498383230e+01 0 0 0
  282 1 1 1.6777324469585189e+01 -2.5299748531632918e+01 -2.7043066869411525e+01 0 0 0
  283 1 1 1.6623446962699472e+01 -2.5776404148408844e+01 -2.6221426724717553e+01 0 0 0
  284 1 1 1.6706777315268440e+01 -2.6354795004671463e+01 -2.6932889397705924e+01 0 0 0
  285 1 1 1.7312031418173802e+01 -2.6621643871801737e+01 -2.6215322068371904e+01 0 0 0
  286 1 1 1.7673465363676531e+01 -2.5762612123020844e+01 -2.6678214684594938e+01 0 0 0
  287 1 1 1.8006929368071734e+01 -2.6633921252666248e+01 -2.7004295138647961e+01 0 0 0
  288 1 1 1.8628566990835083e+01 -2.6308644154757982e+01 -2.6268922588058537e+01 0 0 0
  289 1 1 1.8200928619552052e+01 -2.7182683937178741e+01 -2.6080461733715204e+01 0 0 0
  290 1 1 1.9129061315991265e+01 -2.7147656672640828e+01 -2.5726520738915760e+01 0 0 0
  291 1 1 1.8744644030589672e+01 -2.8044693669144234e+01 -2.5814987476999697e+01 0 0 0
  292 1 1 1.8470576069018779e+01 -2.7589407722918789e+01 -2.5024702619121339e+01 0 0 0
  293 1 1 1.8038054499686051e+01 -2.8478462969770266e+01 -2.5184218589396874e+01 0 0 0
  294 1 1 1.7513838142613011e+01 -2.8085045885965354e+01 -2.4530310403153962e+01 0 0 0
  295 1 1 1.7518853589434059e+01 -2.9028465442745507e+01 -2.4339563071120388e+01 0 0 0
  296 1 1 1.6580107956468186e+01 -2.8631423885757819e+01 -2.4243985531127212e+01 0 0 0
  297 1 1 1.6966209371376380e+01 -2.8697663917060261e+01 -2.3383207245553184e+01 0 0 0
  298 1 4 1.6582847992400428e+01 -2.9572893543448217e+01 -2.3544964670926589e+01 0 0 0
  299 1 1 1.6060076724476048e+01 -2.8929447989994962e+01 -2.3094695397368412e+01 0 0 0
  300 1 1 1.6335145428147086e+01 -2.9664958572534491e+01 -2.2536886495938248e+01 0 0 0
  301 1 1 1.5751353678886368e+01 -2.9035309041503488e+01 -2.2041746160757409e+01 0 0 0
  302 1 1 1.6261155335224107e+01 -2.9418022953259662e+01 -2.1360018031888711e+01 0 0 0
  303 1 1 1.5494688851939269e+01 -2.9014224467210830e+01 -2.0953582262248855e+01 0 0 0
  304 1 1 1.5581312304173753e+01 -2.9924256143686794e+01 -2.0602734923159648e+01 0 0 0
  305 1 1 1.4874724553932067e+01 -2.9872993466460741e+01 -2.1262489842266163e+01 0 0 0
  306 1 1 1.4865787838332365e+01 -3.0760393573454728e+01 -2.0968124361365085e+01 0 0 0
  307 1 1 1.3997475090520878e+01 -3.0431796692795174e+01 -2.1047136368142858e+01 0 0 0
  308 1 1 1.4280566166000787e+01 -3.0464299155557182e+01 -2.0050600005647915e+01 0 0 0
  309 1 1 1.3402986961739396e+01 -3.0918829662510493e+01 -2.0319421367792454e+01 0 0 0
  310 1 1 1.3952044118825176e+01 -3.1521661691718599e+01 -1.9775756188229067e+01 0 0 0
  311 1 1 1.3096990770914541e+01 -3.1903084770111558e+01 -2.0034681690945064e+01 0 0 0
  312 1 1 1.3724841808618471e+01 -3.2583987081112539e+01 -2.0162401055147342e+01 0 0 0
  313 1 1 1.2807952273470683e+01 -3.2840834733688865e+01 -2.0248394961074112e+01 0 0 0
  314 1 1 1.3313724680088654e+01 -3.3425646243570334e+01 -2.0755198005249220e+01 0 0 0
  315 1 1 1.2833143006104388e+01 -3.3885612505318512e+01 -2.0033676014886485e+01 0 0 0
  316 1 1 1.3717087761242000e+01 -3.3849466389885997e+01 -1.9665831621188261e+01 0 0 0
  317 1 1 1.3643601396453027e+01 -3.4763307053842183e+01 -1.9912381970409651e+01 0 0 0
  318 1 1 1.4430842376885160e+01 -3.4569695044940119e+01 -1.9298973047509058e+01 0 0 0
  319 1 1 1.4433155904171162e+01 -3.5498711081889226e+01 -1.9489174201473634e+01 0 0 0
  320 1 1 1.4325149127828356e+01 -3.5517393834802455e+01 -1.8587109705070773e+01 0 0 0
  321 1 1 1.4641933323542180e+01 -3.6410852487311928e+01 -1.8790100748424898e+01 0 0 0
  322 1 1 1.4111587494093214e+01 -3.6395640166423291e+01 -1.7948989380142347e+01 0 0 0
  323 1 1 1.4723942136981242e+01 -3.7125147067746248e+01 -1.7906598708502720e+01 0 0 0
  324 1 1 1.5250540024338333e+01 -3.6377955882548108e+01 -1.7778332073815832e+01 0 0 0
  325 1 2 1.5842967973136373e+01 -3.7040594010769510e+01 -1.7716833435786839e+01 0 0 0
  326 1 3 1.5222912551446981e+01 -3.7211853193800707e+01 -1.6963441155470218e+01 0 0 0
  327 1 1 1.6123777856520167e+01 -3.7265873761904331e+01 -1.6567547055580100e+01 0 0 0
  328 1 1 1.5520312487004775e+01 -3.7765874397439227e+01 -1.5991595012582930e+01 0 0 0
  329 1 1 1.5723806677038093e+01 -3.8365433065895083e+01 -1.6749535208126222e+01 0 0 0
  330 1 1 1.5491789881978439e+01 -3.8876558647127652e+01 -1.5975858934718792e+01 0 0 0
  331 1 1 1.5264112926318150e+01 -3.9466864725064745e+01 -1.6712658566997487e+01 0 0 0
  332 1 1 1.4770570218425975e+01 -3.9695691061512171e+01 -1.5964977337182496e+01 0 0 0
  333 1 1 1.4872346318629464e+01 -4.0464837158500856e+01 -1.6511443356564879e+01 0 0 0
  334 1 1 1.5698613870053840e+01 -4.0307173837975689e+01 -1.5983352588477281e+01 0 0 0
  335 1 1 1.5691625262621187e+01 -4.1150614684164331e+01 -1.6406908239324693e+01 0 0 0
  336 1 1 1.6188014158796669e+01 -4.1186919485776883e+01 -1.5592447748667400e+01 0 0 0
  337 1 1 1.6456454189548406e+01 -4.1889498823731792e+01 -1.6154874012108028e+01 0 0 0
  338 1 1 1.6689220298738203e+01 -4.2160062326399618e+01 -1.5281985731419798e+01 0 0 0
  339 1 1 1.7368672116760226e+01 -4.2394814947392256e+01 -1.5894739786268358e+01 0 0 0
  340 1 1 1.7683088666252395e+01 -4.2576951452245410e+01 -1.5082056835363208e+01 0 0 0
  341 1 1 1.7806235571817250e+01 -4.3380186471818547e+01 -1.5547600677218623e+01 0 0 0