LAMMPS data file via write_data, version 7 Dec 2015, timestep = 20000

10000 atoms
5 atom types
9399 bonds
3 bond types
4998 angles
1 angle types
2 extra bond per atom

-7.5000000000000000e+01 7.5000000000000000e+01 xlo xhi
-7.5000000000000000e+01 7.5000000000000000e+01 ylo yhi
-7.5000000000000000e+01 7.5000000000000000e+01 zlo zhi

Masses

1 1
2 1
3 1
4 1
5 1

Atoms

  1 1 1 -7.2602082566676227e+00 -1.6549261122991126e+01 2.8201328614919184e+01 0 0 0
  2 1 1 -7.4796754641942789e+00 -1.5589590600570705e+01 2.8099106959615852e+01 0 0 0
  3 1 1 -7.3966928512079733e+00 -1.6044428450367544e+01 2.7226494344868499e+01 0 0 0
  4 1 1 -8.2777451929145780e+00 -1.5597397678251237e+01 2.7324635314534216e+01 0 0 0
  5 1 1 -7.9919636581780233e+00 -1.5560955461313362e+01 2.6376611913045025e+01 0 0 0
  6 1 1 -7.5347102742614434e+00 -1.4839346237687270e+01 2.6784923879472750e+01 0 0 0
  7 1 1 -8.3038777954672618e+00 -1.4454044132898012e+01 2.6354831725743150e+01 0 0 0
  8 1 1 -8.4238117706528080e+00 -1.4433582326079089e+01 2.7364193395986817e+01 0 0 0
  9 1 2 -9.0606313101909830e+00 -1.4970893706456762e+01 2.6894479851890143e+01 0 0 0
  10 1 2 -9.5519524017225148e+00 -1.4151712547856757e+01 2.7142194902196227e+01 0 0 0
  11 1 1 -9.6724796273243427e+00 -1.4746335768670457e+01 2.7878627602535484e+01 0 0 0
  12 1 1 -9.3900766311966422e+00 -1.3844199567393989e+01 2.8129102619611814e+01 0 0 0
  13 1 2 -1.0309726662531659e+01 -1.3983949221113276e+01 2.8236245887677768e+01 0 0 0
  14 1 2 -9.7579941666091710e+00 -1.4272070563889242e+01 2.9035357620239626e+01 0 0 0
  15 1 2 -9.9593156810930594e+00 -1.3337819719325374e+01 2.9102242657214340e+01 0 0 0
  16 1 2 -9.1236834639855040e+00 -1.3502354633059234e+01 2.9582979635709489e+01 0 0 0
  17 1 2 -9.4982097876618585e+00 -1.2707156875038121e+01 2.9945877532965234e+01 0 0 0
  18 1 2 -8.5867521415075707e+00 -1.2811474183080092e+01 3.0291480917804829e+01 0 0 0
  19 1 2 -9.2703879917403711e+00 -1.3016853614805516e+01 3.0960735553755690e+01 0 0 0
  20 1 2 -8.4364166732261374e+00 -1.2739661713620015e+01 3.1234399906164384e+01 0 0 0
  21 1 2 -9.1357417154454517e+00 -1.2138065015294961e+01 3.1587474603377924e+01 0 0 0
  22 1 2 -8.3452460318730033e+00 -1.2004904345552161e+01 3.2051709218679726e+01 0 0 0
  23 1 2 -8.2005506501657734e+00 -1.1684684553953636e+01 3.1217154391033890e+01 0 0 0
  24 1 2 -7.4369774668414674e+00 -1.1594944800795865e+01 3.1740240670329079e+01 0 0 0
  25 1 2 -7.9503217611913382e+00 -1.0715829940887957e+01 3.1824998043440079e+01 0 0 0
  26 1 1 -7.4936783644891687e+00 -1.0824478175291759e+01 3.2658762799828217e+01 0 0 0
  27 1 2 -7.5652001572253225e+00 -9.8858474832395586e+00 3.2451800863138956e+01 0 0 0
  28 1 2 -6.8193395896513520e+00 -1.0051970515453410e+01 3.3041676314326232e+01 0 0 0
  29 1 1 -6.6139244725584687e+00 -1.0353115167095549e+01 3.2131229495286064e+01 0 0 0
  30 1 1 -6.2381027794045556e+00 -9.4706978250883651e+00 3.2286890163188296e+01 0 0 0
  31 1 1 -6.7483911130097516e+00 -9.5724693437927080e+00 3.1438601900087310e+01 0 0 0
  32 1 1 -6.1865910532443387e+00 -8.8241630365688444e+00 3.1266084183083002e+01 0 0 0
  33 1 1 -7.1940498105819115e+00 -8.6236030915334236e+00 3.1092290504840292e+01 0 0 0
  34 1 1 -6.6490352481314119e+00 -7.8862431433590414e+00 3.0849290380955683e+01 0 0 0
  35 1 1 -6.4374824404370425e+00 -8.5835621615217281e+00 3.0224550428636221e+01 0 0 0
  36 1 1 -6.2018825743106909e+00 -7.7472245628322787e+00 2.9896526627887084e+01 0 0 0
  37 1 2 -5.4268432244173370e+00 -8.4045191219809485e+00 2.9788156216738766e+01 0 0 0
  38 1 1 -5.3228805219100375e+00 -7.7677391767489281e+00 3.0511859145791298e+01 0 0 0
  39 1 1 -4.4383389033434693e+00 -8.2608266778582014e+00 3.0352593745348564e+01 0 0 0
  40 1 1 -4.6388694657558052e+00 -7.6599136919621040e+00 2.9624428445882902e+01 0 0 0
  41 1 2 -4.3992925411390651e+00 -7.1938463966577189e+00 3.0376706694613574e+01 0 0 0
  42 1 2 -4.2410733446881856e+00 -6.5580865274971165e+00 2.9615329629280037e+01 0 0 0
  43 1 1 -3.5736407901198577e+00 -7.2412851965669169e+00 2.9810476137476709e+01 0 0 0
  44 1 2 -3.1366842193979414e+00 -6.4096022544044002e+00 2.9804927653482977e+01 0 0 0
  45 1 2 -3.2540881423298407e+00 -6.5963744609184856e+00 3.0728077445778322e+01 0 0 0
  46 1 2 -2.5030121427236347e+00 -6.0818337596352654e+00 3.0633724274779702e+01 0 0 0
  47 1 2 -2.2435045289748921e+00 -6.7500916953630625e+00 3.1293669218295612e+01 0 0 0
  48 1 2 -1.4891679178110833e+00 -6.2173876929701128e+00 3.0942451353589764e+01 0 0 0
  49 1 2 -1.6049276307874636e+00 -5.8969306829049266e+00 3.1861794681237200e+01 0 0 0
  50 1 2 -1.3931163227430949e+00 -5.1560483238649946e+00 3.1251128495432564e+01 0 0 0
  51 1 2 -1.1304213435501813e+00 -4.9554159689030080e+00 3.2178737898590768e+01 0 0 0
  52 1 2 -3.1239511552330529e-01 -5.0671016391086416e+00 3.1704308113117580e+01 0 0 0
  53 1 1 -1.8360132445404048e-01 -4.4780762770410165e+00 3.2473635475452483e+01 0 0 0
  54 1 1 7.2652992496800864e-02 -5.3453781995890823e+00 3.2819271305804747e+01 0 0 0
  55 1 2 3.0976285892279160e-02 -4.6876782381208075e+00 3.3490475688240956e+01 0 0 0
  56 1 2 9.3954906215269540e-01 -4.8234995603139943e+00 3.3321856341335788e+01 0 0 0
  57 1 2 9.9497679589737709e-01 -3.9578952756019903e+00 3.3508333923241423e+01 0 0 0
  58 1 2 1.3958128925148339e+00 -4.3989104851917000e+00 3.4250185915468826e+01 0 0 0
  59 1 2 1.9317681539045428e+00 -3.7810147356054156e+00 3.3844617194676701e+01 0 0 0
  60 1 2 1.4340247814282119e+00 -3.1607754541805977e+00 3.4350498003552616e+01 0 0 0
  61 1 2 1.9418071444098755e+00 -3.7427416157777302e+00 3.4925326879778325e+01 0 0 0
  62 1 2 1.4007041202615080e+00 -3.1761023068919991e+00 3.5495598775805249e+01 0 0 0
  63 1 2 1.9659879525060875e+00 -3.6702133505700640e+00 3.6043627823803526e+01 0 0 0
  64 1 1 2.4652289337875586e+00 -2.8855942539392241e+00 3.5765453030663089e+01 0 0 0
  65 1 1 2.9951375823484589e+00 -3.4860126088660568e+00 3.6347466530405789e+01 0 0 0
  66 1 1 2.6482844149156710e+00 -2.7936367420980370e+00 3.6842943078258379e+01 0 0 0
  67 1 1 3.4431790330648546e+00 -2.4149586555149396e+00 3.6440773990178840e+01 0 0 0
  68 1 1 2.9257524520082048e+00 -1.7777963013151377e+00 3.7097502035400062e+01 0 0 0
  69 1 1 3.6886967847554355e+00 -2.2793998815680880e+00 3.7445776761900177e+01 0 0 0
  70 1 1 3.9899389894769350e+00 -1.3501340625018146e+00 3.7226647183228508e+01 0 0 0
  71 1 2 4.4811836320169869e+00 -1.9637841350611120e+00 3.6723647868963269e+01 0 0 0
  72 1 1 4.9815883013890936e+00 -1.4890612842131139e+00 3.7381092743619256e+01 0 0 0
  73 1 1 4.6396623499436762e+00 -2.2003222358179566e+00 3.7819687764383062e+01 0 0 0
  74 1 1 5.0314492307431085e+00 -1.7124042611203456e+00 3.8557740843338806e+01 0 0 0
  75 1 1 5.7391475830932439e+00 -2.0104816130436869e+00 3.8055146879942107e+01 0 0 0
  76 1 1 5.9250306333975704e+00 -2.2680485605872640e+00 3.9000106182375283e+01 0 0 0
  77 1 1 6.6365326396851554e+00 -1.6464210329354543e+00 3.8678048838471945e+01 0 0 0
  78 1 1 7.0880098944205097e+00 -2.4693450734029345e+00 3.8919544799466344e+01 0 0 0
  79 1 2 6.9608487123279748e+00 -1.9493413269148885e+00 3.9670978630758526e+01 0 0 0
  80 1 3 7.5252984642009064e+00 -2.7283686957304063e+00 3.9834315462902147e+01 0 0 0
  81 1 2 6.6057235805931471e+00 -2.7710437333334994e+00 4.0254055224759753e+01 0 0 0
  82 1 2 6.5744361708957140e+00 -3.3437545304328968e+00 3.9450087103678861e+01 0 0 0
  83 1 2 6.3528560582375775e+00 -3.9798458726684154e+00 4.0201968225066409e+01 0 0 0
  84 1 1 5.8997319955471861e+00 -4.1973410048679840e+00 3.9342908284914508e+01 0 0 0
  85 1 2 6.8077007675260974e+00 -4.5548297509834885e+00 3.9254990920116384e+01 0 0 0
  86 1 2 6.3443082723599540e+00 -4.6324951416824200e+00 3.8410469984994975e+01 0 0 0
  87 1 2 7.2422939465673641e+00 -4.8364872800116476e+00 3.8344009736716281e+01 0 0 0
  88 1 2 6.9051882618912117e+00 -4.2313222492613436e+00 3.7623230614866848e+01 0 0 0
  89 1 2 7.8362631399714306e+00 -4.4711465217331661e+00 3.7518532337571834e+01 0 0 0
  90 1 2 7.7058343901046262e+00 -3.5458457427238517e+00 3.7679192017634044e+01 0 0 0
  91 1 2 7.5473171743362029e+00 -3.8136872806176569e+00 3.6720764469576046e+01 0 0 0
  92 1 2 8.3231058052698543e+00 -3.2745538501872593e+00 3.6754312189889909e+01 0 0 0
  93 1 2 7.7233283198079894e+00 -2.9727719183797907e+00 3.6046577843253452e+01 0 0 0
  94 1 2 8.5387533196681158e+00 -2.3112583741407535e+00 3.6242856108681977e+01 0 0 0
  95 1 1 7.7196423113693573e+00 -1.8685836460978278e+00 3.5870241518742574e+01 0 0 0
  96 1 1 8.6980254330463360e+00 -1.6392725779943471e+00 3.5548396364605829e+01 0 0 0
  97 1 2 8.4621288735628521e+00 -2.4973145114922439e+00 3.5165474815203659e+01 0 0 0
  98 1 2 9.1063137706514983e+00 -2.0037689864740638e+00 3.4576179689049880e+01 0 0 0
  99 1 2 8.6747076076615794e+00 -2.6587796339199827e+00 3.4101587916835364e+01 0 0 0
  100 1 2 8.5872018654152509e+00 -1.8843653509653864e+00 3.3550446476420881e+01 0 0 0
  101 1 2 7.7001905694582975e+00 -2.0115461422994723e+00 3.3989288248115855e+01 0 0 0
  102 1 2 7.6887591487829496e+00 -1.2922706944214755e+00 3.3417996408004747e+01 0 0 0
  103 1 2 6.8989369536310967e+00 -1.7332852740102025e+00 3.3119646675712836e+01 0 0 0
  104 1 2 6.9486350755661830e+00 -9.0354700989706349e-01 3.2686582769102493e+01 0 0 0
  105 1 2 6.1968453907019665e+00 -1.0212342746660950e+00 3.3265161420334955e+01 0 0 0
  106 1 2 6.3259313572010161e+00 -1.0193636703231500e-01 3.2964947337603505e+01 0 0 0
  107 1 1 5.7119693200590618e+00 -6.1651441755293379e-01 3.2375080015764418e+01 0 0 0
  108 1 2 5.3730226273832900e+00 2.8685720317991642e-01 3.2354642823346119e+01 0 0 0
  109 1 1 4.9561840479290877e+00 -2.6935225566364779e-01 3.1689260560907108e+01 0 0 0
  110 1 1 5.4685637855453377e+00 3.5135324598914019e-01 3.1281965249937791e+01 0 0 0
  111 1 2 4.7432870998588657e+00 9.8226794501506551e-02 3.0703229682448029e+01 0 0 0
  112 1 2 5.4881800636816020e+00 -2.9549162349734681e-01 3.0323373945777298e+01 0 0 0
  113 1 2 4.7808921318357021e+00 -1.0170376723911581e+00 3.0667544186011483e+01 0 0 0
  114 1 2 5.2531451871631569e+00 -1.3720322197831774e+00 2.9893942937433522e+01 0 0 0
  115 1 2 4.7702352663565071e+00 -5.2142525371306614e-01 2.9766004585869652e+01 0 0 0
  116 1 2 5.6061341969817384e+00 -5.6434690295494416e-01 2.9279166835272804e+01 0 0 0
  117 1 2 5.0198535123508989e+00 1.2106281960989969e-01 2.8948578528157995e+01 0 0 0
  118 1 2 5.9233060589038198e+00 4.0359843784260641e-01 2.9236115516510523e+01 0 0 0
  119 1 2 5.5129550106482306e+00 9.8005203512335193e-01 2.8538279697849582e+01 0 0 0
  120 1 2 5.9932315253312582e+00 1.5023403297425082e+00 2.9179343277371181e+01 0 0 0
  121 1 2 6.0686015361590124e+00 1.9528205993225123e+00 2.8340575714732157e+01 0 0 0
  122 1 2 6.0079973044446975e+00 2.6758921550191759e+00 2.9103230864103573e+01 0 0 0
  123 1 2 5.4664358865487719e+00 2.9260826134094668e+00 2.8323162311126424e+01 0 0 0
  124 1 2 4.9622630352870356e+00 2.9078182940057578e+00 2.9099234502158026e+01 0 0 0
  125 1 2 4.7863785616474921e+00 3.8276647896571463e+00 2.8773485202670425e+01 0 0 0
  126 1 3 4.1716725317150951e+00 3.6179257924257282e+00 2.9569861488450460e+01 0 0 0
  127 1 2 4.1754775726884379e+00 4.5888277268665210e+00 2.9285941770384749e+01 0 0 0
  128 1 2 4.1202637798575692e+00 4.4431522738376010e+00 3.0257498407589413e+01 0 0 0
  129 1 2 3.2606975520750110e+00 4.4264986474667714e+00 2.9815759794279526e+01 0 0 0
  130 1 2 3.6324949870518162e+00 5.3174142777126647e+00 2.9883576709800071e+01 0 0 0
  131 1 2 3.1109834906148151e+00 5.2249684379785748e+00 2.9040310320455344e+01 0 0 0
  132 1 2 3.3805391474437467e+00 6.1094247470116638e+00 2.9134495162547903e+01 0 0 0
  133 1 1 2.7496130791594635e+00 6.0775194433448672e+00 2.8381487169829683e+01 0 0 0
  134 1 2 2.4896425439885452e+00 6.7985573442332372e+00 2.8940045407474575e+01 0 0 0
  135 1 2 1.7960485752272655e+00 6.1096369099221173e+00 2.8918139370910140e+01 0 0 0
  136 1 2 2.4471209717011160e+00 5.9266251863610657e+00 2.9666461904786640e+01 0 0 0
  137 1 2 1.5406387967460284e+00 6.1580727501055836e+00 2.9989086880170735e+01 0 0 0
  138 1 2 1.7506565612779268e+00 5.2528139897977209e+00 3.0199254687398394e+01 0 0 0
  139 1 2 7.7289739252106904e-01 5.4370981595808558e+00 3.0051433077361740e+01 0 0 0
  140 1 2 1.1803290707211702e+00 5.1409608325427483e+00 2.9199910101708547e+01 0 0 0
  141 1 2 5.9362133899142522e-01 4.4115989672195859e+00 2.9534334695228136e+01 0 0 0
  142 1 2 1.1798158684145452e+00 4.0036084325083321e+00 2.8917413422184364e+01 0 0 0
  143 1 2 5.8739414014171965e-01 4.5904192696069890e+00 2.8447010015270653e+01 0 0 0
  144 1 2 1.5063564059658177e+00 4.6861038614448436e+00 2.8105864210200753e+01 0 0 0
  145 1 2 9.7537629271851189e-01 5.3600015264791727e+00 2.7690360102542051e+01 0 0 0
  146 1 2 1.4688980636131626e+00 4.9697265706120479e+00 2.6979087081717605e+01 0 0 0
  147 1 2 8.9092206901726123e-01 5.5621789273260287e+00 2.6574185383051066e+01 0 0 0
  148 1 3 1.7552887180248615e+00 5.9950665736034514e+00 2.6715890783787298e+01 0 0 0
  149 1 2 1.1229765422568352e+00 6.6241461878964287e+00 2.6470121568614257e+01 0 0 0
  150 1 2 1.8831251403011240e+00 6.9517874569406386e+00 2.7044207704392157e+01 0 0 0
  151 1 2 1.4118210954977652e+00 7.6824149530400332e+00 2.6569838191401463e+01 0 0 0
  152 1 2 2.3081555590018628e+00 7.5530467552923408e+00 2.6234798958970433e+01 0 0 0
  153 1 2 2.3974625236947888e+00 8.4518943169306322e+00 2.6601371656341229e+01 0 0 0
  154 1 2 2.7011578740760629e+00 8.4381119270489027e+00 2.5655931812600713e+01 0 0 0
  155 1 2 1.8291149432189302e+00 8.8388181200071063e+00 2.5673148566693605e+01 0 0 0
  156 1 2 1.9597119823470319e+00 8.3879527941746836e+00 2.4803083664469703e+01 0 0 0
  157 1 2 1.7198960387493982e+00 9.2775152439709956e+00 2.4682492827095782e+01 0 0 0
  158 1 2 9.6930926527563721e-01 8.7377739016832443e+00 2.4755376526349284e+01 0 0 0
  159 1 2 8.1011777795864948e-01 9.6238456457199337e+00 2.5113865387232195e+01 0 0 0
  160 1 2 1.1474372182099553e-01 9.4083373284185772e+00 2.4504580512665985e+01 0 0 0
  161 1 2 4.2006787215466285e-01 1.0278934486408525e+01 2.4310336366576752e+01 0 0 0
  162 1 2 3.2972612706432353e-01 9.8387298932055778e+00 2.3482344574681385e+01 0 0 0
  163 1 2 1.2695190139660537e+00 1.0238399807758070e+01 2.3617268207575073e+01 0 0 0
  164 1 2 1.2661315488781064e+00 9.4005647278292930e+00 2.3040136160716138e+01 0 0 0
  165 1 2 9.6646374777100086e-01 1.0329295961268112e+01 2.2628855137744448e+01 0 0 0
  166 1 2 1.0006072912143058e+00 9.5652326323913019e+00 2.2033561814791110e+01 0 0 0
  167 1 2 1.4230408034270248e-01 9.5138140697944849e+00 2.2442320411952469e+01 0 0 0
  168 1 2 2.5428651057136109e-01 9.0563251699001981e+00 2.1525862267313247e+01 0 0 0
  169 1 2 -6.8190841374580335e-01 9.0603936196660833e+00 2.1876280083564364e+01 0 0 0
  170 1 2 -2.8572820514840225e-01 8.1489634583150270e+00 2.1838882269922678e+01 0 0 0
  171 1 2 -8.7670427787766647e-01 8.2918516359926144e+00 2.1103868363412477e+01 0 0 0
  172 1 2 -1.5667423089447458e-01 7.7561447966061401e+00 2.0839810988997296e+01 0 0 0
  173 1 2 -8.7863673518471586e-01 7.6521692831681447e+00 2.0153858171736029e+01 0 0 0
  174 1 2 -1.1805906309844660e+00 7.2619243552718542e+00 2.1007730322507580e+01 0 0 0
  175 1 2 -1.9646712563783413e+00 7.3270855659275353e+00 2.0414430837934482e+01 0 0 0
  176 1 2 -2.2267468025923653e+00 7.7314774390913223e+00 2.1342450235336521e+01 0 0 0
  177 1 2 -2.4242519264263445e+00 6.7836651915008837e+00 2.1276314128315654e+01 0 0 0
  178 1 3 -3.2630351278128420e+00 7.2668192015940010e+00 2.1405814541704856e+01 0 0 0
  179 1 2 -3.1168018555363348e+00 7.1117959310895147e+00 2.0516066063198604e+01 0 0 0
  180 1 2 -3.3557624609861487e+00 8.0597719312490117e+00 2.0750116861909042e+01 0 0 0
  181 1 2 -4.0342029285367342e+00 7.5775945838064667e+00 2.0254685706246022e+01 0 0 0
  182 1 2 -4.3328598593224887e+00 8.5286290375270486e+00 2.0282285621919847e+01 0 0 0
  183 1 2 -4.9282657731700219e+00 7.8108140787591438e+00 1.9831923342031036e+01 0 0 0
  184 1 2 -4.3824944924443487e+00 8.2746326827794849e+00 1.9213931475076546e+01 0 0 0
  185 1 2 -5.0917775770319134e+00 7.9015510636285162e+00 1.8682340399507027e+01 0 0 0
  186 1 2 -4.9864136802930226e+00 8.8105753452245441e+00 1.8423103012048713e+01 0 0 0
  187 1 2 -5.9039199929696862e+00 8.6432053385439804e+00 1.8529328398890545e+01 0 0 0
  188 1 2 -5.5792065865608809e+00 8.1728795513592232e+00 1.7750572994211961e+01 0 0 0
  189 1 3 -5.5505469743813123e+00 9.1012942936183556e+00 1.7602952335734759e+01 0 0 0
  190 1 2 -6.3664825096741842e+00 8.8300649046775970e+00 1.7175968789990165e+01 0 0 0
  191 1 1 -6.2367168399049460e+00 9.7714578545640691e+00 1.7045253736595711e+01 0 0 0
  192 1 1 -6.5131688734048696e+00 9.4962111404855474e+00 1.6172437610426929e+01 0 0 0
  193 1 1 -6.2708318990183090e+00 1.0388027323268462e+01 1.6256880521967659e+01 0 0 0
  194 1 1 -6.6147479855498998e+00 1.0215369210027040e+01 1.5337823848701808e+01 0 0 0
  195 1 1 -6.9754137773347162e+00 1.1085322389766114e+01 1.5606024062218745e+01 0 0 0
  196 1 1 -6.2662806303606731e+00 1.1266335446001463e+01 1.4951366984646560e+01 0 0 0
  197 1 1 -7.1398694254102635e+00 1.1218567755500061e+01 1.4551008762548561e+01 0 0 0
  198 1 1 -6.9453712816186322e+00 1.2080968181146226e+01 1.4779627515739318e+01 0 0 0
  199 1 1 -7.2177093825104572e+00 1.2180887362702670e+01 1.3861007722656327e+01 0 0 0
  200 1 1 -6.7185541759940390e+00 1.2924323913798814e+01 1.4168055284622609e+01 0 0 0
  201 1 1 -6.9380405966579870e+00 1.3007135235832559e+01 1.3033256485319995e+01 0 0 0
  202 1 1 -7.5489346430914992e+00 1.3532981568551898e+01 1.3621143829804014e+01 0 0 0
  203 1 1 -7.8629966005931928e+00 1.3688793351429004e+01 1.2712541032773567e+01 0 0 0
  204 1 1 -7.6006340510233263e+00 1.4495565306859305e+01 1.3166806071737643e+01 0 0 0
  205 1 1 -7.7930620201628056e+00 1.4626986505026242e+01 1.2248499475309067e+01 0 0 0
  206 1 1 -6.9133588336768756e+00 1.5036344505862823e+01 1.2415271432136002e+01 0 0 0
  207 1 1 -6.8699923692513947e+00 1.4756617379578463e+01 1.1531544903351081e+01 0 0 0
  208 1 1 -5.9759160799309834e+00 1.4925637729647994e+01 1.1897058402444722e+01 0 0 0
  209 1 1 -5.8678316689420615e+00 1.4459089437900769e+01 1.0996347472779044e+01 0 0 0
  210 1 1 -6.2860084028691467e+00 1.3959007554004753e+01 1.1697166305581742e+01 0 0 0
  211 1 1 -6.5883760974355399e+00 1.3548790417872281e+01 1.0836822512557161e+01 0 0 0
  212 1 1 -7.2993772024944521e+00 1.3303623686821197e+01 1.1380399482443613e+01 0 0 0
  213 1 1 -6.9180736904646203e+00 1.2480881527378564e+01 1.0982875761824964e+01 0 0 0
  214 1 1 -7.7519800756984463e+00 1.2674385790336800e+01 1.0597842299523379e+01 0 0 0
  215 1 1 -7.2491385800293608e+00 1.2191593822016193e+01 9.9685889954236000e+00 0 0 0
  216 1 1 -7.3975783225607028e+00 1.3126109370307820e+01 9.6862714287860658e+00 0 0 0
  217 1 1 -7.6527337606766297e+00 1.2482431812180726e+01 9.0196986403566939e+00 0 0 0
  218 1 1 -8.2963537323638636e+00 1.3197577129545804e+01 8.9658021375897174e+00 0 0 0
  219 1 1 -8.6630208872608154e+00 1.2496424283731995e+01 9.4687952415367267e+00 0 0 0
  220 1 1 -9.2389531118183292e+00 1.2567824700875176e+01 8.6709038795424735e+00 0 0 0
  221 1 1 -9.2633118422203786e+00 1.1651529087802302e+01 8.9933088070183658e+00 0 0 0
  222 1 1 -8.9861187385607053e+00 1.1612708636157031e+01 8.1132564456489469e+00 0 0 0
  223 1 1 -9.9019640694561311e+00 1.1196779749533126e+01 8.1650227255488552e+00 0 0 0
  224 1 1 -9.6371523136502155e+00 1.1532066516728960e+01 7.2283681564479139e+00 0 0 0
  225 1 1 -1.0084118373545456e+01 1.0646192870168360e+01 7.1953332148305940e+00 0 0 0
  226 1 1 -9.6723511826392112e+00 1.0839632675879372e+01 6.3816344160622558e+00 0 0 0
  227 1 1 -9.0713605737071621e+00 1.0275518813166201e+01 6.8071777263097495e+00 0 0 0
  228 1 1 -8.6316866207570726e+00 1.1168143723762228e+01 6.5500080575646287e+00 0 0 0
  229 1 1 -8.3002441960521303e+00 1.0875646036821983e+01 7.3808909375595988e+00 0 0 0
  230 1 1 -7.5866806058005345e+00 1.0860111138282258e+01 6.7708845203574040e+00 0 0 0
  231 1 1 -7.3231614780446614e+00 1.0446125998207126e+01 7.5910921303020844e+00 0 0 0
  232 1 1 -7.6695908992042403e+00 9.7995047866832721e+00 7.0063414247455222e+00 0 0 0
  233 1 1 -6.7471806771947351e+00 9.6767377860191495e+00 6.9803305848530792e+00 0 0 0
  234 1 1 -7.1317579825087405e+00 9.6398762831669060e+00 6.1345954374416598e+00 0 0 0
  235 1 1 -7.0077248318895684e+00 8.7071241495796343e+00 6.4709279525349732e+00 0 0 0
  236 1 1 -6.2831531803364538e+00 8.9411170402279954e+00 5.8513640648322340e+00 0 0 0
  237 1 1 -6.4655363764555380e+00 8.0032838251007217e+00 5.8136940007079216e+00 0 0 0
  238 1 1 -6.9281969869355811e+00 8.5081702598253610e+00 5.1574070337722802e+00 0 0 0
  239 1 1 -7.1643073355889229e+00 7.7008441164265049e+00 4.8309634066254459e+00 0 0 0
  240 1 1 -7.2640340836632395e+00 8.3350482924406517e+00 4.0877159713758209e+00 0 0 0
  241 1 1 -6.3466994888661521e+00 8.0848254917047537e+00 4.2290292578847142e+00 0 0 0
  242 1 1 -6.7791590295988948e+00 7.3641591095249481e+00 3.7258357217233904e+00 0 0 0
  243 1 1 -5.8963703171287518e+00 7.1970580049236412e+00 4.1596217456117044e+00 0 0 0
  244 1 1 -6.0230087966629071e+00 6.7801781930059377e+00 3.2935492941325974e+00 0 0 0
  245 1 1 -5.3184267959283682e+00 6.4302621422989326e+00 3.7766593358569760e+00 0 0 0
  246 1 1 -5.9091938775422808e+00 5.6543415098196936e+00 3.5822567363916007e+00 0 0 0
  247 1 1 -5.3497984973854145e+00 5.8635901837205449e+00 2.7132157508288008e+00 0 0 0
  248 1 1 -6.2336379527390005e+00 5.6859741184064090e+00 2.4617327306350174e+00 0 0 0
  249 1 1 -5.6978223399825643e+00 5.2012148695112534e+00 1.8713790036443316e+00 0 0 0
  250 1 1 -6.2470707929229103e+00 5.7631818043858836e+00 1.3807912971925813e+00 0 0 0
  251 1 1 -6.8311702985548530e+00 5.1715343080774065e+00 1.7259947103712583e+00 0 0 0
  252 1 1 -7.2363492292511555e+00 6.0029564964053694e+00 1.4278310946972081e+00 0 0 0
  253 1 1 -7.0640462391635221e+00 5.4885017652083281e+00 6.6736581573578646e-01 0 0 0
  254 1 1 -7.4117561770144755e+00 6.3141731789783542e+00 3.2269271769841767e-01 0 0 0
  255 1 1 -6.4556158237215717e+00 6.3182104127042491e+00 4.3325688006262209e-01 0 0 0
  256 1 1 -6.6524620238230465e+00 6.3825004123546849e+00 -4.8884523236431937e-01 0 0 0
  257 1 1 -6.6079924008804936e+00 5.4520576261880418e+00 -2.3473203323286149e-01 0 0 0
  258 1 1 -5.7276191834750820e+00 5.8035315446820190e+00 -4.6703659131444708e-01 0 0 0
  259 1 1 -5.7976016243599018e+00 4.8123775379031972e+00 -2.3000629062825789e-01 0 0 0
  260 1 1 -5.4041693472052588e+00 4.9666420454614126e+00 -1.1334627189561448e+00 0 0 0
  261 1 1 -4.9126577672117975e+00 4.2847245028701648e+00 -7.5880531909901017e-01 0 0 0
  262 1 1 -5.1886547365625146e+00 4.0083036857360153e+00 -1.6375228152205075e+00 0 0 0
  263 1 1 -4.2519536863076359e+00 3.9147631605257418e+00 -1.5725200323151771e+00 0 0 0
  264 1 1 -4.6699373162395892e+00 2.9587201402144707e+00 -1.5704661635225825e+00 0 0 0
  265 1 1 -4.7635082504761384e+00 3.3644166044745294e+00 -2.4428365807366408e+00 0 0 0
  266 1 1 -4.9723945256854556e+00 2.4283168359619225e+00 -2.5186497274422583e+00 0 0 0
  267 1 1 -5.8539264444091845e+00 2.9481595308951132e+00 -2.4977796890383726e+00 0 0 0
  268 1 1 -5.8242697655093707e+00 2.1829398881546895e+00 -3.1291843681402409e+00 0 0 0
  269 1 1 -6.4006599729532390e+00 2.9229732592956026e+00 -3.4478956848422393e+00 0 0 0
  270 1 1 -6.9263591269262932e+00 2.0659168205993841e+00 -3.4838582549816484e+00 0 0 0
  271 1 1 -7.4163743873495021e+00 2.7054520173014551e+00 -3.9673549836359103e+00 0 0 0
  272 1 1 -8.0321225624142336e+00 2.2764777581137690e+00 -3.3989019933772679e+00 0 0 0
  273 1 1 -8.1964314519564194e+00 3.2428381175996175e+00 -3.4866667044763520e+00 0 0 0
  274 1 1 -8.8328341060428048e+00 2.7594537616178663e+00 -3.9870848001568211e+00 0 0 0
  275 1 1 -8.9654333412344815e+00 2.4766758970031737e+00 -3.0672545835301732e+00 0 0 0
  276 1 1 -9.8010305550115504e+00 2.4439999281279046e+00 -3.5613726284592353e+00 0 0 0
  277 1 1 -9.9038083238177883e+00 2.9045564359200546e+00 -2.7511798321108647e+00 0 0 0
  278 1 1 -9.4034816546260807e+00 3.4773377685857461e+00 -3.3338343140459190e+00 0 0 0
  279 1 1 -1.0335292646956306e+01 3.8389657269707320e+00 -3.1588355165772599e+00 0 0 0
  280 1 1 -9.8522766862725675e+00 4.0110108290459268e+00 -2.3886867838405741e+00 0 0 0
  281 1 1 -1.0387812292742330e+01 4.7971179678199007e+00 -2.5581430003179717e+00 0 0 0
  282 1 1 -1.0482566624425152e+01 4.4631164251673816e+00 -1.6909866874621395e+00 0 0 0
  283 1 1 -1.1400549473514619e+01 4.6903054275102107e+00 -2.0333843206622944e+00 0 0 0
  284 1 1 -1.1304606776184716e+01 4.4320326035436368e+00 -1.0714370655975127e+00 0 0 0
  285 1 1 -1.1433819997023598e+01 5.4440969299202626e+00 -1.2035151826649422e+00 0 0 0
  286 1 1 -1.2032223591210142e+01 5.0691862789875444e+00 -6.2904917605160393e-01 0 0 0
  287 1 1 -1.2356046045825119e+01 5.0351875912074266e+00 -1.5562260342552858e+00 0 0 0
  288 1 1 -1.3130013403957758e+01 5.1300604524686912e+00 -9.5172414643009207e-01 0 0 0
  289 1 1 -1.3246882993047704e+01 5.8438626588963762e+00 -1.5690149793698134e+00 0 0 0
  290 1 1 -1.3816258013078107e+01 5.1556442634112045e+00 -1.8837308004369626e+00 0 0 0
  291 1 1 -1.4206586151482711e+01 5.5511419195628084e+00 -1.1355187956280395e+00 0 0 0
  292 1 1 -1.4593330348604997e+01 4.6161947714441451e+00 -1.2210742085966921e+00 0 0 0
  293 1 1 -1.5190249927568535e+01 5.1498094260279768e+00 -6.9635506353888277e-01 0 0 0
  294 1 1 -1.5594763238950270e+01 4.9587950327275276e+00 -1.5130481056852916e+00 0 0 0
  295 1 1 -1.5887638757951191e+01 5.8626178977980210e+00 -1.2082322893897566e+00 0 0 0
  296 1 1 -1.6618960411308130e+01 5.3590822943347796e+00 -1.6028447035613689e+00 0 0 0
  297 1 1 -1.5941809216375136e+01 5.7052370581043483e+00 -2.2534672330740384e+00 0 0 0
  298 1 4 -1.6838216554593387e+01 5.5944206311592284e+00 -2.6777317664471671e+00 0 0 0
  299 1 1 -1.6466498553433961e+01 4.7128417554250932e+00 -2.6023722601590311e+00 0 0 0
  300 1 1 -1.7349667496725800e+01 4.5387851356048099e+00 -2.8061170133628819e+00 0 0 0
  301 1 1 -1.6941015236875508e+01 3.7044452102896011e+00 -2.3816328216441800e+00 0 0 0
  302 1 1 -1.7699728004740905e+01 3.4374608973061891e+00 -2.8785421899296528e+00 0 0 0
  303 1 1 -1.7400935198093979e+01 2.6176325932367002e+00 -2.2912457584290640e+00 0 0 0
  304 1 1 -1.7184954441252664e+01 2.5794981558681500e+00 -3.2171858535373086e+00 0 0 0
  305 1 1 -1.7177046415157488e+01 1.6834048932508403e+00 -2.9261015666451713e+00 0 0 0
  306 1 1 -1.6755346323811136e+01 1.7396621209359149e+00 -3.8062692266409530e+00 0 0 0
  307 1 1 -1.6435252326523347e+01 1.0160489467336420e+00 -3.3708754467426161e+00 0 0 0
  308 1 1 -1.7312423308097831e+01 7.6966323897089206e-01 -3.7073726777757807e+00 0 0 0
  309 1 1 -1.6689284537645175e+01 2.4142022204570929e-02 -3.8149763764694788e+00 0 0 0
  310 1 1 -1.6903926198137523e+01 4.5081243996352283e-01 -4.6553788096470408e+00 0 0 0
  311 1 1 -1.5997375889711256e+01 1.6712022033705395e-01 -4.6109376893987406e+00 0 0 0
  312 1 1 -1.6189885445872392e+01 3.1987389903097407e-01 -5.5996740168392467e+00 0 0 0
  313 1 1 -1.6409214595755540e+01 -6.0757144654408635e-01 -5.2857245903644161e+00 0 0 0
  314 1 1 -1.5799553871847827e+01 -5.9013025062478552e-01 -6.0368610208653992e+00 0 0 0
  315 1 1 -1.6710692817171740e+01 -7.0904769562837922e-01 -6.3524751047961896e+00 0 0 0
  316 1 1 -1.6233756017016670e+01 -1.5286453665111199e+00 -6.5466395635702295e+00 0 0 0
  317 1 1 -1.7207141121137823e+01 -1.6743253570785011e+00 -6.5566850413165172e+00 0 0 0
  318 1 1 -1.6634488251871815e+01 -2.4047719265620580e+00 -6.1251768473170722e+00 0 0 0
  319 1 1 -1.7189900795080266e+01 -2.7550231135298504e+00 -6.8175493420035078e+00 0 0 0
  320 1 1 -1.6765516858943155e+01 -3.5099839440574803e+00 -6.4382627353107544e+00 0 0 0
  321 1 1 -1.7597404825352040e+01 -3.7951483505127648e+00 -6.8562387279447359e+00 0 0 0
  322 1 1 -1.7730020948258527e+01 -3.7845400860551166e+00 -5.9140675675133370e+00 0 0 0
  323 1 1 -1.7994990337733622e+01 -4.6458617011626266e+00 -6.2307113493828794e+00 0 0 0
  324 1 1 -1.8334354726198928e+01 -4.4700163175180938e+00 -5.3406934865414621e+00 0 0 0
  325 1 2 -1.8797729865509766e+01 -3.9150588418284142e+00 -5.9594585767573234e+00 0 0 0
  326 1 3 -1.9285972627862083e+01 -3.9329249951753140e+00 -5.1982322996121137e+00 0 0 0
  327 1 1 -1.9916651379767039e+01 -3.6313574837862777e+00 -5.7673993095104219e+00 0 0 0
  328 1 1 -2.0401004445902046e+01 -3.5919683755662701e+00 -4.9615618282947862e+00 0 0 0
  329 1 1 -2.0885473622376079e+01 -4.0015407369719123e+00 -5.6792281360012797e+00 0 0 0
  330 1 1 -2.1429198687956660e+01 -3.3047410494804650e+00 -5.2578507419257141e+00 0 0 0
  331 1 1 -2.1763585209608820e+01 -3.5760077344898065e+00 -6.1663259693273931e+00 0 0 0
  332 1 1 -2.2408042700381429e+01 -3.8183554467098846e+00 -5.4451307675527092e+00 0 0 0
  333 1 1 -2.2773389388409679e+01 -3.8526216956358001e+00 -6.3501653194966154e+00 0 0 0
  334 1 1 -2.3261915000107507e+01 -3.2338463334744088e+00 -5.8574494778602455e+00 0 0 0
  335 1 1 -2.3823855531871089e+01 -3.5660521369107254e+00 -6.5139115645703347e+00 0 0 0
  336 1 1 -2.3770134953547327e+01 -2.4695938131553596e+00 -6.5211538240197164e+00 0 0 0
  337 1 1 -2.4619387625520812e+01 -2.8703228085475243e+00 -6.5784637165243645e+00 0 0 0
  338 1 1 -2.4556428871038563e+01 -2.3476562202675622e+00 -7.3686094484708171e+00 0 0 0
  339 1 1 -2.4655498679844374e+01 -3.2475459643044169e+00 -7.5900607499414638e+00 0 0 0
  340 1 1 -2.5463591670812939e+01 -2.9367458560880770e+00 -7.2572066682181982e+00 0 0 0
  341 1 1 -2.5691722585853405e+01 -3.7168417879791340e+00 -7.7798572600449249e+00 0 0 0
  342 1 1 -2.6446307637282544e+01 -3.0173122487231065e+00 -7.7661722058356721e+00 0 0 0
  343 1 1 -2.6176790334648960e+01 -3.2586735881039921e+00 -8.6620593381807769e+00 0 0 0
  344 1 1 -2.7164435244612662e+01 -2.9914593107627159e+00 -8.5291305987171899e+00 0 0 0