ITEM: TIMESTEP
20000000
ITEM: NUMBER OF ATOMS
9000
ITEM: BOX BOUNDS pp pp pp
-75 75
-75 75
-75 75
ITEM: ATOMS id type xs ys zs ix iy iz 
7197 6 0.0301982 0.973886 0.995825 -3 3 2 
5835 6 0.102617 0.00797311 0.95131 -1 1 3 
8094 6 0.00519989 0.0406534 0.0363903 1 -2 -2 
8116 5 0.355068 0.0470389 0.983282 7 5 1 
5663 5 0.780647 0.0115506 0.0233293 1 -1 1 
6062 5 0.942689 0.0473355 0.0250276 -1 3 -2 
5676 6 0.0166371 0.979225 0.0208248 2 -1 2 
5155 5 0.603572 0.0645175 0.0243317 5 2 1 
8544 5 0.0738616 0.0704247 0.029417 2 0 -3 
7446 5 0.146921 0.121468 0.0355934 5 3 -4 
7836 5 0.582025 0.0526324 0.0436571 1 3 -2 
7318 5 0.630865 0.0775919 0.00540891 -1 -3 -1 
5956 6 0.649268 0.0712135 0.0379294 1 -1 0 
5075 5 0.746969 0.0569996 0.0204914 -1 0 -6 
5574 6 0.246472 0.113659 0.0176534 2 0 -2 
6752 6 0.51086 0.163545 0.00510167 2 -2 -2 
7575 6 0.885469 0.141877 0.985946 -5 1 1 
6572 5 0.0200335 0.182933 0.999917 0 7 -1 
7936 5 0.19803 0.221372 0.00165346 4 3 -1 
5619 5 0.445661 0.164238 0.996934 2 -2 1 
7671 5 0.502949 0.143653 0.956706 2 1 1 
8294 6 0.0670456 0.236235 0.00294021 -2 1 -3 
6419 5 0.802634 0.203908 0.0643699 4 -3 1 
5982 5 0.867027 0.174469 0.989103 0 -1 -1 
6300 5 0.182627 0.248412 0.0192854 1 2 4 
6882 5 0.36207 0.18642 0.0122039 -7 1 4 
6748 6 0.872675 0.230365 0.0229266 -2 4 -1 
5657 5 0.223971 0.221802 0.0233792 0 0 0 
7735 6 0.81266 0.283585 0.0805709 -2 0 -3 
5459 6 0.872928 0.265761 0.00254737 5 0 -1 
7927 6 0.789164 0.288177 0.0115007 -1 -4 3 
6413 5 0.20561 0.296161 0.0422857 2 0 6 
5572 5 0.617381 0.313366 0.020878 -1 0 3 
5253 6 0.236645 0.319869 0.0482294 4 -1 -2 
8109 6 0.913233 0.364984 0.0113217 -4 -2 6 
8521 5 0.579085 0.359031 0.988745 0 0 2 
6232 6 0.787173 0.356269 0.972125 -3 -1 4 
5127 5 0.889073 0.371254 0.0273135 2 4 5 
6893 6 0.577149 0.394926 0.0187283 -2 3 5 
8437 6 0.642939 0.387797 0.994512 1 4 -4 
8667 5 0.343912 0.423318 0.0177167 0 3 2 
7040 6 0.773807 0.4272 0.0211796 -2 -5 -1 
5377 6 0.944323 0.386769 0.029295 -2 -2 -2 
7319 5 0.137934 0.490147 0.0248511 3 -5 0 
5517 5 0.951199 0.486784 0.974289 -3 0 -1 
7548 5 0.278721 0.484978 0.988608 6 0 1 
8462 6 0.018255 0.520592 0.00954479 -6 1 3 
7774 6 0.234511 0.514286 0.0317908 1 1 4 
5617 5 0.279378 0.507953 0.975148 -4 0 -1 
7179 5 0.900387 0.501564 0.979248 4 4 3 
5650 6 0.166275 0.544956 0.00502731 -1 1 3 
7441 6 0.656808 0.493147 0.0332074 -1 -2 -1 
8901 6 0.762975 0.553384 0.990203 0 3 4 
6855 6 0.951484 0.513478 0.994703 0 1 -3 
8528 5 0.86107 0.552573 0.0139122 0 1 -1 
8197 6 0.935512 0.557921 0.019589 1 4 0 
8347 6 0.444267 0.575506 0.991373 -2 2 1 
6796 5 0.565294 0.605153 0.0484087 0 -2 -1 
5642 5 0.602577 0.602121 0.956063 -3 1 0 
5727 6 0.789572 0.606886 0.00349375 2 -2 3 
5102 5 0.833018 0.573891 0.0178698 -1 -2 4 
6686 5 0.515388 0.61702 0.992623 -2 2 -1 
5270 5 0.192521 0.645644 0.998578 5 2 1 
7113 6 0.359488 0.668062 0.998214 0 2 -1 
8141 6 0.509664 0.643699 0.0529801 2 -2 -1 
7290 6 0.0678878 0.650605 0.99148 3 1 2 
6815 6 0.11765 0.631069 0.037618 1 -1 2 
7329 5 0.150326 0.668491 0.986911 -5 -6 -3 
7411 6 0.7151 0.665596 0.997206 3 -2 3 
8345 5 0.232737 0.700361 0.983275 2 -10 -3 
6907 6 0.317626 0.70562 0.0160966 -1 -6 -4 
6711 5 0.408263 0.647033 0.994438 1 2 4 
8629 6 0.0844351 0.707103 0.0286773 1 0 -2 
7376 5 0.271867 0.779141 0.0237918 3 -3 -3 
7567 6 0.496798 0.756826 0.00590194 -3 -1 -2 
7785 6 0.756982 0.772444 0.0352844 1 7 4 
8090 5 0.249427 0.857389 0.99697 -4 -1 2 
5569 6 0.27059 0.836007 -0.00239977 1 -8 1 
8897 5 0.0443657 0.900575 0.00989133 3 0 -9 
6059 5 0.369484 0.902845 0.0103828 -1 1 2 
8357 5 0.761922 0.882315 0.00774476 2 -2 2 
6361 5 0.0525865 0.863891 0.0260673 -3 2 -6 
8322 6 0.537982 0.887936 0.983036 -1 -1 -2 
7189 5 0.902148 0.895117 0.0597521 -2 1 -2 
8564 5 0.268981 0.929466 0.983041 -4 4 0 
6323 5 0.341317 0.945745 0.0438666 2 -2 -5 
7046 5 0.541517 0.971682 0.0408602 2 -1 4 
6845 5 0.666399 0.908841 0.0112524 -4 0 1 
5003 5 0.0853048 0.961764 0.0147604 4 -1 -2 
5151 5 0.152389 0.949339 0.0372837 0 -7 4 
7479 5 0.287898 -0.000724825 0.0507794 5 1 -3 
5736 6 0.46344 0.00879225 0.0759431 -1 -3 -1 
7692 6 0.512576 0.00486304 0.0187518 -3 3 -5 
6820 6 0.588675 0.0939307 0.0176721 0 3 2 
8520 6 0.167652 0.0619539 0.0393445 1 1 2 
7235 6 0.597876 0.104395 0.0865163 -1 -1 -3 
6490 5 0.580106 0.1202 0.0332306 -2 2 2 
6831 5 0.051431 0.109262 0.993432 1 2 3 
5540 5 0.172894 0.139534 0.0645898 3 -1 2 
7071 5 0.390279 0.136898 0.00356425 -2 2 0 
6360 6 0.511779 0.119775 0.0273983 -2 0 -2 
7881 5 0.725166 0.0576571 0.0438429 1 -4 1 
6208 6 0.732322 0.160693 0.0571716 3 1 1 
8264 5 0.737485 0.123028 0.0390076 -6 2 -1 
5746 6 0.892745 0.117192 0.00929761 1 0 -5 
8754 6 0.771209 0.12799 0.0170443 2 -2 -1 
7525 6 0.547449 0.267006 0.0731817 -10 7 0 
8740 6 0.780991 0.233069 0.00662302 -2 1 -1 
5918 5 0.835929 0.256342 0.0432569 -3 1 2 
5291 5 0.841631 0.23639 0.0578268 2 -3 5 
6407 6 0.219825 0.305209 0.0361972 -3 1 0 
7668 6 0.617667 0.295706 0.0281214 1 4 4 
6056 5 0.872824 0.304303 0.0252704 -2 2 4 
8459 6 0.749953 0.312874 0.0147542 3 -4 1 
6626 6 0.205854 0.358955 0.064145 -3 -1 1 
7882 5 0.439383 0.361235 0.0205427 3 7 4 
5105 5 0.499067 0.340886 0.00277458 -3 0 -1 
5825 6 0.227284 0.352685 0.030285 0 0 -3 
5343 6 0.594733 0.392292 0.0207289 4 -2 -2 
8207 5 0.539536 0.433266 0.064227 -2 0 -4 
5558 6 0.641325 0.409777 0.0523187 0 2 -2 
8270 5 0.782633 0.396973 0.0276146 -3 1 -2 
6028 6 0.208905 0.438189 1.00156 7 -4 2 
8029 6 0.234282 0.487499 0.0636266 1 -2 3 
5467 6 0.769843 0.497145 0.988596 1 -1 -1 
8394 5 0.20163 0.525481 0.00604745 3 1 1 
7603 5 0.717126 0.498267 0.0545175 3 2 4 
8457 5 0.759274 0.596522 0.0366516 1 6 3 
7268 5 0.75281 0.528167 0.036061 5 3 -2 
6129 6 0.888272 0.504781 0.0391715 -4 3 1 
5109 6 0.70264 0.575833 0.0249827 4 2 -3 
7221 6 0.243942 0.640406 0.994521 -1 -1 0 
5664 6 0.503096 0.624826 0.0376671 0 -5 0 
8452 5 0.933289 0.610884 0.0173343 1 4 1 
8831 5 0.0389679 0.690503 0.0468937 0 3 7 
7519 5 0.24203 0.673719 0.0228733 -4 4 -1 
6465 5 0.858429 0.703453 0.0501711 0 -2 -5 
6529 5 0.891 0.668297 0.0396701 3 1 2 
7860 6 0.0980876 0.671323 0.0169683 -1 0 2 
6892 6 0.657729 0.699788 0.00885856 -4 2 0 
5454 5 0.241936 0.713782 0.0349331 -1 2 8 
5854 6 0.167195 0.753051 0.0563083 -2 -2 -2 
8062 6 0.627837 0.743752 0.0515929 3 6 -3 
7775 6 0.367243 0.756605 0.0419741 1 3 6 
8261 6 0.411175 0.804919 0.0141959 3 -1 4 
8464 5 0.449393 0.814969 0.0420102 -1 0 4 
7816 6 0.986527 0.848185 0.0145125 3 0 -4 
8469 5 0.983969 0.869199 0.100969 1 -4 1 
5591 6 0.462978 0.901825 0.0345854 3 -3 1 
8206 5 0.672151 0.843848 0.037747 1 3 2 
5353 6 0.957146 0.876541 0.0532949 0 5 -2 
7065 6 0.397541 0.897368 0.0558834 0 -4 -3 
8258 5 0.971242 0.890166 0.0311445 0 -3 -3 
5533 5 0.177536 0.901407 0.0795555 -2 3 0 
8441 6 0.69779 0.912426 0.0610391 -1 -3 4 
6127 6 0.66606 0.983136 0.0461262 6 -3 -6 
6716 6 0.203717 0.00431298 0.0445633 -1 0 -3 
7898 5 0.3896 0.940851 0.0351962 4 0 -2 
7259 5 0.408893 0.984615 0.00544649 -2 0 -1 
6726 5 0.545201 0.996879 0.00386786 -5 -2 3 
7423 5 0.106265 0.996551 0.0675595 -1 3 2 
6550 6 0.322285 0.997889 0.064495 3 -2 1 
5143 6 0.621018 0.0159112 0.0635986 2 3 -6 
7958 5 0.241327 0.0480467 0.0460783 7 0 5 
7991 5 0.75091 0.0456068 0.0403316 0 1 -1 
6331 6 0.341096 0.0569254 0.0476807 -2 -2 8 
6229 6 0.112412 0.113805 0.00654196 4 -1 1 
6024 5 0.91813 0.0971509 0.077544 1 1 -3 
5845 6 0.220196 0.11455 0.0664276 3 1 -2 
7707 6 0.53376 0.184812 0.10087 2 1 -5 
6252 6 0.848417 0.180848 0.0809354 -1 1 3 
7676 6 0.88764 0.167688 0.0573949 -3 -6 -1 
8900 5 0.933206 0.188112 0.0632293 -1 -7 0 
6273 5 0.863277 0.174506 0.0620986 1 -5 0 
6015 6 0.88045 0.163059 0.0562337 0 -3 -1 
7135 6 0.0774713 0.19822 0.0601735 1 0 1 
7762 6 0.770565 0.212724 0.024622 2 -1 2 
8224 5 0.525765 0.287728 0.047105 -2 -6 0 
6862 6 0.209405 0.233024 0.0343588 4 -5 -2 
7296 6 0.493573 0.22505 0.0535871 3 2 -2 
6315 5 0.827834 0.252426 0.0441844 -5 -6 -2 
8368 6 0.418918 0.306851 0.0406249 -3 -2 -4 
5647 5 0.757186 0.264874 0.0638021 -4 3 -1 
7320 5 0.66469 0.341466 0.0616622 -4 3 -2 
8647 5 0.773394 0.292469 0.0759325 1 5 5 
6307 6 0.159771 0.338604 0.00851895 0 -2 -3 
6547 6 0.758625 0.35522 0.0711272 1 1 -4 
5466 6 0.0454522 0.361272 0.0750037 0 4 -1 
6523 6 0.193336 0.403551 0.0925197 -3 2 -1 
7443 5 0.370099 0.384986 0.0291415 0 6 3 
6051 5 0.941728 0.351635 0.0571234 1 -2 3 
7115 5 0.347418 0.388006 0.0635965 0 4 0 
7642 6 0.291963 0.426102 0.0386962 -3 -2 3 
6970 6 0.326982 0.376745 0.047156 -2 -2 -8 
7034 6 0.548393 0.413035 0.0649071 0 0 4 
5331 5 0.801446 0.427702 0.0541403 2 0 -1 
8465 5 0.836644 0.419579 0.0511403 -1 0 0 
8496 5 0.0288372 0.471261 0.033298 4 0 1 
5831 6 0.156341 0.471395 0.0658556 6 4 4 
7092 5 0.125713 0.466606 0.0776796 4 1 -7 
7392 5 0.969885 0.494148 0.0761177 -1 2 -1 
8164 6 0.525797 0.53622 0.0524084 3 1 0 
6858 6 0.597605 0.562525 0.0785197 -2 1 -5 
7175 6 0.791404 0.544676 0.029703 4 -1 5 
5877 6 0.881574 0.53101 0.100661 -6 0 3 
6057 6 0.012507 0.563574 0.0295342 2 -5 3 
8200 6 0.16749 0.579584 0.0431203 3 3 2 
6255 6 0.349795 0.57714 0.0997248 -2 -5 -4 
6813 6 0.618314 0.588065 0.0716135 1 1 -3 
6364 5 0.94684 0.557482 0.0466233 -4 2 -4 
5870 6 0.0394818 0.625532 0.0512702 0 -2 0 
7617 6 0.65057 0.607134 0.0649828 -3 2 2 
6433 6 0.317208 0.644779 0.0488425 -1 3 -1 
6448 6 0.356602 0.640752 0.0515611 5 -5 -4 
8896 6 0.724578 0.632199 0.0418294 -2 -3 5 
5866 6 0.979633 0.654217 0.0430105 5 1 1 
6067 6 0.626892 0.717704 0.0604595 2 -6 -3 
6283 5 0.0803794 0.679328 0.0867441 4 1 1 
8730 6 0.171695 0.69136 0.0203574 0 0 -1 
5264 6 0.182216 0.6918 0.0782159 -1 2 0 
5547 5 0.361473 0.727732 0.0388938 2 -2 2 
7608 5 0.0702903 0.730986 0.0630146 2 1 0 
6825 6 0.518957 0.702967 0.0590784 1 -3 3 
6759 6 0.643146 0.717802 0.0894665 3 3 -4 
5086 6 0.671944 0.78064 0.0573177 0 -3 1 
6421 6 0.0720938 0.746912 0.0845094 -3 0 2 
5594 5 0.671324 0.767903 0.0598863 -1 0 2 
8167 5 0.794361 0.79475 0.02211 5 -4 0 
6904 6 0.914637 0.776773 0.0948334 -2 1 -4 
8985 6 0.110045 0.791674 0.0390346 -2 -3 -2 
5697 6 0.596808 0.805696 0.0693309 3 1 2 
5788 5 0.635384 0.799257 0.0641847 -3 -6 3 
5989 6 0.964354 0.8384 0.038064 1 0 2 
5303 6 0.487249 0.83131 0.0398583 3 9 -3 
7007 5 0.0405432 0.900354 0.0714573 2 -3 -2 
8977 5 0.227153 0.880229 0.0453593 -1 -1 -3 
5048 6 0.473189 0.867032 0.00735703 1 -3 -5 
6909 6 0.741168 0.895184 0.0922604 0 0 -2 
5897 5 0.429397 0.925848 0.0616446 -2 2 1 
5067 6 0.669386 0.880813 0.0436287 3 -5 0 
6861 6 0.702021 0.90018 0.0447363 -1 1 5 
6266 6 0.793295 0.908145 0.0468622 0 5 2 
6434 6 0.409694 0.974846 0.0234212 3 -3 -1 
8185 5 0.520144 0.972585 0.0395798 -2 -3 0 
8830 6 0.671996 0.933866 0.0671168 -1 5 1 
8360 6 0.878143 0.982901 0.0557589 -3 -3 1 
5599 6 0.570763 0.0570116 0.0810789 0 0 -3 
5941 5 0.201934 0.0497232 0.0899307 -5 6 -2 
5139 6 0.806254 0.0734852 0.10311 1 0 -1 
5267 6 0.235151 0.10035 0.044169 1 4 5 
8239 6 0.197021 0.130601 0.071304 4 -2 1 
7877 6 0.290884 0.143719 0.0903674 4 0 -3 
5892 5 0.428383 0.107961 0.104584 0 1 -1 
8194 6 0.753759 0.137425 0.0894586 -4 1 5 
8413 6 0.9947 0.136377 0.0580017 0 0 -6 
8064 6 0.0637472 0.157738 0.0929963 2 1 -1 
6492 6 0.767953 0.131784 0.0494186 -3 0 4 
6290 6 0.0177961 0.154613 0.0440196 1 2 -1 
8142 5 0.370704 0.153665 0.0885692 4 -1 -2 
8775 5 0.605832 0.132187 0.0623597 -3 4 7 
8161 5 0.924472 0.168478 0.0739747 2 4 -4 
5875 6 0.764264 0.209635 0.0646336 3 1 0 
6265 5 0.282625 0.247135 0.0220849 -4 0 5 
8585 6 0.399827 0.205164 0.0615595 1 2 0 
8374 6 0.444718 0.239333 0.0856976 1 3 2 
5036 6 0.582198 0.256777 0.0980671 -1 2 0 
6897 6 0.699813 0.26486 0.119398 4 -2 -1 
6102 6 0.810737 0.246706 0.0866481 2 -6 1 
7643 6 0.517231 0.301183 0.0874133 -1 -2 0 
5308 6 0.721596 0.302373 0.0432713 1 -3 -5 
6457 5 0.853429 0.340705 0.0824365 -7 1 0 
7410 6 0.654696 0.331655 0.0714687 -1 -6 -1 
5535 6 0.806762 0.320068 0.0974942 5 0 3 
6972 5 0.902609 0.382402 0.0872908 -4 2 -1 
7921 5 0.960744 0.345441 0.079575 -6 4 2 
5053 5 0.504221 0.35377 0.0723381 -1 1 0 
8303 5 0.603431 0.385922 0.100195 -5 -1 -1 
7646 6 0.257887 0.4084 0.0722122 -1 1 -3 
8984 6 0.10852 0.429697 0.0886785 3 -1 0 
7777 6 0.0808225 0.412117 0.0839956 -4 -1 4 
7944 6 0.128859 0.396989 0.0603436 5 -2 2 
8247 6 0.922626 0.4101 0.0951163 1 -1 2 
7133 6 0.512852 0.474549 0.0855148 -1 -3 3 
8716 6 0.71027 0.445877 0.0798104 -1 2 1 
6798 5 0.26602 0.481223 0.0765462 1 1 -2 
5976 6 0.377805 0.528257 0.0881646 -4 0 -1 
5433 6 0.57333 0.527367 0.0958847 2 -4 -4 
6778 5 0.059412 0.556422 0.0941701 6 -2 -2 
8829 6 0.48042 0.559834 0.0680826 -1 -3 1 
8312 5 0.62134 0.566224 0.089619 4 -3 -4 
8095 6 0.977595 0.54009 0.120285 -5 2 2 
6446 6 0.25176 0.592027 0.091539 -4 1 2 
6065 6 0.528207 0.574894 0.10936 -6 1 -6 
7662 6 0.891719 0.58792 0.0941642 4 2 -3 
8765 5 0.635692 0.618104 0.073121 -3 -1 0 
5857 5 0.598574 0.617686 0.0824259 -2 -5 -2 
5729 5 0.655551 0.662819 0.0880307 0 4 1 
8964 6 0.828832 0.638845 0.0935969 2 -1 3 
5380 5 0.804378 0.652707 0.062686 -3 1 -5 
7896 6 0.223564 0.65707 0.0288717 5 2 2 
7780 6 0.359912 0.662461 0.105305 1 1 1 
6010 6 0.239069 0.703698 0.0807649 0 -6 -4 
6997 5 0.503442 0.726708 0.0720311 4 -1 -1 
7416 6 0.905409 0.738157 0.0633457 3 -2 1 
6169 6 0.86136 0.753643 0.0649671 0 1 0 
6415 6 0.726277 0.783755 0.100054 0 -2 2 
7326 5 0.863802 0.837292 0.0783457 -2 4 -2 
7995 6 0.535544 0.863665 0.0926697 4 1 0 
8966 6 0.358206 0.884993 0.0720662 -2 2 -4 
7572 6 0.66092 0.901224 0.124286 -5 6 -4 
6206 6 0.683837 0.896392 0.081377 -3 6 -5 
6736 5 0.786882 0.918329 0.0510968 -1 1 -2 
5113 5 0.858189 0.841909 0.0734595 2 -1 3 
6443 6 0.331359 0.895501 0.0592203 2 -4 -4 
5369 5 0.505602 0.898651 0.0805848 -1 -2 2 
8100 5 0.873505 0.9285 0.068722 -1 -1 2 
6805 5 0.299186 0.920005 0.0815372 0 -5 0 
6834 6 0.412728 0.95659 0.0543046 -4 1 0 
6125 6 0.575695 0.952977 0.0839442 -1 -1 0 
5580 5 0.855506 0.938723 0.112359 -2 7 0 
6370 5 0.98629 0.98604 0.0956611 -2 2 0 
6333 6 0.433912 0.965486 0.0686177 -1 0 2 
6034 5 0.455543 0.966309 0.136099 1 2 -1 
5231 5 0.625378 0.984231 0.100001 -4 2 8 
7601 6 0.555354 0.942051 0.0862235 -1 2 -1 
5218 6 0.607519 0.944368 0.067489 -6 -1 3 
6640 5 0.691082 0.945264 0.0603532 -12 0 -3 
7349 5 0.966293 0.967664 0.0589108 -1 1 -2 
6191 5 0.683284 0.975166 0.074469 3 0 0 
5430 5 0.0176448 0.0130754 0.0928742 7 2 -3 
5074 5 0.559439 0.00625118 0.1026 0 3 3 
5506 5 0.563932 0.0327687 0.0902608 -2 3 -3 
7508 5 0.840595 0.0441895 0.121309 4 4 -3 
5324 5 0.0240775 0.0771408 0.109808 4 0 0 
8392 6 0.229801 0.0586793 0.0745346 2 2 1 
6291 5 0.215898 0.0691008 0.101282 -1 -4 0 
5716 6 0.774045 0.0448462 0.0913005 2 3 1 
6957 5 0.945152 0.122358 0.0854902 -4 -1 -3 
8562 5 0.432515 0.161733 0.136624 -1 1 -4 
5815 6 0.26132 0.144417 0.119883 2 -1 -2 
6573 5 0.752033 0.199309 0.102786 4 1 0 
7380 6 0.958033 0.189665 0.106821 -1 1 3 
6221 6 0.299155 0.213033 0.104077 -1 -2 -1 
7085 6 0.652909 0.199548 0.127904 2 -1 -1 
7725 6 0.170109 0.283188 0.105507 2 1 -1 
7987 6 0.382571 0.284197 0.0599191 -5 0 -5 
7663 6 0.674449 0.319072 0.103074 2 1 -4 
6358 6 0.10374 0.296013 0.115636 -1 2 5 
5432 6 0.388115 0.333569 0.0995145 -4 -4 1 
8537 6 0.607748 0.335798 0.129668 1 1 -2 
5616 6 0.950036 0.283462 0.148369 -2 -1 5 
5714 6 0.332323 0.346918 0.124905 3 -2 3 
8215 5 0.93434 0.338849 0.100942 4 -5 0 
6481 5 0.982184 0.389571 0.0981212 -7 -3 1 
6924 5 0.258271 0.438507 0.116308 1 1 1 
1620 2 0.331888 0.448258 0.111617 0 0 0 
1621 2 0.338789 0.447278 0.110889 0 0 0 
1622 2 0.343596 0.443134 0.110685 0 0 0 
7074 5 0.924809 0.440148 0.0941567 -1 1 -2 
1617 1 0.3245 0.44504 0.119033 0 0 0 
1619 1 0.32534 0.447965 0.112454 0 0 0 
1618 1 0.321874 0.450682 0.116952 0 0 0 
6137 5 0.793504 0.522951 0.0951182 -4 4 -2 
5764 5 0.68462 0.518394 0.0871715 -5 3 3 
5887 6 0.878797 0.559151 0.130612 -2 4 -2 
5755 5 0.775838 0.539853 0.10087 -3 -4 -6 
6612 5 0.0269347 0.56197 0.0981138 1 0 1 
5678 6 0.24025 0.611731 0.12272 -2 1 8 
8746 5 0.66734 0.58046 0.10145 3 0 -5 
5205 6 0.985041 0.63827 0.0856747 0 0 -1 
6857 5 0.5939 0.652653 0.10794 -5 2 2 
5081 6 0.452613 0.67533 0.0794828 4 -1 -3 
5930 5 0.58496 0.648688 0.139106 3 3 -1 
7897 6 0.86094 0.669012 0.128139 1 4 -2 
7574 6 0.307004 0.681452 0.0891518 4 -3 2 
6590 6 0.110997 0.756439 0.110054 3 0 3 
6148 5 0.402407 0.788217 0.0730089 2 0 1 
6475 6 0.65354 0.759914 0.127634 -2 3 -3 
6345 5 0.863536 0.824926 0.0674164 -1 1 0 
5561 5 0.281524 0.850558 0.0929878 1 -5 1 
7696 6 0.311234 0.910695 0.11951 -4 -6 0 
7222 5 0.0856209 0.925884 0.0542329 3 -3 0 
5345 6 0.434621 0.886839 0.156798 0 -2 5 
7484 5 0.995994 0.912813 0.0912458 0 -1 -4 
6133 5 0.0197493 0.986908 0.0927558 -5 2 -2 
5391 6 0.314238 0.956561 0.095985 -2 4 0 
5287 5 0.365628 0.976589 0.105499 2 1 -1 
5694 5 0.111747 0.996144 0.128355 4 2 -2 
8422 6 0.113958 0.0599274 0.126097 -3 -4 1 
5010 5 0.49034 0.00978231 0.128028 -1 1 3 
7293 6 0.629934 0.0235617 0.126243 3 5 -2 
7454 5 0.53179 0.124472 0.0874654 0 3 -1 
5364 5 0.422227 0.0866043 0.12474 -1 1 1 
7672 6 0.517824 0.135038 0.125823 0 0 -1 
6249 6 0.9152 0.106984 0.110792 -4 1 1 
8314 6 0.19456 0.100896 0.109406 3 5 -3 
8862 6 0.469821 0.182259 0.123645 -2 -5 0 
6149 5 0.302575 0.199342 0.178214 -1 -1 -5 
7648 6 0.738756 0.215743 0.152637 2 4 4 
8189 6 0.781838 0.142633 0.0909192 0 -2 0 
5723 6 0.77773 0.224173 0.125105 2 2 -2 
8714 6 0.895552 0.206205 0.173225 -4 6 4 
8550 5 0.138239 0.227435 0.134949 -4 0 6 
5189 5 0.937555 0.250555 0.086871 -3 0 5 
8395 6 0.442756 0.260854 0.156271 1 2 3 
7786 6 0.642007 0.339022 0.122005 4 1 1 
5273 6 0.667424 0.299478 0.119005 -2 0 0 
8204 6 0.0417499 0.3558 0.144774 -3 -4 2 
5611 6 0.307427 0.332196 0.148225 3 0 3 
7976 6 0.275218 0.375833 0.119278 0 -5 -1 
7637 6 0.637726 0.285104 0.155203 0 -1 8 
6627 6 0.320862 0.366258 0.13903 -1 0 -2 
2820 2 0.457534 0.346754 0.128705 0 0 0 
2821 2 0.460119 0.341678 0.132822 0 0 0 
2819 2 0.457338 0.351877 0.125033 0 0 0 
2818 2 0.456578 0.358762 0.125038 0 0 0 
6910 5 0.0655885 0.4115 0.0973277 0 0 2 
1707 1 0.308377 0.385668 0.131844 0 0 0 
1708 1 0.312494 0.384176 0.126977 0 0 0 
2603 1 0.354267 0.390224 0.140924 0 0 0 
2602 1 0.357674 0.395534 0.142029 0 0 0 
1771 1 0.38037 0.392459 0.134971 0 0 0 
2810 1 0.461936 0.385034 0.128593 0 0 0 
2809 2 0.458485 0.380085 0.130811 0 0 0 
2808 2 0.456166 0.374158 0.133567 0 0 0 
2814 2 0.463767 0.37403 0.116752 0 0 0 
5780 5 0.475786 0.358682 0.14808 2 2 0 
2815 2 0.466222 0.371101 0.122086 0 0 0 
2816 2 0.463187 0.369479 0.127428 0 0 0 
2817 2 0.458048 0.3647 0.125554 0 0 0 
8725 5 0.686557 0.327928 0.110989 1 -1 -1 
6416 5 0.839444 0.36775 0.125527 0 3 1 
1711 1 0.323214 0.386602 0.131074 0 0 0 
1709 1 0.31568 0.386742 0.132412 0 0 0 
1710 1 0.318465 0.388979 0.127438 0 0 0 
1712 1 0.324055 0.392362 0.129643 0 0 0 
1714 1 0.320697 0.398485 0.132404 0 0 0 
1713 1 0.322403 0.39281 0.135804 0 0 0 
1716 1 0.321497 0.404002 0.13737 0 0 0 
1717 1 0.325928 0.39996 0.137883 0 0 0 
2599 1 0.353015 0.402335 0.135266 0 0 0 
2596 1 0.347648 0.406027 0.131577 0 0 0 
2597 1 0.345444 0.401357 0.135286 0 0 0 
2598 1 0.348926 0.404885 0.138933 0 0 0 
2600 1 0.350858 0.397495 0.139329 0 0 0 
2601 1 0.356065 0.395427 0.136153 0 0 0 
2595 2 0.348456 0.410974 0.135716 0 0 0 
1770 1 0.384439 0.392573 0.12967 0 0 0 
1772 1 0.383492 0.386913 0.134597 0 0 0 
1769 1 0.380144 0.398261 0.129215 0 0 0 
1762 1 0.396192 0.40816 0.120174 0 0 0 
1768 1 0.382593 0.396505 0.12363 0 0 0 
1764 1 0.389295 0.405941 0.1183 0 0 0 
1766 1 0.383634 0.403912 0.122368 0 0 0 
1767 1 0.386732 0.400172 0.126266 0 0 0 
1765 1 0.38718 0.400205 0.118657 0 0 0 
1763 1 0.394028 0.402266 0.121123 0 0 0 
1761 1 0.398317 0.406554 0.126032 0 0 0 
1810 1 0.426964 0.40457 0.127075 0 0 0 
2811 2 0.460484 0.388726 0.123559 0 0 0 
2812 2 0.459125 0.385962 0.117917 0 0 0 
2813 2 0.460243 0.379479 0.117408 0 0 0 
7397 5 0.588669 0.383633 0.112 -1 3 2 
5624 6 0.0669235 0.464117 0.137131 7 -2 -5 
2593 2 0.349851 0.422109 0.141244 0 0 0 
2592 2 0.348834 0.428134 0.142109 0 0 0 
1635 1 0.322709 0.433459 0.133645 0 0 0 
2594 1 0.349398 0.416904 0.137431 0 0 0 
2591 2 0.345825 0.433647 0.140618 0 0 0 
1832 1 0.389638 0.42478 0.145099 0 0 0 
1834 1 0.385777 0.429513 0.150569 0 0 0 
1836 1 0.380255 0.42783 0.154942 0 0 0 
1760 1 0.403036 0.409261 0.122698 0 0 0 
1830 1 0.391755 0.428591 0.138778 0 0 0 
1826 1 0.400749 0.434691 0.13111 0 0 0 
1758 1 0.405022 0.415259 0.126442 0 0 0 
1756 1 0.404198 0.410936 0.132101 0 0 0 
1755 1 0.398707 0.411592 0.135773 0 0 0 
1754 1 0.404027 0.410782 0.13963 0 0 0 
1757 1 0.402135 0.417126 0.131952 0 0 0 
1759 1 0.399057 0.4139 0.125942 0 0 0 
1828 1 0.398888 0.43136 0.137307 0 0 0 
1823 1 0.412536 0.431296 0.130489 0 0 0 
1818 1 0.41956 0.418434 0.125702 0 0 0 
1817 1 0.418747 0.420233 0.119188 0 0 0 
1816 1 0.423592 0.415912 0.119699 0 0 0 
1814 1 0.430739 0.418168 0.120566 0 0 0 
1815 1 0.425565 0.422021 0.121715 0 0 0 
1811 1 0.426173 0.41072 0.128821 0 0 0 
1813 1 0.42954 0.417235 0.126977 0 0 0 
1812 1 0.429442 0.411058 0.123327 0 0 0 
1819 1 0.419675 0.424502 0.126329 0 0 0 
1821 1 0.411961 0.426264 0.125664 0 0 0 
1820 1 0.414816 0.421275 0.128926 0 0 0 
6243 6 0.656958 0.411299 0.139904 0 6 1 
7771 6 0.959186 0.407176 0.147928 3 2 -6 
5018 5 0.111743 0.448242 0.146176 -2 -1 -1 
5668 6 0.252459 0.467312 0.1248 -3 -1 -4 
1605 1 0.318691 0.454645 0.133581 0 0 0 
1603 1 0.317651 0.448004 0.136474 0 0 0 
1628 1 0.333243 0.428667 0.119022 0 0 0 
1631 1 0.324041 0.435444 0.123693 0 0 0 
1630 1 0.326647 0.430264 0.121309 0 0 0 
1629 1 0.331165 0.434276 0.121757 0 0 0 
1633 1 0.318365 0.435941 0.12749 0 0 0 
1632 1 0.319513 0.430656 0.124763 0 0 0 
1634 1 0.317135 0.431141 0.131697 0 0 0 
1627 1 0.334934 0.43362 0.115782 0 0 0 
6172 5 0.307872 0.458628 0.140314 -5 -2 0 
1626 1 0.340591 0.431323 0.118699 0 0 0 
1625 1 0.340973 0.431952 0.111986 0 0 0 
1623 1 0.34669 0.43672 0.111566 0 0 0 
1624 1 0.346618 0.431029 0.114276 0 0 0 
2590 2 0.346055 0.433358 0.133968 0 0 0 
2589 2 0.3467 0.438391 0.129672 0 0 0 
2588 2 0.35241 0.442119 0.130461 0 0 0 
2587 2 0.351882 0.445946 0.13559 0 0 0 
5621 5 0.34897 0.435963 0.148438 3 -3 1 
1824 1 0.406249 0.430223 0.129594 0 0 0 
1822 1 0.410559 0.42555 0.131922 0 0 0 
8809 6 0.112065 0.441888 0.137774 0 -3 1 
6531 6 0.0881869 0.451105 0.120327 3 4 -2 
1606 1 0.312965 0.457943 0.132383 0 0 0 
1607 1 0.317662 0.462333 0.132656 0 0 0 
1608 1 0.315157 0.461884 0.126604 0 0 0 
1609 1 0.32112 0.464514 0.126715 0 0 0 
6784 5 0.317519 0.447081 0.129538 3 0 3 
1616 1 0.319037 0.446493 0.122384 0 0 0 
1610 1 0.320985 0.459947 0.122237 0 0 0 
1615 1 0.323599 0.444346 0.126839 0 0 0 
1611 1 0.32247 0.457678 0.127971 0 0 0 
1612 1 0.319423 0.453133 0.125149 0 0 0 
1613 1 0.323117 0.451365 0.13022 0 0 0 
1614 1 0.325687 0.449541 0.124442 0 0 0 
5275 6 0.36085 0.472795 0.124431 -2 -4 3 
6311 6 0.671268 0.474907 0.13707 2 -1 -4 
6111 5 0.117361 0.469172 0.154312 2 -1 -2 
6614 5 0.29342 0.484409 0.147463 -2 1 4 
6886 5 0.767713 0.530216 0.153137 4 -6 1 
8797 5 0.830891 0.490928 0.115507 -4 7 -2 
5970 6 0.875042 0.501063 0.097285 1 1 5 
6871 5 0.952497 0.471754 0.142228 -2 3 -2 
7117 6 0.581913 0.578983 0.15085 0 -1 4 
6928 5 0.819549 0.57485 0.155872 1 1 -1 
5931 6 0.500655 0.576843 0.111198 1 2 -2 
7963 6 0.0453963 0.546072 0.170352 -5 2 -3 
6017 6 0.367824 0.591014 0.118819 0 -2 -3 
6192 5 0.982217 0.581702 0.142325 -1 -2 0 
6649 6 0.24194 0.597688 0.148911 4 -1 -4 
7540 6 0.543786 0.604165 0.111325 1 4 -1 
5470 6 0.7427 0.618192 0.133477 -2 2 2 
8689 6 0.469533 0.607662 0.15091 -1 1 -1 
5122 5 0.598196 0.69986 0.160555 5 2 0 
6955 6 0.102013 0.657563 0.106333 -1 2 1 
7635 6 0.312403 0.670462 0.117869 0 2 2 
7660 5 0.609438 0.668758 0.122469 -3 3 3 
5495 6 0.0098577 0.671735 0.120559 -1 -1 -4 
7853 6 0.725774 0.697485 0.166844 -3 6 0 
6459 6 0.777347 0.658226 0.112827 -2 2 4 
6180 6 0.973094 0.692031 0.0901289 -3 -8 0 
7942 5 0.162797 0.750772 0.13746 4 2 -2 
7471 6 0.934318 0.734564 0.123728 -6 -1 5 
5131 6 0.140517 0.837002 0.133281 2 3 4 
8058 5 0.637818 0.792948 0.1204 -4 1 4 
7557 5 0.806295 0.825184 0.126895 3 1 1 
5472 6 0.824836 0.844255 0.117976 6 0 -1 
7292 6 0.588999 0.884707 0.114992 2 4 1 
8137 6 0.666555 0.827367 0.146196 3 2 1 
5435 5 0.781077 0.829518 0.137809 -3 -1 3 
6181 6 0.795204 0.808685 0.150393 -4 -2 3 
8490 5 0.0999287 0.873635 0.152651 0 6 2 
6348 6 0.198547 0.927754 0.111516 5 6 2 
5698 6 0.68304 0.866048 0.137756 -1 -2 1 
5672 6 0.92028 0.890365 0.132213 1 -5 1 
7082 5 0.563933 0.874145 0.135209 -3 -2 -4 
5943 5 0.958801 0.932445 0.160992 -1 -1 2 
7314 6 0.85461 0.948852 0.10065 -3 -4 3 
7134 6 0.176982 0.953416 0.158663 1 -2 6 
7792 6 0.200043 0.918819 0.0977002 -3 0 -3 
5158 5 0.432112 0.926864 0.0783116 5 2 -2 
8486 5 0.571146 0.0042231 0.182459 -3 0 -4 
6809 5 0.00262797 0.986478 0.142954 2 2 -5 
5867 6 0.067529 0.0198894 0.184356 -1 0 -2 
7552 6 0.564463 0.0588318 0.125703 3 4 1 
6393 5 0.395656 0.0578208 0.125394 3 4 3 
6571 6 0.496735 0.0270785 0.153729 -2 -3 -7 
8387 6 0.513178 0.0223031 0.162661 0 -1 0 
8307 6 0.978143 0.0492135 0.121295 0 -3 -3 
6844 6 0.200138 0.0631569 0.143804 -3 1 1 
7739 6 0.309248 0.100022 0.139574 -2 -2 0 
7614 6 0.393162 0.0836361 0.145856 6 -6 -5 
7388 6 0.372587 0.0842912 0.172704 -1 2 -1 
6511 5 0.568178 0.0758769 0.143841 0 1 -2 
7129 5 0.719841 0.12321 0.205548 -1 1 3 
6352 5 0.761345 0.118984 0.147445 1 -6 -5 
6586 6 0.855217 0.0973745 0.157424 2 0 2 
5767 5 0.0763848 0.183126 0.114278 2 -1 0 
6262 6 0.131415 0.161066 0.148083 2 5 2 
8136 6 0.644081 0.159348 0.160663 -5 3 -1 
5406 6 0.0139497 0.179144 0.139991 1 -2 -1 
8340 5 0.192172 0.229075 0.166131 0 -2 -3 
7533 5 0.715149 0.183308 0.169099 -5 3 0 
5366 5 0.810005 0.200626 0.16954 -2 -5 2 
7265 6 0.209973 0.201713 0.177784 6 4 2 
5985 6 0.548338 0.198601 0.155127 -5 0 -1 
5489 6 0.367917 0.261443 0.169552 1 -2 -4 
6705 5 0.952237 0.290921 0.130398 -2 -1 2 
8871 6 0.213621 0.288804 0.151284 4 -3 6 
8497 6 0.191433 0.317399 0.154544 2 3 -6 
5959 6 0.588401 0.303418 0.162705 -4 0 -7 
6885 6 0.616249 0.333423 0.1804 1 -3 7 
7370 6 0.852814 0.305848 0.097584 -3 1 5 
6598 6 0.899075 0.360742 0.144285 -2 -4 -1 
5258 5 0.885837 0.290241 0.18031 1 -3 2 
2825 2 0.477605 0.342584 0.148132 0 0 0 
2824 2 0.472759 0.339165 0.145275 0 0 0 
8596 5 0.412782 0.396336 0.166088 3 0 2 
2822 2 0.466232 0.340235 0.134366 0 0 0 
2805 2 0.466896 0.363103 0.14052 0 0 0 
2804 2 0.467482 0.362744 0.146714 0 0 0 
2802 2 0.470231 0.362159 0.159675 0 0 0 
2803 2 0.469673 0.362349 0.153202 0 0 0 
2823 2 0.469644 0.339035 0.13996 0 0 0 
6507 5 0.75909 0.360995 0.116401 0 1 3 
5306 6 0.187145 0.363336 0.159816 -2 -3 0 
8577 6 0.252841 0.387895 0.143129 3 -2 3 
1694 1 0.297652 0.385205 0.153105 0 0 0 
1692 1 0.294443 0.379642 0.155052 0 0 0 
1693 1 0.299438 0.378445 0.151336 0 0 0 
1691 2 0.289116 0.381851 0.156788 0 0 0 
1695 1 0.29987 0.385063 0.146853 0 0 0 
1696 1 0.30311 0.389084 0.150105 0 0 0 
1690 2 0.287904 0.388311 0.158127 0 0 0 
1702 1 0.309385 0.382231 0.146117 0 0 0 
1703 1 0.314512 0.380349 0.142295 0 0 0 
1701 1 0.315115 0.384891 0.147855 0 0 0 
1699 1 0.310842 0.389634 0.144388 0 0 0 
1697 1 0.303865 0.390214 0.14345 0 0 0 
1698 1 0.307023 0.394049 0.147312 0 0 0 
1700 1 0.31018 0.38789 0.150535 0 0 0 
1704 1 0.308883 0.379596 0.13881 0 0 0 
1705 1 0.314118 0.380046 0.13475 0 0 0 
1706 1 0.309192 0.379173 0.130806 0 0 0 
5085 5 0.343559 0.405431 0.118952 -1 5 5 
2604 1 0.359842 0.388878 0.145374 0 0 0 
2606 1 0.362819 0.383542 0.141456 0 0 0 
2605 1 0.362165 0.389567 0.139563 0 0 0 
2607 1 0.365245 0.384936 0.13511 0 0 0 
2609 1 0.366916 0.377961 0.138335 0 0 0 
2608 1 0.36138 0.380288 0.135396 0 0 0 
1773 1 0.385428 0.389756 0.14009 0 0 0 
2613 1 0.370724 0.369573 0.146472 0 0 0 
2612 1 0.368562 0.374901 0.14417 0 0 0 
2611 1 0.367851 0.370539 0.139841 0 0 0 
2610 1 0.362496 0.373784 0.139806 0 0 0 
2614 1 0.365077 0.371311 0.149804 0 0 0 
1776 1 0.374847 0.391394 0.140322 0 0 0 
2615 1 0.370577 0.373244 0.152877 0 0 0 
1775 1 0.379563 0.391557 0.144322 0 0 0 
1791 1 0.402899 0.389294 0.158079 0 0 0 
1797 1 0.419351 0.384934 0.161436 0 0 0 
1795 1 0.412837 0.380958 0.161327 0 0 0 
1793 1 0.410251 0.388243 0.15889 0 0 0 
1794 1 0.407799 0.384021 0.162978 0 0 0 
1796 1 0.414605 0.386126 0.165071 0 0 0 
2807 2 0.455893 0.367666 0.133188 0 0 0 
2806 2 0.460845 0.364639 0.136766 0 0 0 
1688 1 0.276954 0.389627 0.151782 0 0 0 
1687 1 0.276251 0.391333 0.158238 0 0 0 
1689 1 0.282732 0.389259 0.154518 0 0 0 
1686 1 0.277108 0.396361 0.154122 0 0 0 
1684 1 0.283805 0.397659 0.157442 0 0 0 
1679 1 0.298221 0.403142 0.16436 0 0 0 
1678 1 0.296447 0.40801 0.167981 0 0 0 
1715 1 0.318926 0.398045 0.138289 0 0 0 
1720 1 0.334271 0.408765 0.135472 0 0 0 
1719 1 0.330686 0.403301 0.133935 0 0 0 
1721 1 0.336132 0.403325 0.137989 0 0 0 
1723 1 0.339561 0.405111 0.144757 0 0 0 
1530 1 0.336584 0.398716 0.166926 0 0 0 
1725 1 0.339998 0.406427 0.152299 0 0 0 
1730 1 0.351661 0.413126 0.14244 0 0 0 
1729 4 0.353276 0.410545 0.148001 0 0 0 
1727 1 0.346941 0.409398 0.152161 0 0 0 
1732 1 0.356567 0.416042 0.137944 0 0 0 
1527 2 0.34067 0.409769 0.15951 0 0 0 
1774 1 0.380261 0.385939 0.140963 0 0 0 
1781 1 0.373624 0.388806 0.157935 0 0 0 
1779 1 0.376314 0.390837 0.151373 0 0 0 
1778 1 0.375292 0.386682 0.146618 0 0 0 
1777 1 0.372709 0.392292 0.145971 0 0 0 
1735 1 0.364522 0.41693 0.145574 0 0 0 
1737 1 0.368929 0.412069 0.142614 0 0 0 
1734 1 0.362955 0.413982 0.140251 0 0 0 
1738 1 0.370384 0.413386 0.148885 0 0 0 
1786 1 0.387127 0.381428 0.162227 0 0 0 
1787 1 0.392078 0.381023 0.158043 0 0 0 
1785 1 0.385931 0.385801 0.157602 0 0 0 
1788 1 0.394094 0.383991 0.163309 0 0 0 
1789 1 0.39541 0.38803 0.15894 0 0 0 
1790 1 0.399947 0.388768 0.163774 0 0 0 
7556 5 0.376954 0.4048 0.139256 3 0 1 
1808 1 0.427247 0.40598 0.13433 0 0 0 
1801 1 0.419406 0.394058 0.150043 0 0 0 
1803 1 0.423935 0.399376 0.147852 0 0 0 
1804 1 0.41913 0.402602 0.144441 0 0 0 
1802 1 0.41838 0.399986 0.151309 0 0 0 
1799 1 0.418361 0.388928 0.155816 0 0 0 