ITEM: TIMESTEP
20000000
ITEM: NUMBER OF ATOMS
9000
ITEM: BOX BOUNDS pp pp pp
-75 75
-75 75
-75 75
ITEM: ATOMS id type xs ys zs ix iy iz 
5098 5 0.134171 0.00528812 0.997908 -3 -3 -1 
6686 6 0.655097 0.956715 0.0052117 0 -7 2 
6049 6 0.717024 0.0107778 0.0206033 -1 1 -6 
5726 6 0.0794504 0.0493367 0.98701 2 7 -1 
7447 6 0.111614 0.103265 0.00667551 2 2 0 
5987 5 0.0814682 0.133338 0.0708002 3 -2 3 
5859 5 0.239748 0.120929 0.999522 -3 -2 -2 
8309 6 0.432943 0.100162 0.00645252 1 2 4 
6107 6 0.523729 0.130558 0.0262358 -4 5 6 
7816 6 0.789875 0.0962623 0.992036 -2 -1 -2 
8902 6 0.398945 0.223946 0.986442 -1 0 -2 
8510 6 0.451931 0.208867 0.986198 5 -3 1 
7177 6 0.556651 0.164822 0.98305 -1 -3 -4 
8591 6 0.0288105 0.203456 0.0155506 0 1 1 
7007 5 0.341265 0.229023 0.0498091 4 7 2 
7694 6 0.819208 0.253398 0.0317657 0 -2 5 
6380 5 0.269337 0.247637 0.949817 -1 2 -1 
8888 6 0.717128 0.238554 0.0370449 1 -3 -1 
6327 5 0.353311 0.228736 0.0210739 4 0 -1 
7580 5 0.431802 0.231039 0.9645 6 2 -9 
7781 5 0.528718 0.262449 0.0151062 0 1 -1 
5119 6 0.701268 0.307219 0.00558061 3 2 1 
8094 5 0.429942 0.325831 0.0220666 1 2 4 
7072 6 0.769372 0.318806 0.0476677 1 0 1 
8517 6 0.944522 0.330189 0.0113314 -1 -2 2 
8110 6 0.391634 0.360277 0.0360033 0 2 3 
6440 5 0.986939 0.394165 0.0098556 -5 4 3 
8048 6 0.436974 0.413751 0.0580752 2 -2 -1 
6996 5 0.564897 0.386927 0.00506189 0 -3 -1 
5558 5 0.652509 0.459398 0.995721 -7 -3 0 
7689 6 0.55379 0.52401 0.999849 2 5 0 
8330 6 0.622194 0.543299 0.018372 3 -1 4 
5311 6 0.950292 0.535383 0.0110723 -1 5 -2 
8438 6 0.279336 0.549378 -0.000566059 3 2 0 
7992 6 0.417877 0.483625 0.000153302 -3 2 -2 
5619 6 0.409809 0.563851 0.00463935 -10 -2 -4 
7665 5 0.981634 0.596928 0.0194323 0 -4 2 
5339 6 0.972766 0.595805 0.995426 5 2 -3 
8170 6 0.512683 0.599661 0.00873442 2 4 2 
6315 5 0.1 0.621177 0.968038 -1 3 7 
5745 5 0.276407 0.617066 0.0254891 -1 2 -1 
8700 5 0.634683 0.637172 0.0335963 0 -1 2 
5640 5 0.702369 0.663671 0.0312946 -1 4 3 
7846 5 0.267899 0.659589 0.995634 2 -1 -1 
8432 6 0.530961 0.691741 0.985201 -2 -1 1 
6104 5 0.626191 0.654731 0.0166283 -2 0 1 
7503 6 0.138782 0.674659 0.0207082 0 2 -1 
5648 6 0.458437 0.69187 0.0108026 -2 0 0 
8317 6 0.499314 0.702126 0.000652285 -1 5 -2 
5641 6 0.330594 0.730421 0.0145541 -3 4 -3 
6446 5 0.927017 0.711354 0.0507743 -1 2 1 
7742 5 0.781928 0.769331 0.0369638 -4 1 0 
8907 5 0.0896699 0.753094 0.0247082 1 2 -6 
8131 6 0.23503 0.750186 0.010354 2 6 -1 
8193 5 0.0685905 0.811483 0.0284478 3 -4 1 
6871 5 0.376153 0.774238 0.0114436 -4 -1 0 
8313 6 0.381593 0.840607 0.0140423 -1 1 1 
5051 6 0.498384 0.830865 -0.00607481 1 0 1 
5180 6 0.580252 0.828828 0.987047 -4 0 3 
7771 5 0.346218 0.88719 1.0006 3 -4 -2 
8073 6 0.874316 0.848531 0.00290719 0 6 -4 
8731 6 0.106318 0.924539 0.975547 3 5 -2 
8369 6 0.875457 0.951525 0.014949 -7 -3 0 
6549 5 0.248446 0.948014 0.98434 0 -1 2 
8230 6 0.0404291 0.935228 0.000857449 7 -1 3 
8651 6 0.401102 0.950411 0.973369 -4 -2 -3 
6236 5 0.638995 1.00117 0.0240811 -1 0 -1 
8151 5 0.909696 0.957743 0.0251549 -2 3 0 
8541 6 0.988049 0.98256 0.00928205 1 -1 1 
7886 6 0.0830008 0.961559 0.00457412 4 -2 -1 
7560 6 0.115998 0.0084281 0.99953 0 5 -2 
8842 6 0.0359096 0.0398247 0.0430188 3 7 -3 
5806 5 0.59697 0.00668575 0.0730608 2 2 -1 
5554 6 0.861418 0.104106 0.0654925 0 6 5 
5828 6 0.138046 0.119845 0.0725489 -5 0 -6 
7138 5 0.168792 0.126188 0.0440574 3 0 0 
6554 6 0.213294 0.115589 0.0514422 -7 4 -1 
7644 5 0.476634 0.0946779 0.036639 -3 -2 0 
8357 6 0.488252 0.151143 0.00972127 -1 -1 1 
6878 5 0.931738 0.129436 0.0477782 1 5 -1 
6886 5 0.0638909 0.218972 0.0210527 0 1 5 
8020 5 0.448171 0.172951 0.0029276 -3 -2 0 
8162 6 0.236626 0.261834 0.0263288 -1 2 1 
5204 6 0.425409 0.215447 0.0369206 3 0 0 
8704 5 0.44638 0.250079 0.0114865 5 3 -2 
6418 5 0.251441 0.264354 0.0663116 1 -1 -2 
8434 6 0.983 0.30826 0.0644434 -5 7 1 
7813 5 0.0689606 0.288996 0.040047 3 2 -3 
8194 5 0.0865821 0.272353 0.054886 2 -3 -1 
7028 6 0.15768 0.315334 0.0463431 -7 -2 0 
7989 5 0.311704 0.31421 0.0498849 0 -1 -1 
8107 5 0.310374 0.307875 0.032437 2 4 1 
5039 6 0.732109 0.324701 0.0168449 -3 -6 0 
8290 6 0.432956 0.368273 0.0373787 1 -3 -5 
6799 5 0.963571 0.3592 0.0329591 -2 -1 6 
7720 5 0.803627 0.340304 0.0439014 -5 2 -6 
6306 6 0.842543 0.383538 0.00991077 -3 -2 2 
6326 6 0.104929 0.408039 0.0505601 -4 1 0 
5154 5 0.380313 0.426888 0.0339562 3 -1 4 
6906 5 0.564966 0.396133 0.0111025 1 3 -1 
7083 5 0.105213 0.404869 0.0121256 -1 -2 3 
8187 6 0.19005 0.437509 0.983687 3 0 5 
5973 6 0.481662 0.435789 0.00636323 2 4 0 
7097 6 0.780494 0.418829 0.00888344 -3 -4 0 
7467 6 0.117054 0.43259 0.0152495 1 3 2 
7192 5 0.211248 0.459711 0.0720794 -1 -2 0 
6270 6 0.691158 0.442699 0.0297124 -3 -2 -3 
8518 6 0.899158 0.431785 0.0689081 -3 -3 1 
8047 6 0.801507 0.494404 0.054974 -2 3 0 
8882 5 0.203847 0.488718 0.0399451 -1 2 1 
8691 6 0.571791 0.448702 0.0410448 1 -4 -1 
5742 5 0.28206 0.543855 0.0595745 -1 2 -1 
5572 5 0.0114641 0.535589 0.0199421 7 2 3 
6706 6 0.978901 0.564014 0.0442628 -1 -3 -1 
5994 5 0.967265 0.526374 0.0704142 5 10 1 
5532 5 0.706141 0.603304 0.0386236 1 3 -2 
6956 6 0.962864 0.570178 0.0602842 3 3 1 
7914 5 0.492675 0.577081 0.0764407 2 6 -1 
8756 6 0.725182 0.597128 0.0184516 1 0 -2 
7225 5 0.962073 0.603088 0.997515 5 2 -1 
5539 5 0.832117 0.663345 0.0258993 -3 -4 3 
8618 6 0.853911 0.673043 0.992821 2 -3 -1 
7686 6 0.889093 0.656351 0.0579032 5 -6 -1 
7551 6 0.553096 0.647288 0.04182 0 -3 2 
7933 5 0.586474 0.683312 0.0327977 1 -1 -3 
5153 6 0.128723 0.695209 0.0629492 -1 -4 1 
7913 6 0.21989 0.696272 0.0913618 -1 -1 -2 
7938 6 0.673651 0.735932 0.0150297 3 -5 -3 
5248 6 0.532259 0.740989 0.0203336 0 3 3 
8353 5 0.621976 0.728094 0.0483867 -2 1 1 
6070 5 0.556714 0.76781 0.0799201 0 -4 0 
8372 6 0.233539 0.822306 0.0373872 5 -3 -4 
6570 6 0.573063 0.790941 0.0209112 4 5 2 
8208 6 0.693142 0.804013 0.000303134 -4 -2 -1 
6197 6 0.957783 0.787143 0.0603552 2 1 4 
6695 6 0.562369 0.806124 0.0706505 2 2 0 
6879 6 0.845258 0.840427 0.0229051 2 -1 0 
6102 6 0.991476 0.876004 0.0174053 0 -2 -3 
6265 6 0.379545 0.858416 0.0405731 0 -3 -3 
8759 5 0.539654 0.890195 0.0259905 0 2 -1 
7541 6 0.676906 0.86591 0.0384829 -3 -3 0 
6983 6 0.392774 0.885886 0.0756855 -2 -1 -4 
5266 6 0.689262 0.944496 0.0563505 -1 -2 -1 
6659 6 0.782455 0.960828 0.018601 -5 -1 3 
8411 6 0.0744599 1.00218 0.0290153 4 5 4 
6935 6 0.141958 0.0255688 0.0522735 -7 -2 3 
7095 5 0.424365 0.00776272 0.0603218 2 -2 5 
6665 6 0.558076 0.0384605 0.0593832 1 -2 3 
6437 6 0.663122 0.0128294 0.0237272 2 0 3 
5382 6 0.145629 0.0047197 0.0545006 2 4 1 
7915 5 0.432189 0.0226354 0.0990878 2 3 4 
7704 6 0.590964 0.0371276 0.0582021 -4 0 1 
5956 5 0.996652 0.0416647 0.0651269 -7 0 -1 
8199 6 0.34853 0.0235098 0.0630206 3 2 3 
5423 6 0.445157 0.0934829 0.0515509 2 -3 1 
7166 5 0.989859 0.055873 0.0166197 2 4 2 
6275 6 0.848915 0.0618761 0.0341347 -3 -4 2 
6698 6 0.62361 0.107254 0.101112 -2 -3 7 
6662 5 0.817539 0.126001 0.0411219 -1 -5 -3 
5817 6 0.426431 0.103101 0.0627405 0 0 -4 
8403 5 0.136417 0.139875 0.0940634 3 -1 3 
7315 6 0.646612 0.167553 0.0703345 -3 -2 -2 
5247 6 0.797093 0.127925 0.046599 -5 -3 -3 
8145 6 0.20428 0.19857 0.0590768 -3 3 3 
6041 5 0.279955 0.253448 0.0505958 4 1 -5 
5015 5 0.420782 0.246403 0.0373169 5 -2 0 
8070 5 0.712833 0.265862 0.0598388 -3 2 0 
8498 5 0.882185 0.277581 0.0404049 -6 0 8 
7320 5 0.967104 0.266882 0.103603 8 0 2 
5306 5 0.994715 0.280629 0.0691847 0 -2 -3 
7491 6 0.182077 0.328492 0.0822102 -1 0 -1 
6938 5 0.795162 0.296838 0.0547488 3 -3 -4 
8273 6 0.524502 0.352665 0.067525 4 3 -1 
5249 5 0.720624 0.301961 0.0405472 -1 -1 -2 
5065 6 0.968459 0.341665 0.100174 0 1 1 
7179 6 0.237221 0.343282 0.00589821 -3 -2 -4 
7711 6 0.307089 0.38945 0.0591803 4 -2 -2 
7573 6 0.892815 0.462286 0.0577624 -1 3 -2 
8007 5 0.935941 0.454212 0.0665386 -2 3 -1 
5502 5 0.10038 0.437207 0.044906 0 -5 3 
8104 5 0.56601 0.433336 0.0416621 -3 -3 4 
5977 6 0.320933 0.485643 0.0735604 2 2 2 
8410 6 0.880721 0.476671 0.0574066 3 4 -3 
6172 6 0.828433 0.530177 0.0345567 2 -1 3 
8461 5 0.194553 0.545042 0.0780826 -4 -1 0 
6188 5 0.0621191 0.610418 0.0845522 -2 3 4 
8457 5 0.315715 0.587851 0.086894 0 -2 4 
6940 5 0.429514 0.611523 0.0472494 2 3 -2 
7167 6 0.483048 0.594546 0.0563252 -5 2 -2 
7891 5 0.586681 0.582855 0.0652971 0 -1 3 
5730 6 0.700782 0.568013 0.0527989 -6 2 -1 
8610 5 0.0155629 0.614612 0.0882536 3 -2 2 
7175 6 0.204434 0.619939 0.0478101 -1 -2 0 
8628 5 0.0378775 0.662644 0.0388638 -1 -4 2 
5841 5 0.107053 0.649856 0.0395701 4 4 0 
5488 6 0.333348 0.623835 0.0384519 0 -3 2 
6705 6 0.597653 0.643055 0.0841255 -2 0 1 
8846 6 0.801197 0.71208 0.0971636 -4 5 0 
6875 6 0.812459 0.662797 0.00858124 5 -2 2 
7677 5 0.948168 0.691203 0.0444582 1 0 4 
7535 6 0.547317 0.699235 0.0514786 -4 -1 1 
5907 5 0.63319 0.685922 0.0950457 0 -1 0 
8994 6 0.905271 0.719345 0.0796603 -5 2 -1 
6412 6 0.0680789 0.75618 0.0739865 0 -6 -4 
5477 5 0.708816 0.716436 0.0530947 0 0 1 
6969 5 0.802081 0.728393 0.0976913 2 6 1 
8484 6 0.0360826 0.721671 0.0524362 5 -3 1 
6339 6 0.31566 0.79169 0.0640205 2 -5 2 
5097 6 0.622748 0.800158 0.0878272 1 1 -4 
8450 6 0.809229 0.769137 0.0425977 2 1 -3 
7699 5 0.268328 0.764697 0.0352694 -2 3 1 
5927 6 0.970392 0.777038 0.0520223 3 -5 4 
8934 6 0.265628 0.963173 0.0628376 4 -5 3 
7261 5 0.0698776 0.919641 0.0638249 -2 -1 -2 
8608 6 0.154596 0.944252 0.0488905 6 -5 0 
7423 6 0.744481 0.99232 0.0609545 1 -1 -1 
5425 5 0.437444 0.990629 0.114008 -1 -7 1 
5251 6 0.93493 0.964339 0.0636885 0 3 1 
7126 6 0.0481718 0.0394831 0.0648304 4 -1 -1 
6776 6 0.915667 0.00141739 0.075547 1 1 1 
8739 6 0.933105 0.00349427 0.0517701 -1 5 0 
7038 6 0.935368 0.0456142 0.0512476 -3 -5 -3 
5592 5 0.166238 0.0504336 0.0807518 -2 5 3 
6714 5 0.71795 0.0895594 0.0896048 2 0 -5 
7059 6 0.31662 0.0187707 0.0889306 1 -2 -2 
5123 5 0.679619 0.0547196 0.079901 2 0 0 
5360 5 0.593643 0.141624 0.109106 1 7 -2 
5087 5 0.968498 0.121159 0.05923 0 -2 1 
6986 6 0.512674 0.151557 0.0546006 -2 2 3 
7219 5 0.472299 0.183177 0.0720214 4 -1 0 
5233 5 0.317204 0.186218 0.0464017 0 4 3 
8159 5 0.496846 0.241248 0.0686845 -1 -1 -4 
5766 5 0.621608 0.221764 0.0746932 -1 -6 0 
8709 6 0.653426 0.216088 0.0677354 -4 1 -2 
5456 6 0.479523 0.246079 0.0942429 2 -1 4 
6788 6 0.736679 0.212087 0.101561 -1 2 -1 
6801 6 0.0357636 0.281411 0.0472576 7 -4 0 
6199 5 0.641709 0.269953 0.102086 -2 0 0 
6581 6 0.122502 0.292523 0.0725897 1 0 3 
8477 5 0.568999 0.28045 0.0867367 4 -3 1 
6061 6 0.738536 0.279505 0.067339 -2 -3 -2 
6482 6 0.031965 0.360386 0.0601064 5 -4 3 
8492 5 0.225289 0.406012 0.116435 3 5 0 
6436 5 -0.00347264 0.425544 0.0741759 -3 3 5 
7431 5 0.48867 0.374508 0.0657024 -2 0 5 
5334 6 0.346473 0.394761 0.0684974 -2 -2 0 
6718 6 0.85558 0.398992 0.0917703 0 2 -4 
8223 6 0.868644 0.404216 0.113623 3 1 -1 
8247 5 0.447113 0.494237 0.114851 3 -3 -2 
7350 5 0.539156 0.475848 0.0700313 3 4 3 
6751 6 0.805532 0.396449 0.0835181 -4 -2 2 
7763 6 0.0571411 0.489702 0.0787799 -4 2 3 
5513 6 0.114363 0.502235 0.109138 -3 1 -1 
6685 6 0.575847 0.467732 0.0989321 1 -3 0 
5946 5 0.638755 0.469292 0.0865534 6 -1 -1 
8841 6 0.00231941 0.475477 0.0410796 1 2 2 
6691 5 0.703859 0.514479 0.0329108 3 2 -1 
7023 5 0.840129 0.488261 0.111057 2 1 1 
8176 5 0.861719 0.479367 0.0755233 0 -4 -1 
7882 6 0.902948 0.524879 0.121185 0 10 4 
6111 6 0.995126 0.477939 0.0657746 -1 -1 -2 
7524 5 0.494488 0.54057 0.113236 -2 -4 -3 
5738 6 0.0261135 0.524592 0.0819714 2 1 -1 
5667 6 0.104301 0.545741 0.094946 6 4 1 
6885 5 0.784594 0.53099 0.0851994 -5 -2 -2 
8760 5 0.820831 0.567575 0.0886345 3 -2 -2 
8401 6 0.969979 0.609459 0.0618948 0 4 3 
7485 5 0.732181 0.625866 0.0750701 -3 -5 -2 
5022 6 0.70076 0.657822 0.0788648 -5 -5 -3 
7316 6 0.127436 0.679728 0.0982805 2 -1 0 
7995 5 0.419778 0.70429 0.066926 -4 2 1 
5988 6 0.915301 0.71398 0.102849 -1 1 3 
5617 6 0.0213053 0.779927 0.121549 0 0 3 
8693 6 0.32578 0.738016 0.0142704 6 2 -1 
6227 6 0.738279 0.733369 0.0778669 -1 2 3 
7794 6 0.397764 0.771487 0.0648 2 -4 3 
6085 5 0.17151 0.807956 0.0918583 -4 1 0 
8670 5 0.573071 0.817905 0.114541 -4 4 -2 
5657 5 0.349201 0.821395 0.0987097 2 2 0 
8478 6 0.656628 0.87776 0.0954301 2 0 2 
5612 6 0.773687 0.894608 0.0888951 -5 1 -3 
6248 6 0.759607 0.930339 0.0786932 1 -2 0 
8244 6 0.109936 0.895682 0.0617108 0 -1 0 
8600 6 0.592726 0.947308 0.0665399 -1 -1 4 
7154 5 0.0597775 0.914332 0.0689825 3 1 -2 
7932 5 0.790995 0.906248 0.0572696 -4 -4 1 
5296 5 0.667149 0.99027 0.086102 -1 3 -5 
7326 5 0.920769 0.935366 0.0942336 3 -6 2 
7464 6 0.720978 0.973531 0.0965576 -1 1 -1 
6542 5 0.143364 0.0548226 0.0844303 0 1 2 
8339 5 0.243881 0.0129211 0.108843 -2 1 1 
8008 6 0.750832 0.0457004 0.114955 4 -1 -2 
8998 5 0.340303 0.0740576 0.0683421 -5 2 -1 
6821 5 0.8267 0.0507062 0.1387 1 1 -2 
6716 5 0.782462 0.0871709 0.142334 1 -6 -1 
8675 6 0.747309 0.0997546 0.115458 0 -3 6 
6455 6 0.992759 0.153638 0.161569 -1 -2 2 
5822 5 0.0684388 0.101262 0.0823517 -1 1 -1 
6921 5 0.42604 0.117059 0.153397 -3 -1 0 
5403 5 0.981851 0.19839 0.069701 2 1 -2 
7373 6 0.620311 0.187753 0.105513 1 2 3 
6259 6 0.689693 0.174415 0.145227 -4 3 6 
8922 5 0.0651894 0.191789 0.0926447 -5 0 -3 
5732 6 0.391113 0.193779 0.0965778 -3 3 -2 
6147 6 0.947954 0.219412 0.127321 4 4 -1 
8593 6 0.237143 0.226043 0.0885308 7 0 6 
6562 6 0.377405 0.234399 0.137476 2 -1 3 
6224 6 0.669383 0.214154 0.116632 -3 0 2 
6689 5 0.711993 0.212279 0.125339 -3 4 2 
6245 6 0.876637 0.240224 0.154699 -4 -1 -8 
7488 6 0.21912 0.213054 0.0962939 -2 -1 3 
6499 6 0.273864 0.27412 0.060484 3 2 -3 
6311 5 0.49314 0.260477 0.123036 -2 -2 -5 
8098 6 0.640263 0.280233 0.10793 -1 2 -2 
7814 5 0.708628 0.319817 0.0884904 -3 2 -3 
5068 5 0.528419 0.321883 0.112851 0 -2 -2 
5948 5 0.474584 0.343064 0.0746331 1 1 1 
5815 6 0.892197 0.338908 0.142375 1 6 0 
6949 5 0.0371093 0.360138 0.0698253 -2 -1 -1 
8622 6 0.209204 0.396842 0.0808588 -3 -2 0 
8852 6 0.438366 0.371576 0.111291 -2 -10 -3 
7927 5 0.322488 0.412614 0.0922325 -3 -1 -5 
7940 5 0.759429 0.347986 0.0776435 5 1 1 
7034 5 0.282938 0.426433 0.0918104 -3 0 -3 
8458 6 0.925598 0.422302 0.113262 2 5 5 
8921 6 0.180406 0.462453 0.121035 2 1 -1 
5136 5 0.596914 0.505139 0.0739376 -1 1 0 
7172 5 0.729555 0.435884 0.108423 5 -4 3 
5799 6 0.757067 0.460774 0.113724 -4 1 -3 
8832 5 0.816131 0.45015 0.0975874 6 2 -1 
8217 5 0.345176 0.499719 0.14518 1 1 0 
8784 5 0.257936 0.548237 0.0939234 -3 -2 -1 
5184 6 0.506469 0.516699 0.091657 -1 -1 0 
8970 6 0.66924 0.520184 0.0801025 -2 1 -2 
7552 6 0.760322 0.560621 0.106804 2 1 3 
5871 6 0.8454 0.561337 0.118514 2 0 0 
5923 6 0.552088 0.592252 0.0986344 -1 -3 1 
6474 5 0.776478 0.590627 0.124718 -5 -4 -4 
5096 5 0.874821 0.656029 0.107524 4 3 4 
7956 6 0.0644835 0.63616 0.0935633 -2 3 4 
6310 6 0.467395 0.6277 0.0786519 0 6 1 
6992 5 0.431031 0.680185 0.121903 0 -3 -4 
7717 6 0.470455 0.701346 0.119315 4 -5 3 
6401 6 0.396394 0.75722 0.109816 -4 1 -3 
8748 6 0.0397826 0.726201 0.118523 0 0 2 
5185 6 0.421061 0.79157 0.0820758 -1 -1 -1 
5436 6 0.255298 0.824719 0.0836567 0 4 1 
6189 6 0.0740342 0.844512 0.0690261 2 0 1 
6696 5 0.119626 0.852238 0.14183 0 3 2 
7510 5 0.833752 0.884103 0.074923 -1 2 5 
5239 5 0.30681 0.876192 0.0908736 -3 -1 2 
5812 5 0.754005 0.857942 0.136054 0 -5 -3 
8876 5 0.278742 0.888419 0.129631 4 -3 -3 
7651 6 0.44005 0.862833 0.0812546 1 -4 2 
8198 6 0.672997 0.923335 0.140823 -2 -1 1 
5268 6 0.802701 0.883699 0.0989063 3 -1 -7 
6750 6 0.0390112 0.948225 0.093178 1 -2 -4 
7801 6 0.847823 0.878575 0.121807 -12 -6 -3 
8479 5 0.898561 0.879557 0.122695 -1 -3 -1 
8480 6 0.0830421 0.904247 0.0760581 -7 2 0 
8279 6 0.41641 0.975623 0.106285 -6 2 -4 
5356 5 0.858406 0.963225 0.144122 -2 2 -5 
5074 6 0.87465 0.935214 0.0866762 -4 2 0 
7246 5 0.881296 0.973529 0.110155 -1 -3 1 
8130 5 0.0171159 0.986657 0.0823633 3 -1 3 
6818 5 0.240308 0.985812 0.118467 -2 -1 3 
6780 6 0.348256 0.952092 0.105783 -5 -2 -4 
5280 6 0.528679 0.958454 0.0687804 6 1 -2 
6680 5 0.774765 0.973326 0.136019 0 4 6 
5984 6 0.159053 0.99558 0.0973038 -2 -1 0 
5078 5 0.819284 0.985472 0.071299 -1 3 1 
8329 6 0.210102 0.967235 0.101727 2 -1 2 
6072 5 0.779284 0.0238191 0.103927 -2 0 -2 
5649 6 0.114365 0.0688509 0.0964213 2 -3 -1 
6329 5 0.559465 0.0683651 0.0998551 1 -3 2 
5466 6 0.33208 0.115631 0.104854 6 -2 -1 
6171 6 0.332271 0.0469644 0.112902 0 0 -2 
6761 6 0.282973 0.0433998 0.117308 1 -4 2 
7005 5 0.660858 0.11963 0.0959602 0 -4 1 
8879 6 0.277119 0.130271 0.108952 -1 -2 -3 
6438 6 0.44003 0.133528 0.114762 -2 0 0 
7941 5 0.713512 0.13955 0.157392 2 2 4 
6352 5 0.127762 0.175675 0.0940613 0 -1 -1 
6004 5 0.0768179 0.162258 0.120998 1 1 0 
8656 5 0.918559 0.179001 0.153977 2 3 -1 
6044 6 0.137379 0.212197 0.130863 -3 -2 2 
5430 6 0.820823 0.181429 0.0925844 0 3 -1 
5252 6 0.790266 0.220734 0.115908 -6 2 -1 
8930 6 0.091037 0.319765 0.136648 -3 3 1 
5272 5 0.639167 0.303413 0.100994 -2 1 -1 
8448 5 0.733585 0.279489 0.130024 2 0 -1 
6257 6 0.0933421 0.355098 0.159131 5 -1 6 
6951 6 0.47314 0.37308 0.106649 2 4 2 
6173 6 0.209538 0.418911 0.136802 5 5 3 
7199 6 0.408043 0.375275 0.135545 2 1 3 
5040 6 0.946546 0.398652 0.144307 -3 -2 0 
7169 5 0.624532 0.448507 0.134198 -5 0 -3 
7951 6 0.522408 0.46863 0.152775 0 0 2 
5183 6 0.520906 0.455053 0.133929 -1 -1 3 
6606 6 0.150976 0.433047 0.149499 2 4 -2 
7877 6 0.530776 0.466505 0.142296 0 -3 0 
7498 6 0.0127201 0.531125 0.134694 -6 -3 6 
5772 6 0.0700388 0.488337 0.130197 2 5 4 
7854 5 0.173575 0.561223 0.0977567 2 3 -3 
6077 5 0.525275 0.524311 0.108493 -2 2 -6 
7404 5 0.594559 0.522643 0.108671 6 4 3 
5856 5 0.130863 0.590025 0.159116 3 -2 1 
6182 5 0.864829 0.53895 0.145406 2 1 6 
7601 5 0.896346 0.533686 0.129298 -2 0 1 
7254 5 0.200185 0.602623 0.12003 -3 -2 0 
6141 5 0.330311 0.622838 0.142031 1 -2 -2 
6612 6 0.366183 0.569939 0.101994 -9 3 -5 
6413 6 0.418946 0.601521 0.118016 -2 0 0 
5021 5 0.49772 0.597903 0.137207 0 2 0 
8516 6 0.898575 0.594904 0.0921129 0 3 -1 
5941 5 0.327819 0.661686 0.124773 3 -1 0 
6567 5 0.713375 0.636182 0.138696 2 -3 1 
6287 6 0.0712082 0.667765 0.123558 -3 0 -3 
8744 5 0.43334 0.688386 0.111651 0 -4 -3 
8341 5 0.96762 0.677768 0.132338 0 3 2 
6708 5 0.362553 0.681467 0.130111 2 3 4 
7420 5 0.0762762 0.73992 0.152495 -2 -5 1 
5627 5 0.208425 0.728617 0.139783 -2 -3 5 
5083 5 0.474982 0.72819 0.136907 1 -7 1 
5433 5 0.597022 0.792616 0.119569 -2 0 2 
5367 5 0.25349 0.784758 0.132972 -2 -1 0 
7783 6 0.915552 0.781164 0.135454 7 -1 -3 
5665 5 0.159461 0.812014 0.118839 3 -4 1 
6868 6 0.438896 0.804727 0.101642 0 -1 0 
7934 6 0.6334 0.805601 0.138051 -5 -2 -5 
6391 5 0.949548 0.760093 0.133954 1 5 1 
5673 5 0.294046 0.827211 0.126243 4 -7 -1 
6002 5 0.677673 0.847202 0.121722 1 -2 3 
8140 6 0.694046 0.816741 0.117883 -1 1 1 
8296 6 0.90077 0.854425 0.0863327 -3 -1 -3 
8466 5 0.899041 0.78414 0.113419 0 -5 1 
5629 5 0.0548536 0.886232 0.151644 -3 -7 -1 
6753 6 0.379234 0.882794 0.138495 -2 -4 10 
7108 5 0.664966 0.854515 0.113668 2 -2 0 
8381 5 0.403984 0.939357 0.139527 -1 2 6 
7063 6 0.290298 0.924516 0.102084 -1 -2 3 
6400 6 0.535336 0.895318 0.123503 5 -3 2 
5362 5 0.469743 0.912255 0.140297 0 7 0 
5107 5 0.326493 0.989396 0.110057 4 -5 -3 
5713 5 0.385741 0.973081 0.0976411 -1 4 1 
6081 6 0.204957 0.99066 0.114237 6 -2 0 
5770 5 0.922625 0.00362022 0.165199 -3 1 0 
7982 5 0.0303721 0.0573989 0.126774 1 1 -4 
5279 5 0.526868 0.015465 0.142113 1 -1 4 
7588 6 0.516011 0.0654028 0.153874 -2 1 0 
7528 5 0.827299 0.0657245 0.152266 -1 4 2 
6711 6 0.824212 0.0635128 0.162891 2 -3 6 
7623 5 0.43726 0.0879737 0.173461 -1 0 -4 
8827 5 0.556932 0.0707152 0.120723 2 6 3 
8914 5 0.596468 0.0913372 0.165372 2 -2 4 
6162 5 0.702408 0.097424 0.111491 -1 0 3 
8885 5 0.235376 0.0942636 0.116277 -3 7 1 
6140 6 0.288987 0.0957137 0.15137 2 -1 5 
5646 5 0.294662 0.0899813 0.151566 -4 -2 2 
5921 5 0.745208 0.110749 0.149468 0 -1 2 
7327 6 0.898869 0.137857 0.116299 -4 1 -1 
8738 6 0.0990298 0.161263 0.157624 -2 2 3 
6443 6 0.179307 0.173929 0.130273 0 -6 1 
8385 6 0.303403 0.17098 0.135679 0 1 3 
8166 5 0.747381 0.187835 0.164833 -1 6 -1 
8667 6 0.0500641 0.181133 0.115403 3 -4 4 
7253 5 0.726971 0.149415 0.168061 2 -4 -3 
7128 5 0.136463 0.231533 0.16094 2 1 -1 
6646 6 0.337414 0.285715 0.156402 -1 3 3 
7298 6 0.17052 0.3222 0.132199 0 1 -3 
8632 5 0.320293 0.256274 0.16528 -1 1 -1 
6877 6 0.069791 0.32914 0.189092 -2 0 2 
6449 6 0.598606 0.29825 0.11471 3 5 -5 
8794 5 0.964731 0.299433 0.171284 -3 2 -2 
8750 5 0.469743 0.333917 0.159162 0 6 -1 
8781 6 0.817659 0.327827 0.155217 -1 -2 -3 
6728 5 0.146348 0.340502 0.144722 3 7 4 
5129 6 0.665395 0.370952 0.171468 3 3 4 
8066 5 0.82546 0.332087 0.156416 2 -6 0 
7893 6 0.223723 0.421131 0.151187 4 2 -1 
5794 6 0.373155 0.396694 0.179439 1 2 4 
6719 5 0.469237 0.383041 0.12531 1 -1 -7 
8390 5 0.840201 0.426404 0.111879 2 3 2 
5231 5 0.171339 0.436813 0.118893 -2 1 -3 
8722 5 0.452829 0.467202 0.146756 3 -1 1 
7384 5 0.578966 0.495804 0.141841 -2 1 1 
6509 6 0.166979 0.5368 0.134318 -3 5 3 
8136 6 0.175401 0.528937 0.169121 -1 -3 5 
7228 5 0.227383 0.494091 0.143425 -3 1 -4 
8782 6 0.939818 0.532878 0.142491 -3 3 -3 
8724 5 0.834539 0.52356 0.123325 -1 -3 3 
5559 6 0.840854 0.524246 0.128159 0 -2 -2 
5879 6 0.422651 0.601627 0.202058 -2 -4 3 
8213 6 0.459758 0.534439 0.141006 -5 -2 -1 
5263 6 0.853666 0.58985 0.0971659 0 -3 0 
8996 5 0.794427 0.602956 0.166299 1 3 -1 
5322 6 0.246047 0.641243 0.0978055 2 2 1 
7837 5 0.309728 0.651946 0.140587 3 1 0 
6870 5 0.495306 0.66552 0.165869 4 -4 0 
7634 6 0.567408 0.667767 0.16976 -1 1 4 
6252 5 0.296903 0.669016 0.123123 1 2 -5 
5049 6 0.0794949 0.725361 0.161823 2 0 3 
8621 5 0.38673 0.686937 0.168325 -1 -1 4 
5935 6 0.885824 0.685952 0.165014 3 6 0 
8149 6 0.967163 0.722905 0.124387 -1 -2 -3 
5064 6 0.137681 0.745287 0.164232 0 3 -2 
8426 6 0.120212 0.698822 0.09292 1 0 0 
5547 5 0.329784 0.703501 0.151221 -6 2 -1 
6916 5 0.374637 0.716558 0.147705 -1 4 -1 
7897 5 0.156647 0.75723 0.108884 -3 2 2 
5747 6 0.827699 0.718053 0.122856 -2 1 0 
5043 5 0.0509201 0.783799 0.151723 7 -1 0 
6968 6 0.459789 0.768752 0.132581 -1 -1 -1 
5069 5 0.245503 0.788683 0.158816 -1 -3 2 
5395 5 0.655977 0.805605 0.158483 4 3 1 
8654 5 0.0908655 0.824398 0.164276 -5 0 -1 
5659 6 0.397067 0.802695 0.156484 1 -2 2 
5945 6 0.399789 0.775038 0.175005 3 -1 3 
6233 6 0.529424 0.810917 0.166033 1 -1 -1 
5024 6 0.497493 0.779616 0.175618 0 2 -2 
5911 5 0.539488 0.801193 0.166817 -1 1 5 
6676 5 0.855774 0.815643 0.144059 -1 2 3 
8730 5 0.573242 0.832496 0.141174 -3 -1 0 
6334 5 0.633169 0.794738 0.165548 -1 4 8 
5312 5 0.855471 0.816558 0.173071 2 -4 1 
5498 6 0.930084 0.803531 0.141105 0 -3 2 
7832 5 0.285907 0.893012 0.167276 2 5 1 
7735 6 0.0664945 0.892009 0.17424 -1 1 3 
7184 5 0.412293 0.874579 0.146625 -2 0 3 
7288 6 0.418742 0.854128 0.152455 -3 2 2 
8446 6 0.664411 0.903339 0.150121 -2 4 -2 
6475 6 0.00252843 0.916648 0.144185 -1 -2 -3 
5291 5 0.566694 0.934301 0.173106 -1 5 -3 
7259 6 0.716258 0.891292 0.140475 -4 0 0 
6228 5 0.12154 0.962583 0.155308 -3 1 3 
8234 5 0.83317 0.988004 0.168802 -1 -2 -3 
7501 6 0.401803 -0.00304076 0.142987 4 5 -2 
7314 5 0.728645 0.0539576 0.189861 -4 2 -8 
7507 6 0.788058 0.00548668 0.178964 -3 3 5 
7463 6 0.812477 0.0198607 0.217488 -2 -3 -1 
5412 6 0.931927 0.0250536 0.147075 -6 -6 -5 
6540 5 0.401623 0.0657727 0.171705 -3 2 1 
7378 5 0.776749 0.040173 0.146916 -7 -1 -1 
6411 5 0.912339 0.0449644 0.138321 -2 1 -2 
5784 5 0.422115 0.114594 0.195383 0 1 2 
8538 5 0.00630342 0.143412 0.1874 -1 -2 0 
6927 5 0.590119 0.097068 0.178423 -3 0 1 
7749 6 0.208799 0.126963 0.187502 1 0 4 
8474 5 0.499773 0.122571 0.175394 -1 -1 3 
7302 6 0.810037 0.127524 0.200145 -3 -3 -3 
6836 6 0.198657 0.168666 0.20111 -4 2 1 
5848 5 0.383052 0.183095 0.171693 1 -2 0 
8476 6 0.876536 0.136336 0.192445 -1 1 4 
7215 5 0.00912328 0.151012 0.186981 1 -3 1 
8417 5 0.647124 0.178545 0.174082 -2 -2 2 
8822 5 0.741055 0.1422 0.125324 4 -5 -2 
7226 5 0.787261 0.12692 0.162435 -3 4 2 
7495 5 0.749753 0.194347 0.132665 6 -1 1 
6453 5 0.149007 0.176343 0.20457 -2 4 -1 
5164 6 0.17849 0.166779 0.198977 3 2 3 
7765 5 0.177868 0.239774 0.172994 -4 6 1 
6525 5 0.134649 0.263319 0.201068 0 -1 -3 
6587 6 0.0890289 0.235197 0.176818 -1 0 -5 
5905 6 0.745525 0.267457 0.149345 -1 -3 3 
6001 5 0.30551 0.310723 0.172163 4 -1 0 
6873 5 0.829201 0.313141 0.158178 2 0 -3 
5562 6 0.850433 0.318086 0.154133 -1 -2 4 
7339 6 0.936656 0.331281 0.18225 1 0 -1 
8942 5 0.714839 0.308069 0.176008 1 2 1 
6733 6 0.850424 0.362589 0.160624 -2 1 2 
5645 5 0.564876 0.342697 0.166733 0 4 1 
7609 6 0.309007 0.441383 0.211652 -1 2 -3 
7849 5 0.539972 0.456602 0.172201 3 3 1 
5634 6 0.901407 0.443864 0.1856 -6 2 2 
6703 5 0.987127 0.419839 0.176633 -2 -5 2 
5463 6 0.669202 0.438284 0.15761 3 0 0 
5188 5 0.819404 0.437469 0.159793 2 0 0 
6712 5 0.542799 0.475914 0.193419 -1 -4 -1 
6035 5 0.836139 0.454706 0.168779 -4 -1 1 
6478 5 0.553636 0.484431 0.178429 3 5 5 
5464 5 0.673835 0.474338 0.164949 0 -1 -1 
7165 5 0.322757 0.513226 0.220178 -1 1 -5 
8649 5 0.313822 0.5683 0.165916 -5 -5 5 
5954 5 0.329607 0.54589 0.147965 -3 1 -2 
8614 5 0.666499 0.596142 0.158903 -2 0 4 
7397 6 0.945171 0.587973 0.174149 -2 1 -2 
5826 6 0.848865 0.627752 0.16077 0 -2 0 
8561 5 0.304638 0.660011 0.174336 3 -4 0 
5121 5 0.60128 0.629525 0.184174 3 1 3 
8293 5 0.776892 0.665633 0.162401 -2 3 -1 
8636 5 0.134813 0.74147 0.182043 6 2 4 
5546 5 0.306468 0.750559 0.134771 3 -1 3 
6394 5 0.591122 0.750243 0.194142 5 1 3 
7445 6 0.634514 0.706935 0.176569 -2 0 0 
6809 6 0.409053 0.754539 0.14117 -4 5 2 
7858 5 0.326855 0.82108 0.174544 4 -4 -2 
8824 6 0.601245 0.756376 0.174151 0 -1 -3 
8127 6 0.255578 0.850316 0.197142 3 -4 -1 
8648 6 0.351446 0.837528 0.204032 2 0 -1 
6664 6 0.679953 0.828174 0.176691 2 3 1 
5520 6 0.429707 0.858409 0.218454 2 -1 0 
6947 5 0.0119807 0.900305 0.139564 2 -3 0 
5888 5 0.358529 0.902115 0.21653 1 1 1 
6235 6 0.63237 0.898458 0.147386 -1 -4 -1 
6732 6 0.0525239 0.909629 0.180723 -2 -5 3 
7908 6 0.480566 0.939157 0.175449 -1 -2 -2 
8391 5 0.889452 0.903376 0.167251 -4 -1 1 
7640 5 0.536194 0.974665 0.178094 0 3 -1 
8631 5 0.0949952 0.99435 0.172486 2 2 -2 
5893 5 0.61624 0.974725 0.164594 5 0 -1 
8867 6 0.70733 0.0121715 0.185808 1 5 -5 
7521 6 0.98443 0.984668 0.162749 -7 -4 -6 
5551 5 0.530358 0.0349446 0.175881 3 4 -2 
8382 6 0.761938 0.0152974 0.223827 -4 1 -2 
8568 6 0.322514 0.0612396 0.194806 -1 -1 -3 
6555 6 0.572598 0.041924 0.202765 -3 -3 -1 
6153 6 0.271173 0.0450685 0.177727 1 0 3 
8861 6 0.615585 0.0482132 0.165554 6 -4 -1 
7450 6 0.713243 0.0825231 0.192531 -4 -1 -1 
6808 5 0.154148 0.109623 0.193267 0 0 -1 
5922 5 0.396558 0.0773974 0.183794 -3 1 -5 
6954 6 0.160861 0.0842931 0.193338 -1 -4 1 
5314 5 0.434011 0.136808 0.167625 -4 -3 -3 
5889 6 0.634647 0.118333 0.224721 -1 0 0 
6790 5 0.318583 0.177982 0.187922 -3 1 -6 
7010 6 0.38156 0.173332 0.210957 0 6 -1 
6229 6 0.476332 0.164645 0.174699 5 7 4 
7793 6 0.56115 0.144904 0.171668 -2 0 -3 
7585 6 0.885336 0.165942 0.207254 -3 5 -3 
7943 6 0.346344 0.210912 0.213486 4 1 0 
7703 5 0.339508 0.249594 0.215501 6 0 -2 
8435 6 0.372546 0.206995 0.20347 3 1 1 
7454 6 0.390488 0.245492 0.19685 0 0 2 
8940 6 0.849665 0.234069 0.202546 -3 -2 2 
6052 6 0.0784259 0.198385 0.183068 -4 -1 -4 
8668 5 0.167456 0.249543 0.176774 -1 2 1 
6835 6 0.770597 0.250448 0.200374 -1 -1 2 
8167 5 0.253781 0.273251 0.20215 -2 0 -4 
7759 6 0.634575 0.247329 0.196389 2 0 3 
6402 5 0.903339 0.265416 0.206937 1 3 0 
5219 6 0.345836 0.311394 0.195016 2 -3 -1 
6658 5 0.0528203 0.285719 0.182104 3 -2 -4 
8011 6 0.274329 0.285121 0.200695 4 -1 -2 
5258 5 0.437398 0.296819 0.183124 1 -2 -1 
5028 6 0.163026 0.311903 0.198815 -4 1 -1 
7274 6 0.327789 0.350455 0.193052 4 3 2 
8123 6 0.607165 0.32758 0.182016 7 -1 -1 
7330 6 0.70265 0.339059 0.192303 -3 0 3 
7518 6 0.110016 0.396785 0.167341 4 1 -4 
8240 6 0.174379 0.411198 0.198678 -4 -1 2 
7673 6 0.0123434 0.406959 0.193388 -2 -1 2 
7174 6 0.0343876 0.453903 0.181079 5 -2 3 
6735 5 0.0118769 0.422063 0.195805 3 3 -2 
6975 5 0.367598 0.444866 0.201544 0 -1 2 
5700 5 0.388787 0.547346 0.182189 1 0 -5 
5307 5 0.540065 0.510818 0.204645 -3 -1 -1 
6502 5 0.576856 0.509011 0.166321 1 -2 -6 
8689 5 0.878593 0.517591 0.210435 3 0 2 
5552 5 0.960416 0.493594 0.163201 -1 1 2 
6681 6 0.0302241 0.573114 0.196083 -2 -3 -4 
7810 5 0.574399 0.550178 0.208425 5 -2 -3 
8765 5 0.308797 0.574992 0.230203 -1 -7 2 
6427 5 0.632922 0.586227 0.183426 -4 3 2 
7142 5 0.705211 0.55128 0.214321 -8 -3 4 
5679 5 0.971379 0.560161 0.16201 -3 2 0 
5802 6 0.187885 0.590654 0.146394 -7 -2 5 
7241 5 0.63582 0.584739 0.171145 2 -2 5 
7833 6 0.0448071 0.614339 0.217499 -2 -5 1 
7843 5 0.449743 0.61164 0.158555 -4 0 -4 
7086 6 0.773106 0.604894 0.203969 -6 0 2 
8529 6 0.346924 0.643654 0.185978 -1 2 -1 
7232 6 0.753207 0.638097 0.224977 -2 4 2 
8674 5 0.148866 0.675309 0.213741 1 3 1 
7131 5 0.199188 0.673098 0.204909 2 2 5 
5294 6 0.937046 0.656374 0.214171 4 3 0 
5427 6 0.205496 0.679239 0.227111 0 4 1 
5047 5 0.582232 0.709926 0.215069 3 -1 -1 
8351 6 0.0309165 0.726038 0.237776 3 4 -2 
7020 6 0.308601 0.807174 0.21443 0 -1 -3 
7144 6 0.0747441 0.796871 0.207732 1 5 3 
7621 6 0.264151 0.795142 0.188668 -1 -5 -4 
6647 5 0.279563 0.784188 0.195295 -2 -1 -2 
8325 6 0.963029 0.780542 0.192411 -1 -2 -1 
8798 6 0.129055 0.754561 0.210271 4 -3 3 
6841 5 0.230468 0.811766 0.228859 1 1 0 
5656 6 0.385996 0.82949 0.154012 1 -2 0 
8735 6 0.48294 0.786178 0.195439 0 5 -1 
8589 6 0.0969117 0.844697 0.219666 -1 -1 4 
5703 6 0.163942 0.86601 0.176205 -3 -2 -2 
7649 5 0.516643 0.851128 0.217459 3 -3 3 
8257 5 0.0902786 0.851756 0.214808 4 -3 -8 
8220 5 0.111963 0.907822 0.175095 1 -5 3 
5980 6 0.602057 0.891401 0.200671 3 1 2 
6186 6 0.769767 0.896714 0.175557 -3 -1 0 
6267 6 0.74094 0.901905 0.199561 -3 -2 6 
7032 6 0.454045 0.922532 0.197911 -2 1 -1 
7370 6 0.467908 0.904 0.175122 2 0 -1 
8770 5 0.826091 0.95925 0.205994 1 -6 2 
5768 6 0.84053 0.992576 0.201803 -2 0 2 