ITEM: TIMESTEP
20000000
ITEM: NUMBER OF ATOMS
9000
ITEM: BOX BOUNDS pp pp pp
-75 75
-75 75
-75 75
ITEM: ATOMS id type xs ys zs ix iy iz 
5638 6 0.739809 0.995732 0.0151582 3 -4 -4 
6770 6 0.20553 0.0998659 0.00549344 3 -2 3 
5879 5 0.525803 0.0205328 0.0560559 0 4 1 
8316 6 0.154511 0.0559104 0.0112709 5 6 3 
6570 6 0.246187 0.0806553 0.063357 -2 -3 1 
5704 5 0.354925 0.0900788 0.0403915 -5 1 0 
5204 6 0.802825 0.0714359 0.0227454 -2 -2 -1 
8882 6 0.0669104 0.173572 0.0276174 7 2 3 
7669 5 0.539634 0.136832 0.999605 2 -2 -1 
5916 5 0.845756 0.120739 0.0276082 -2 -1 0 
6276 6 0.0544942 0.149447 0.949711 3 4 3 
6769 6 0.459169 0.139186 0.99223 4 -2 6 
6258 5 0.521207 0.0981246 0.984365 -1 -2 2 
8980 6 0.961622 0.106903 0.053852 -5 -1 1 
8793 5 0.197159 0.200756 0.00810768 -1 0 -1 
6232 5 0.494253 0.197218 0.0256941 -3 0 5 
8386 6 -0.0020344 0.202943 0.0551341 -3 2 2 
5170 6 0.0871243 0.218122 0.0240365 1 1 -1 
7960 6 0.247789 0.21594 0.0203283 3 5 -1 
8378 6 0.266427 0.20741 0.961589 1 6 -1 
5992 5 0.951221 0.253505 0.995396 -2 1 -2 
8348 6 0.0294901 0.260128 0.00752468 1 -2 -6 
8427 6 0.126538 0.252431 0.020358 0 -2 -4 
5506 5 0.183738 0.260386 0.0114308 -1 2 3 
8171 5 0.40211 0.269068 0.997366 2 -5 -2 
5463 5 0.247292 0.349062 0.983013 0 -1 4 
8231 5 0.360895 0.352646 0.0405159 -4 4 -2 
6667 6 0.508322 0.356014 0.983362 1 -2 4 
8750 5 0.782667 0.34422 0.0192852 -2 -2 0 
6762 5 0.124732 0.420518 0.0178343 1 -3 -3 
6953 6 0.328217 0.399627 0.983848 0 -1 5 
7799 5 0.405076 0.45361 0.988145 1 2 -4 
5676 5 0.721274 0.430094 0.0111399 -3 -6 -1 
7705 5 0.068135 0.506006 0.0296808 8 1 3 
6691 5 0.82892 0.446143 0.984904 1 4 -2 
6593 6 0.0300867 0.475554 0.0233888 1 -3 3 
8166 6 0.56147 0.484947 0.984988 -3 4 -1 
6735 6 0.145738 0.511947 0.994931 -2 -3 -3 
5967 6 0.307414 0.485654 0.0255701 -2 2 1 
8818 5 0.513624 0.455949 0.00477799 0 3 2 
7793 6 0.680681 0.487373 0.0632001 -2 0 0 
8667 5 0.938986 0.45107 0.978113 -4 0 -2 
7316 6 0.971187 0.499136 0.985067 1 0 -3 
8820 6 0.341753 0.531925 0.00206958 3 1 -1 
6984 6 0.803229 0.499539 0.00233418 -1 8 3 
5295 5 0.776641 0.511338 0.996409 1 -5 2 
8539 6 0.116954 0.524782 0.0249353 -2 -3 -3 
8558 6 0.495482 0.568525 0.0123933 2 2 3 
6465 5 0.322096 0.537326 0.982531 -1 -1 0 
5777 6 0.376723 0.590536 0.0360874 0 -4 1 
8890 6 0.825952 0.562112 0.0183006 -1 4 0 
6032 5 0.301467 0.579174 0.028312 3 0 3 
8130 6 0.424357 0.606681 0.015069 -3 0 -1 
8565 5 0.562278 0.606466 0.0223225 0 -1 -1 
5713 6 0.727829 0.595579 0.97305 -4 4 -4 
7896 5 0.693564 0.628397 0.998337 -1 1 -1 
8582 6 0.473973 0.632948 0.04782 3 -2 -1 
6021 6 0.72616 0.641778 0.0405887 0 4 -2 
7009 5 0.544249 0.724089 0.0572917 2 3 3 
7615 6 0.877546 0.711719 0.026501 -3 -3 5 
8071 6 0.749645 0.750116 0.0280317 -6 3 2 
7649 5 0.172728 0.732206 0.0227394 0 5 1 
7241 5 0.374082 0.816843 0.98065 -2 -1 -9 
5195 5 0.721191 0.773935 0.991815 -4 1 -1 
6405 6 0.101431 0.740609 0.0167976 0 -2 -1 
5315 5 0.502385 0.817514 0.98537 -3 -5 1 
6503 6 0.514594 0.827007 0.989432 -1 1 -5 
6975 5 0.315259 0.843391 0.012554 2 5 -3 
6495 6 0.72862 0.893687 0.975664 -2 3 -1 
6599 6 0.054617 0.90478 0.0711988 1 -3 2 
5808 6 0.616269 0.900914 0.0199768 6 -2 1 
5708 6 0.652298 0.933022 0.0150943 -3 2 2 
5527 5 0.770876 0.931447 0.00201518 -6 -5 1 
6311 6 0.238773 0.942764 0.00683639 2 3 3 
7064 6 0.903213 0.981749 0.0216317 -2 3 -1 
8511 5 0.994478 0.97382 0.0196668 2 -2 6 
6992 6 0.0227053 0.0169306 0.0303334 1 -1 -2 
6329 6 0.799655 0.0200889 0.0357359 -4 7 -6 
7769 6 0.836908 0.995607 0.0125046 0 -4 3 
7160 5 0.0544749 0.0673419 0.0315351 1 4 -4 
6022 5 0.134178 0.0600341 0.078439 0 0 3 
5650 5 0.161605 0.00972023 0.078365 -2 3 -6 
6024 6 0.576128 0.0134866 0.0347945 -4 1 4 
8826 5 0.850752 0.0469046 0.00922981 0 3 6 
5497 5 0.957633 0.0537066 0.992725 0 2 -2 
5792 5 0.837628 0.0138417 0.0178566 -1 6 3 
5283 6 0.0734357 0.0529698 0.0679042 0 1 2 
7652 6 0.787899 0.09898 0.0376691 1 -3 4 
5050 6 0.140253 0.118537 0.0226073 3 -4 -5 
6295 6 0.223237 0.112461 0.0479241 -1 -3 3 
5557 6 0.562185 0.116295 0.0575934 -1 -2 -2 
8502 6 0.663103 0.129809 0.0764004 -1 8 2 
5626 6 0.73538 0.100179 0.0499448 0 -1 -1 
8553 6 0.193319 0.142943 0.0278623 -3 -2 1 
8678 5 0.536484 0.127847 0.0376406 2 2 8 
7608 6 0.75823 0.121786 0.0396143 0 -5 1 
7815 5 0.771451 0.185164 0.0506008 0 2 2 
5071 6 0.816121 0.143671 0.0572975 3 3 -4 
5954 6 0.395385 0.204287 0.0216546 0 1 -3 
6734 6 0.492332 0.189132 0.0338054 -5 1 2 
8579 6 0.988123 0.181897 0.0292289 -2 2 2 
5934 5 0.0265019 0.223394 0.0672263 0 -3 -2 
6783 6 0.844701 0.193074 0.0669207 4 1 -1 
7290 5 0.764321 0.236823 0.0401752 2 -2 2 
7031 5 0.338521 0.252656 0.043149 -3 -1 -1 
8092 5 0.765438 0.31672 0.0498649 -3 -1 5 
8865 5 0.666675 0.27802 0.989414 -3 2 -3 
7913 5 0.185836 0.3299 0.0581714 3 1 0 
7617 6 0.436632 0.342699 0.0375829 3 -3 3 
7845 5 0.00372052 0.386536 0.987225 -2 -3 1 
5759 6 0.352065 0.314758 0.0355054 -3 1 3 
5067 5 0.861029 0.367903 0.0346888 -4 3 2 
5552 6 0.59377 0.407807 0.0178381 6 1 -2 
7701 5 0.665461 0.413764 0.0332855 -1 -1 2 
7682 5 0.768633 0.421536 0.0311613 0 -1 -3 
7178 5 0.864996 0.44885 0.021796 0 0 -2 
6153 5 0.276332 0.452932 0.0357833 0 5 6 
7476 5 0.560475 0.420487 0.0462469 -1 0 0 
5794 6 0.993876 0.44596 0.0665182 1 2 -5 
6380 5 0.484177 0.489406 0.0430029 3 1 -3 
7976 6 0.0750244 0.507226 0.0267048 2 3 -1 
6322 6 0.223872 0.550453 0.0739774 -2 1 -2 
5927 6 0.770268 0.482043 0.0450442 -2 2 0 
8416 6 0.963518 0.480822 0.0444574 2 1 -1 
8381 5 0.893733 0.561277 0.975052 -4 1 0 
7638 5 0.145038 0.53381 0.986046 4 -3 2 
7484 5 0.811967 0.549 0.0474301 -4 -1 0 
5380 6 0.944936 0.568194 0.0291598 -5 -1 4 
5108 5 0.932961 0.56664 -0.000396997 -3 6 0 
5544 5 0.601051 0.605214 0.0157406 0 2 7 
6591 5 0.699083 0.580728 0.0532684 -3 2 2 
5812 6 0.723117 0.609545 0.034444 1 -1 1 
8260 5 0.792001 0.590486 0.0427806 3 1 4 
7022 5 0.263269 0.637671 0.050805 -1 3 -2 
6758 6 0.688586 0.624334 0.0367505 3 -1 2 
6954 5 0.455015 0.655619 0.0569395 -3 1 -4 
8209 6 0.457903 0.614708 0.0529925 -2 -2 2 
6808 5 0.98024 0.672414 0.0294137 5 1 1 
7854 6 0.0771819 0.647503 0.0628506 -3 -5 0 
7293 6 0.199372 0.625185 0.0506916 1 -2 5 
8479 5 0.641453 0.636374 0.0325955 3 2 3 
8040 5 0.728165 0.657556 0.0420297 -2 2 -2 
5971 6 0.906281 0.694753 0.0363348 2 -2 2 
6227 5 0.309809 0.681439 0.00739426 -5 -2 2 
8136 5 0.303546 0.786208 -0.000949264 -1 -2 0 
8783 5 0.763698 0.722489 0.00948595 2 4 0 
6823 5 0.0209 0.766029 0.0515318 1 2 2 
8828 6 0.210432 0.787632 0.00793587 0 1 -2 
6910 6 0.509985 0.783895 0.993461 3 2 -1 
6929 5 0.212356 0.771124 0.0371349 -2 7 0 
7784 6 0.907845 0.816741 0.00920014 0 1 -1 
5693 5 0.198966 0.807794 0.0321927 2 -1 -1 
6072 5 0.505091 0.834989 0.0218322 1 1 -4 
6958 5 0.627891 0.845903 0.990144 -7 2 0 
6567 5 0.705843 0.852662 0.0361237 -3 -4 0 
8067 5 0.899056 0.848907 0.0616873 2 4 5 
6303 6 0.729502 0.930535 0.0273105 3 -2 -5 
7473 5 0.35038 0.934128 0.0253674 4 -1 4 
8048 6 0.41774 0.944882 0.0233529 -2 -3 2 
6650 6 0.0974842 0.939228 0.0260489 0 -2 2 
5503 5 0.378652 0.935263 0.0529045 -4 3 0 
6668 6 0.918702 0.944307 0.0534625 -7 -4 5 
8029 6 0.339343 0.00655443 0.0112727 2 -1 0 
6994 5 0.868496 0.0146271 0.0277833 -4 1 2 
6962 5 1.00196 0.984399 0.06455 -2 8 0 
7999 6 0.467788 0.0268935 0.0548663 2 -2 -2 
5936 5 0.846265 0.99018 0.0584203 -4 -2 -2 
5164 6 0.922774 0.0740939 0.0723325 -4 1 4 
6398 5 0.543643 0.0366725 0.0450283 -4 3 0 
7397 6 0.113558 0.0673793 0.0780009 0 -3 -1 
6028 6 0.188252 0.0665374 0.042757 3 1 3 
8421 6 0.492071 0.0593766 0.0562065 -3 -3 -3 
8248 5 0.628382 0.0624039 0.0531771 0 3 -1 
6140 5 0.736846 0.0618207 0.0583097 2 2 -2 
5058 6 0.180345 0.0775824 0.0546657 8 3 -1 
5353 5 0.872026 0.103113 0.0800418 2 -5 3 
5350 5 0.815904 0.138738 0.0674543 -3 0 -3 
7193 6 0.794916 0.123965 0.0409291 -6 -1 5 
8277 6 0.922497 0.150819 0.0382987 1 0 -2 
5136 6 1.0015 0.124366 0.0481219 -2 1 5 
8278 6 0.122217 0.128492 0.0676506 0 -5 5 
5072 6 0.035469 0.198584 0.0595914 1 -1 0 
6203 5 0.304093 0.185767 0.03029 -3 1 -5 
8108 5 0.773068 0.189002 0.0617447 0 0 0 
6881 5 0.753599 0.196483 0.0537734 1 4 -2 
8318 5 0.528099 0.211722 0.0325995 -1 0 -3 
5103 5 0.0626308 0.202279 0.0744995 6 3 2 
8065 6 0.0695539 0.249493 0.0620361 0 2 -1 
5630 5 0.149357 0.262437 0.0304178 -2 6 -4 
6099 5 0.332487 0.239511 0.0751954 -3 -3 0 
8945 5 0.435948 0.288551 0.0633083 2 1 3 
5809 5 0.732589 0.27197 0.0871098 1 0 -4 
5440 6 0.112579 0.276982 0.0862809 -5 -2 6 
8462 5 0.403945 0.277288 0.0642987 2 5 0 
7949 6 0.45755 0.280794 0.0825258 -4 -7 3 
5750 6 0.836322 0.307745 0.0566002 -6 1 1 
8422 6 0.986932 0.326462 0.980746 3 1 0 
7429 5 0.31184 0.323152 0.072803 -3 1 5 
7906 5 0.424957 0.282714 0.0796075 3 -2 -2 
5074 6 0.670069 0.350101 0.0313056 1 -4 -3 
5965 6 0.887558 0.327721 0.0332299 4 -1 0 
5572 5 0.345341 0.339525 0.0509634 -3 0 0 
5609 5 0.333222 0.358421 0.0418551 1 -3 3 
6715 6 0.988301 0.349165 0.0509597 -1 -1 -4 
7170 5 0.251037 0.363474 0.0624035 4 -3 2 
5863 6 0.387356 0.361492 0.0517097 -2 -1 -1 
5225 6 0.450991 0.392637 0.0476146 -3 1 1 
8322 5 0.836596 0.358091 0.0761236 -3 2 0 
7812 6 0.778367 0.41929 0.0830017 -3 0 -2 
5098 6 0.456685 0.447148 0.0507107 -3 -1 -1 
7903 5 0.573695 0.41398 0.0632096 -2 -2 -1 
6921 6 0.587743 0.45791 0.0462198 -5 -2 -1 
8032 5 0.988983 0.45183 0.0427187 0 -3 3 
8076 5 0.13042 0.464678 0.0593364 4 -2 -2 
7469 6 0.657224 0.481529 0.0404523 0 1 0 
7059 6 0.6887 0.470708 0.0932488 1 -1 6 
5477 6 0.446976 0.512701 0.0439483 -2 -2 2 
6607 6 0.470046 0.473962 0.0436304 -7 1 3 
5629 5 0.240142 0.524035 0.0518826 -1 -1 1 
6679 6 0.163356 0.556317 0.0761555 1 0 -4 
8761 5 0.258964 0.521158 0.08657 6 0 0 
5526 5 0.516855 0.53165 0.0521867 2 5 1 
8468 6 0.539552 0.561977 0.0641151 -2 1 0 
8858 5 0.300149 0.56623 0.0761069 5 -6 3 
5081 6 0.799615 0.562291 0.033481 1 -2 5 
5674 5 0.244138 0.616464 0.0614928 -2 6 0 
8195 5 0.205048 0.616676 0.0668373 -5 0 -3 
7930 6 0.587366 0.598793 0.0280505 -1 -2 -4 
5453 6 0.795469 0.636125 0.0453116 -1 1 -2 
6148 6 0.0720216 0.636156 0.130587 1 2 5 
6320 5 0.469577 0.622048 0.0742502 2 1 4 
5064 6 0.681616 0.645271 0.0872446 -2 -2 -4 
6689 5 0.82802 0.666197 0.0637251 0 -2 3 
5979 6 0.0199988 0.732096 0.0713581 0 7 0 
6979 6 0.542046 0.796121 0.0767784 -4 -6 -2 
8791 5 0.666589 0.789919 0.0409877 0 -1 1 
6409 6 0.853275 0.767413 0.0587044 -2 1 5 
8927 6 0.557559 0.788164 0.0605107 2 1 1 
5224 5 0.889675 0.787031 0.0495264 -1 3 1 
8681 6 0.140108 0.772284 0.0682823 3 0 3 
7371 6 0.455224 0.82507 0.0735819 3 -2 1 
6885 5 0.712311 0.835991 0.0847227 -4 4 2 
7928 6 0.713374 0.846685 0.0962945 -1 5 4 
6371 6 0.25655 0.815886 0.0541498 2 1 4 
7114 6 0.582087 0.830633 0.0650056 -3 -1 4 
6663 6 0.943838 0.842527 0.0738984 -4 -3 2 
7116 5 0.486434 0.905708 0.0503038 0 1 0 
7455 5 0.686534 0.929841 0.0956923 0 0 -1 
7133 5 0.741845 0.891367 0.0419252 -5 2 2 
8193 6 0.0464108 0.918027 0.0587944 1 0 4 
7026 5 0.521437 0.916349 0.0651406 -6 0 0 
5791 6 0.0494031 0.94462 0.0605859 -4 -2 0 
7743 5 0.165007 0.961629 0.0851459 2 4 2 
8743 6 0.405312 0.940919 0.0632744 -3 -3 1 
7392 6 0.970926 0.952726 0.0670633 -2 -3 -2 
5219 5 0.333535 0.986412 0.0930369 -2 4 1 
7378 6 0.533845 0.97228 0.0533503 -1 -2 -2 
7746 6 0.512897 0.987461 0.067389 0 -3 3 
6614 6 0.785513 0.966039 0.0771462 -2 3 5 
7767 6 0.841356 0.969792 0.0424778 -1 -1 -2 
7291 5 0.110555 0.0601077 0.0821223 1 3 -4 
5302 5 0.374733 0.0581222 0.0720388 -4 4 -6 
7505 6 0.544813 0.0375189 0.0919235 5 1 -1 
6297 6 0.956103 0.10879 0.0799248 -2 1 1 
5692 6 0.0757492 0.105506 0.0661466 3 3 -1 
5309 5 0.490867 0.125017 0.07502 -2 -3 -3 
7232 5 0.259937 0.098606 0.0946943 2 0 2 
6925 6 0.00399177 0.120562 0.0260588 1 3 3 
5151 5 0.134894 0.157712 0.0630028 3 -4 -1 
7851 6 0.960729 0.168654 0.0911089 5 0 3 
6649 6 0.546349 0.194315 0.0695535 -3 0 4 
8341 6 0.762148 0.21171 0.07173 -1 -2 -2 
8244 6 0.00706241 0.147939 0.0818857 -5 -3 -2 
6643 5 0.493827 0.171038 0.0929535 1 -2 -2 
5714 5 0.263921 0.180665 0.110557 3 1 1 
8563 6 0.751646 0.272606 0.0703728 -3 4 2 
6613 6 0.839922 0.195001 0.0720617 -5 0 0 
7664 6 0.954913 0.227073 0.0642948 0 5 -2 
8204 5 0.431137 0.270604 0.101428 0 0 0 
6573 5 0.990006 0.270781 0.0503806 2 4 0 
6074 6 0.970331 0.274997 0.0871459 1 4 -3 
6694 6 0.178114 0.358713 0.0636552 2 -2 0 
6845 5 0.449817 0.397964 0.0829218 2 -1 -2 
7251 5 0.878733 0.381462 0.107329 0 4 6 
7087 5 0.0225603 0.409584 0.059475 2 2 3 
8147 5 0.146067 0.425873 0.0866299 3 0 3 
8310 6 0.300983 0.40935 0.0411226 -2 5 1 
6524 5 0.166326 0.39431 0.053223 2 0 2 
6517 6 0.691024 0.435163 0.0829237 -1 1 2 
8059 6 0.92948 0.445328 0.100585 1 -1 4 
6787 6 0.196145 0.476293 0.0742201 -2 1 2 
7167 5 0.0781059 0.527662 0.0667006 0 1 2 
7881 6 0.2027 0.497023 0.0655308 -2 1 0 
8954 5 0.0353719 0.564188 0.104937 -1 0 1 
7496 6 0.550221 0.529835 0.0854356 -1 1 -2 
6578 6 0.792301 0.548927 0.0822585 3 0 -4 
7923 5 0.867205 0.511481 0.0751747 -1 0 2 
8847 6 0.93554 0.540256 0.0820535 1 5 -3 
6058 5 0.0704735 0.52093 0.0880183 -1 2 5 
7573 5 0.796928 0.591587 0.09126 0 1 -6 
5492 5 0.166554 0.621245 0.11502 3 1 -6 
6476 6 0.686513 0.600661 0.060881 -1 1 0 
7640 5 1.00011 0.625079 0.0897778 -3 -2 1 
8702 6 0.219164 0.645249 0.0897243 0 -1 5 
8016 6 0.338169 0.635851 0.0718179 4 -4 6 
6155 5 0.928348 0.659021 0.0760658 0 -3 -1 
8675 6 0.18256 0.637587 0.0558953 0 1 0 
5859 5 0.229702 0.686569 0.0593455 0 -1 -2 
6806 5 0.512377 0.698821 0.075885 1 0 2 
5199 5 0.564129 0.663947 0.0812342 -2 3 5 
8677 6 0.0673987 0.704996 0.0859939 2 3 -1 
5560 5 0.450238 0.723365 0.0684461 2 0 -6 
8308 6 0.542096 0.743711 0.0506748 2 -1 0 
8741 6 0.774119 0.745312 0.0839211 -3 2 2 
7497 6 0.889627 0.753257 0.0976515 -4 -3 -1 
7481 5 0.130913 0.774943 0.076235 1 4 1 
5899 6 0.366655 0.767081 0.0466812 3 1 -2 
7153 6 0.732141 0.833941 0.0650186 1 3 0 
6004 6 0.814263 0.805548 0.116198 -5 2 -3 
5381 6 0.894505 0.806002 0.0982409 -3 0 -3 
6029 5 0.340438 0.812132 0.0624576 -6 -1 -3 
8089 5 0.347073 0.818069 0.10852 2 5 0 
7072 6 0.39143 0.778471 0.125006 0 4 -3 
6606 5 0.369564 0.782701 0.105814 0 0 0 
8362 6 0.588834 0.81656 0.133493 2 0 1 
7134 5 0.612032 0.770417 0.0529708 1 -3 -1 
8915 6 0.159847 0.861768 0.0889422 5 -7 -6 
5127 6 0.530826 0.811985 0.0799202 0 5 -1 
5852 6 0.836834 0.839289 0.0462865 1 3 6 
6951 6 0.872476 0.902637 0.0285718 2 -1 -2 
5801 5 0.922637 0.888717 0.0528212 -4 -5 -3 
7204 5 0.983298 0.915562 0.103847 1 -6 -1 
6395 6 0.473818 0.90602 0.0933842 5 1 1 
6701 6 0.0722421 0.913895 0.0942078 3 1 4 
5498 6 0.48363 0.94233 0.0931064 2 2 -2 
5484 5 0.944214 0.946257 0.0690377 -4 -5 -2 
5895 6 0.491997 0.977035 0.0505827 -2 -3 0 
5414 5 0.81183 0.970448 0.0716087 -1 0 3 
8614 6 0.146386 0.0145702 0.0989354 -2 0 -4 
7379 6 0.395797 0.0465748 0.123808 -2 -3 -4 
7801 5 0.394147 0.0548984 0.0907073 -2 3 6 
5616 6 0.0586036 0.112949 0.135101 3 -2 3 
6730 5 0.65105 0.0869495 0.120637 5 0 1 
8271 5 0.398392 0.0922844 0.0919776 8 4 4 
6598 5 0.432099 0.159373 0.114035 0 -1 -3 
5776 5 0.728296 0.0759908 0.0833395 -2 4 1 
5413 5 0.823093 0.0981077 0.108618 3 3 4 
6106 5 0.963595 0.12987 0.108204 -1 2 -1 
6381 6 0.96801 0.201044 0.103205 2 0 1 
8840 6 0.534196 0.187083 0.148834 0 0 3 
8298 5 0.737381 0.194249 0.108068 3 6 -1 
5636 6 0.559515 0.236903 0.121513 2 -4 1 
7632 6 0.355714 0.23226 0.0562827 -4 2 1 
8619 6 0.378973 0.263986 0.145331 4 4 5 
6077 5 0.532427 0.229764 0.141772 -4 -4 1 
8921 5 0.932261 0.223918 0.0713128 -2 -4 1 
6854 6 0.889946 0.236759 0.144802 -5 -3 2 
6100 5 0.405521 0.273269 0.106967 0 0 -1 
8471 6 0.980587 0.315319 0.0625834 -3 -1 0 
6009 5 0.167575 0.293246 0.130197 4 2 0 
6473 6 0.574689 0.320192 0.12196 -3 4 1 
5161 5 0.805694 0.331366 0.0817101 0 -1 6 
5348 6 0.943536 0.337694 0.0758686 1 -1 -1 
6207 6 0.935938 0.338159 0.139687 -1 -4 2 
7500 5 0.571747 0.32764 0.0988395 -1 -4 0 
7952 5 0.9562 0.40675 0.110469 -2 -1 4 
8299 6 0.39506 0.376902 0.0945104 -2 1 -1 
6168 5 0.874967 0.392034 0.107303 -3 1 -1 
6110 6 0.0510377 0.384971 0.107668 -2 -1 -2 
8868 5 0.0315665 0.368815 0.0749501 3 3 -1 
7458 5 0.163892 0.387461 0.0875856 3 1 0 
5740 6 0.723036 0.406382 0.0726175 0 8 5 
7761 5 0.0540385 0.432998 0.0772379 -2 1 0 
8064 6 0.107667 0.44486 0.128165 0 5 -5 
5019 6 0.259616 0.441948 0.0686352 0 7 -4 
6630 6 0.221281 0.449378 0.115604 3 -2 1 
8256 5 0.814373 0.437431 0.124424 -3 2 -1 
8001 6 0.0836496 0.460987 0.106032 2 2 -2 
5346 5 0.304808 0.405909 0.0855091 2 0 0 
6059 5 0.583862 0.50565 0.111856 -1 3 6 
8993 6 0.675747 0.530859 0.130276 -2 2 -1 
6713 5 0.788192 0.498285 0.112257 2 2 0 
5733 5 0.658454 0.523661 0.110424 1 -6 3 
7509 5 0.0987357 0.513808 0.10636 1 -1 7 
8132 6 0.929154 0.532977 0.0882971 2 1 1 
6229 6 0.280156 0.544413 0.116154 0 -2 -3 
5548 6 0.312582 0.582791 0.108976 0 1 -1 
7824 5 0.615646 0.598765 0.0907981 2 -2 -1 
8729 5 0.921669 0.587772 0.107476 5 4 -1 
5345 6 0.0844039 0.62172 0.120671 0 5 2 
5996 6 0.243862 0.64369 0.088968 -7 0 0 
7523 6 0.487357 0.60175 0.123442 1 -1 1 
6182 6 0.114984 0.660881 0.106031 4 4 5 
8473 6 0.184776 0.643753 0.0826802 1 -3 4 
5457 6 0.653425 0.585935 0.108074 -1 -3 4 
6321 6 0.786427 0.686389 0.0948146 1 -2 -1 
5280 5 0.79542 0.676691 0.092158 -2 -5 0 
5953 6 0.779387 0.700684 0.104128 -1 1 9 
6733 6 0.242561 0.671298 0.0962987 0 -3 -2 
5356 6 0.102197 0.781084 0.0931268 -2 1 -2 
6344 5 0.0715024 0.748102 0.0903667 -4 3 -3 
5146 5 0.959164 0.71839 0.107038 -1 4 0 
6400 5 0.989722 0.732635 0.0780968 3 4 4 
8789 5 0.406473 0.785722 0.106547 2 -2 -4 
8194 5 0.794623 0.8183 0.101505 4 0 -2 
7991 6 0.28154 0.840095 0.117695 -3 3 1 
8464 6 0.00714997 0.824292 0.0947733 0 6 5 
6741 6 0.192127 0.901653 0.0755027 0 4 1 
6225 6 0.22374 0.914017 0.134758 1 -4 5 
7493 5 0.46966 0.926202 0.0966071 -4 -3 0 
8432 6 0.912073 0.935114 0.0862941 -5 -2 3 
7126 5 0.0135708 0.921624 0.0785576 2 -2 -2 
6463 5 0.514273 0.905291 0.0964639 1 -5 -1 
8809 6 0.958031 0.960258 0.128256 -3 2 -3 
5239 6 0.655419 0.935048 0.0977873 4 -4 3 
7086 6 0.708025 0.971345 0.0884937 -3 2 -2 
6934 6 0.370246 0.992575 0.120717 -3 -4 9 
7329 5 0.675466 0.986206 0.101138 -5 2 2 
5724 6 0.727594 0.984993 0.102872 4 -3 5 
5207 5 0.812522 0.038042 0.104037 -2 1 1 
8036 5 0.786094 0.0818293 0.131244 -3 1 -1 
5097 5 0.975335 0.0381386 0.129107 -3 0 0 
5028 6 0.124907 0.103448 0.11843 -1 -4 1 
8854 5 0.539651 0.0687119 0.0989891 3 -5 3 
8531 5 0.548967 0.0309147 0.118992 3 -2 3 
6509 5 0.919143 0.120005 0.149925 1 5 1 
7347 6 0.0868681 0.125252 0.150457 2 2 -2 
6362 6 0.891109 0.145875 0.109729 1 2 2 
7614 6 0.282795 0.156371 0.106842 1 1 3 
8289 6 0.428446 0.104875 0.146759 4 -1 -2 
8436 5 0.482415 0.187583 0.143915 1 1 1 
5007 6 0.219794 0.180772 0.116581 1 -4 0 
5002 5 0.474377 0.141494 0.108534 -2 1 6 
6884 5 0.00432785 0.167 0.117301 -1 2 2 
5929 5 0.375236 0.169745 0.111141 -1 -3 -1 
6062 6 0.54878 0.185566 0.0914524 6 -4 -1 
8024 6 0.757967 0.165727 0.121241 -1 -1 5 
8394 5 0.104106 0.238196 0.153678 2 1 -2 
6515 6 0.369765 0.235635 0.153271 -1 2 1 
8546 6 0.310281 0.234082 0.0948451 -2 2 -2 
5651 5 0.232539 0.256309 0.117283 -4 -6 0 
8607 6 0.305014 0.251773 0.120783 -2 5 0 
7588 5 0.342326 0.257628 0.0988716 -1 1 -3 
6489 5 0.204227 0.279327 0.132495 -7 -3 4 
8086 6 0.293914 0.287619 0.168572 -4 -1 2 
5735 6 0.346119 0.293443 0.0933027 1 -3 5 
6183 5 0.783555 0.302181 0.153119 -4 4 0 
5983 5 0.0921438 0.307045 0.112048 2 0 2 
5669 5 0.376776 0.321359 0.153109 -5 2 2 
5778 6 0.479595 0.368145 0.120181 -1 -1 -3 
6675 5 0.969777 0.324106 0.166212 1 -3 -1 
7194 5 0.774466 0.371855 0.125417 -2 -1 -3 
5341 6 0.160825 0.391929 0.149261 2 -4 -3 
5140 5 0.402774 0.408961 0.103942 4 1 5 
6052 6 0.908359 0.391804 0.127454 -1 1 -1 
5989 6 0.949715 0.428242 0.161038 3 2 2 
7327 6 0.00564665 0.447174 0.116941 5 -2 -1 
6132 6 0.563663 0.419174 0.137904 4 1 2 
7621 5 0.911064 0.419027 0.13475 -9 -4 2 
5291 6 0.0507884 0.434475 0.119743 -1 1 0 
7553 6 0.208331 0.455473 0.144622 4 1 5 
7936 6 0.813243 0.409574 0.0814546 3 -2 -4 
8769 6 0.932299 0.438848 0.140666 -1 -2 3 
7118 5 0.113483 0.448688 0.111588 2 1 5 
6551 6 0.0396944 0.518833 0.118651 0 2 -3 
7777 6 0.992954 0.490483 0.154072 -2 1 1 
5397 6 0.226026 0.578469 0.108979 1 1 3 
6114 5 0.414776 0.521957 0.100352 0 2 6 
6107 5 0.644158 0.551435 0.114807 2 2 1 
6548 5 0.825671 0.532103 0.100056 -1 -3 0 
8784 5 0.934884 0.53257 0.102113 1 2 0 
8950 6 0.220427 0.545863 0.134121 -2 0 0 
6014 6 0.764171 0.562607 0.148248 -1 1 -3 
5300 5 0.14392 0.624825 0.145543 0 -2 -2 
8279 6 0.855899 0.607089 0.132879 2 -1 -3 
8508 5 0.0660905 0.599587 0.112336 -1 -6 2 
8206 6 0.277371 0.669301 0.149837 -2 5 0 
7415 5 0.414151 0.69163 0.135515 -1 0 -5 
5641 5 0.455196 0.626624 0.141744 -2 2 3 
7045 5 0.60438 0.668163 0.15284 -3 0 -6 
7898 5 0.757493 0.644777 0.135157 -2 -1 -1 
6871 6 0.754763 0.667073 0.105344 2 -3 0 
6013 5 0.209335 0.690655 0.150861 2 4 4 
6290 5 0.819486 0.71549 0.172396 -4 -4 -5 
8548 5 0.651616 0.727011 0.134849 2 0 -4 
7529 5 0.871253 0.713724 0.0921987 -2 -2 -1 
7623 5 0.276269 0.779478 0.123587 5 2 4 
8398 6 0.364131 0.73435 0.132995 5 -7 3 
7655 6 0.838352 0.768515 0.0989221 -4 0 -4 
7965 6 0.31291 0.766694 0.161437 0 -1 -3 
5039 6 0.283921 0.787491 0.142045 2 -3 0 
8311 5 0.67849 0.80966 0.120682 -3 1 -5 
6209 6 0.696604 0.849697 0.151091 -2 -2 0 
7704 5 0.477335 0.826944 0.105153 2 -2 -1 
7163 6 0.428528 0.891702 0.143663 -1 5 0 
7482 6 0.597409 0.884394 0.101689 6 3 -5 
5577 6 0.859817 0.921753 0.119621 -6 3 -1 
6875 6 0.98672 0.877887 0.115331 0 -1 0 
7138 6 0.237585 0.917404 0.157281 0 -2 1 
8176 5 0.455355 0.945709 0.116525 -3 6 -5 
8181 6 0.308584 0.932582 0.145504 3 1 0 
5637 5 0.390282 0.992621 0.157766 7 -1 3 
8246 6 0.082272 0.961018 0.128261 6 5 3 
8871 6 0.0811099 0.0162129 0.177722 -2 1 -3 
6681 5 0.558025 0.0346892 0.168872 2 3 3 
6961 6 0.145363 0.0639374 0.13957 0 0 2 
5399 6 0.339953 0.0286336 0.165817 -2 6 -3 
7396 5 0.435989 0.0468482 0.131673 0 -3 0 
5110 6 0.566168 0.0274804 0.135033 -3 6 2 
8331 6 0.531834 0.0824232 0.172719 -1 -2 4 
8687 6 0.902412 0.100534 0.189066 -2 0 2 
7007 6 0.8986 0.0759755 0.185267 -5 -7 0 
6499 6 0.106164 0.119549 0.130157 0 -2 -2 
8157 5 0.146221 0.0954327 0.137097 -3 -1 -1 
5901 6 0.77342 0.207134 0.191335 0 5 0 
7438 5 0.0642696 0.238025 0.112899 -3 -2 -1 
6326 6 0.130265 0.261755 0.156908 -3 -4 -4 
7394 6 0.317191 0.27268 0.191594 0 0 2 
7924 5 0.961784 0.272661 0.149695 1 7 -6 
5950 5 0.242394 0.273362 0.186909 -4 2 -3 
8169 6 0.261962 0.29405 0.127401 -2 -2 0 
7306 5 0.729071 0.335552 0.136244 1 1 4 
8562 6 0.958289 0.309646 0.128028 4 -2 -1 
8622 6 0.231806 0.35165 0.161746 3 -2 -3 
8291 5 0.909399 0.324994 0.134438 0 -1 -3 
5030 6 0.590706 0.389463 0.166597 3 7 0 
8556 6 0.127426 0.44412 0.133956 0 -1 -2 
8417 5 0.130507 0.400316 0.149444 -3 -2 1 
8765 6 0.125373 0.437429 0.164358 3 4 -2 
5568 5 0.481914 0.411556 0.169741 6 1 -3 
6188 5 0.279956 0.488292 0.119494 4 -1 4 
5537 6 0.437211 0.448902 0.144424 3 -2 -1 
5520 6 0.867976 0.488323 0.136242 1 0 1 
7566 5 0.13652 0.482051 0.138587 1 3 5 
5519 6 0.204121 0.497831 0.184799 0 1 -1 
7782 6 0.591185 0.500326 0.149276 0 6 5 
7165 6 0.464254 0.534564 0.191307 3 2 -3 
8587 5 0.460195 0.571668 0.146995 1 -1 2 
5253 6 0.483246 0.486816 0.142339 0 1 1 
7517 5 0.280398 0.513866 0.154347 -4 -3 -3 
7190 6 0.823236 0.587869 0.182503 -2 2 1 
7464 5 0.842125 0.560745 0.150288 4 5 -2 
7697 5 0.833165 0.564698 0.0961635 4 -2 3 
5354 6 0.823546 0.57103 0.189598 -2 -2 0 
8419 5 0.481047 0.598495 0.157565 -2 3 -1 
6401 5 0.559406 0.615842 0.126817 1 -4 2 
5935 5 0.630194 0.605733 0.111259 -6 -1 3 
6941 5 0.108759 0.645195 0.154805 2 -2 -2 
7300 5 0.168546 0.632196 0.179715 2 3 -2 
6700 5 0.547056 0.649513 0.125069 5 3 5 
6810 5 0.0419463 0.650361 0.160669 -5 -1 4 
5479 6 0.0966501 0.730323 0.121368 -4 -3 -5 
5538 6 0.581071 0.719744 0.150586 1 -8 4 
6034 6 0.996325 0.718327 0.158907 -5 0 2 
7611 6 0.0365544 0.783727 0.147327 3 -3 6 
5905 6 0.291601 0.793631 0.136329 0 0 4 
6589 6 0.0164363 0.773644 0.148169 1 0 -1 
8093 5 0.531787 0.774062 0.0879153 3 -3 6 
7797 5 0.577604 0.789402 0.185329 -2 4 0 
7619 5 0.587966 0.805228 0.153881 0 -1 5 
8639 6 0.888232 0.820867 0.1284 1 -2 -3 
8374 5 0.769794 0.796526 0.162892 1 4 -2 
8487 6 0.649732 0.821174 0.161416 1 6 4 
7105 6 0.679984 0.855768 0.134032 -1 0 3 
5257 6 0.862564 0.830166 0.175302 0 1 1 
6068 6 0.103364 0.85261 0.133284 2 0 1 
5116 5 0.850042 0.921551 0.129936 2 4 -4 
7897 5 0.298114 0.940725 0.148269 -4 -6 6 
7426 6 0.0197128 0.988346 0.171064 -7 -1 -1 
7626 5 0.463521 0.99359 0.124465 -3 -2 3 
8856 6 0.261746 0.0328305 0.21156 7 -1 0 
8405 5 0.658806 0.0225356 0.16859 5 2 2 
8774 5 0.188731 0.0369897 0.17963 -4 2 2 
6084 5 0.718474 0.062142 0.13687 -1 0 -3 
7111 5 0.0889749 0.073873 0.187949 6 0 3 
5194 5 0.931627 0.0405382 0.14936 -2 1 0 
5972 6 0.887275 0.0718612 0.164268 -2 -3 -1 
7771 5 0.270676 0.127879 0.16619 3 -1 -1 
8220 5 0.626177 0.153384 0.154206 -2 -1 0 
6657 6 0.0928332 0.134377 0.174292 0 -4 0 
5800 5 0.131449 0.161363 0.14826 0 1 3 
5920 6 0.48368 0.13834 0.203209 -2 -1 -3 
8971 6 0.60209 0.1549 0.159888 -8 3 4 
7892 5 0.929496 0.181497 0.166844 -1 0 -1 
6094 5 0.428034 0.180299 0.159529 2 1 3 
7229 6 0.952426 0.214018 0.1546 -5 -2 -1 
5405 5 0.451785 0.203998 0.199869 -4 0 4 
8334 6 0.867596 0.219501 0.208722 2 1 0 
5150 6 0.0647926 0.264827 0.145375 -3 3 1 
7501 6 0.632556 0.233811 0.177717 4 -3 -1 
6536 5 0.850412 0.276949 0.179755 -6 -1 2 
8599 5 0.22774 0.291289 0.165254 -3 4 0 
5329 5 0.364926 0.27654 0.152413 3 1 -1 
6396 5 0.42353 0.333185 0.178795 0 0 -4 
5904 5 0.974184 0.329815 0.18423 1 -2 5 
5530 5 0.29801 0.331228 0.176643 0 -3 -1 
8243 5 0.826467 0.309494 0.127359 -2 1 -1 
8440 5 0.0735354 0.347851 0.151266 0 -3 0 
5490 6 0.484714 0.392804 0.15089 3 -5 2 
6956 6 0.612078 0.356044 0.206585 1 4 -4 
5891 5 0.522703 0.40827 0.167554 0 0 0 
7480 6 0.38414 0.443857 0.158243 0 3 0 
7979 5 0.394595 0.426398 0.161467 6 -4 -3 
6149 6 0.826004 0.443123 0.176225 1 -3 -1 
8888 6 0.493908 0.472768 0.16294 1 -1 1 
5320 5 0.55878 0.471096 0.17585 -4 -1 0 
5933 5 0.876519 0.455928 0.140223 -2 8 -2 
8444 5 0.027222 0.507956 0.179978 -3 3 -1 
5184 5 0.245923 0.461623 0.177912 0 2 2 
5721 6 0.256819 0.51604 0.118613 -2 4 1 
7056 6 0.721536 0.539415 0.189624 0 -2 -3 
6414 6 0.712311 0.518227 0.2004 0 5 4 
7427 6 0.895278 0.53171 0.154799 -1 -1 0 
6639 5 0.201292 0.568476 0.18147 2 1 5 
6658 5 0.980342 0.571127 0.159075 -4 1 1 
5512 6 0.230286 0.603644 0.185415 0 -4 6 
5725 5 0.524297 0.564883 0.165532 -1 2 -1 
8199 5 0.719418 0.612504 0.217009 -5 1 -3 
8699 6 0.773926 0.59615 0.167965 -6 -7 -2 
8145 5 0.0418042 0.623172 0.139362 3 -1 0 
5707 5 0.467184 0.5906 0.157638 -3 2 -1 
8127 6 0.68247 0.623851 0.180308 2 2 2 
6824 5 0.0989963 0.623059 0.175797 -6 -2 7 
8516 6 0.469952 0.594874 0.185192 1 -4 -2 
6327 5 0.48462 0.647258 0.20878 -2 5 1 
8969 5 0.653244 0.679532 0.183828 3 -3 5 
5113 6 0.668523 0.63714 0.156138 -2 6 2 
6521 6 0.864141 0.637145 0.190932 -3 0 0 
7694 5 0.247988 0.666556 0.18838 -3 -1 3 
6834 5 0.837101 0.648153 0.156924 -2 3 -1 
5718 6 0.906317 0.591083 0.157322 5 1 0 
8704 5 0.799211 0.713415 0.149925 -1 -2 0 
5216 6 0.228791 0.733334 0.187765 4 -5 0 
6003 6 0.0606903 0.779745 0.187741 -2 -1 2 
5820 5 0.10953 0.728846 0.21097 1 -1 -1 
8972 5 0.134916 0.78036 0.181234 -4 -2 -2 
8008 6 0.765572 0.807435 0.166956 -1 -4 1 
5836 6 0.844791 0.81805 0.159064 -3 -3 -1 
5757 6 0.140101 0.759885 0.203978 -2 1 1 
7567 5 0.296412 0.769584 0.166993 -2 2 0 
6786 6 0.0431249 0.844599 0.210925 2 -3 1 
6944 5 0.381675 0.851968 0.151048 -2 -1 -4 
8742 5 0.235306 0.886233 0.164476 -5 0 1 
6508 6 0.229223 0.888298 0.180301 1 0 -2 
8347 6 0.481062 0.881295 0.158579 2 -1 -2 
6391 6 0.00206917 0.908923 0.200338 -1 -1 -2 
7107 6 0.0285287 0.919909 0.149231 5 -7 2 
7113 5 0.162732 0.882593 0.163608 -5 0 0 
6609 6 0.445805 0.926675 0.14718 -5 -1 3 
8794 6 0.618612 0.908086 0.178286 3 -7 -2 
5754 5 0.0901833 0.931394 0.151374 -1 2 -2 
5864 6 0.156937 0.941294 0.1684 2 -6 -2 
6534 6 0.22215 0.929689 0.198565 -1 2 -1 
5073 6 0.72618 0.964154 0.153266 0 1 3 
5254 5 0.413766 0.0166564 0.165679 0 -4 3 
5885 6 0.704489 0.99469 0.179476 -8 0 6 
8719 6 0.00464541 0.990402 0.196232 -3 -4 -1 
6696 6 0.767241 0.017332 0.248269 -3 -5 -1 
7428 6 0.725441 0.0537824 0.161171 -1 1 -3 
6641 5 0.971537 0.0528307 0.206116 -3 -5 -1 
5461 5 0.18512 0.0505326 0.211517 -1 0 -3 
5915 5 0.460129 0.0714389 0.223673 2 -1 2 
6294 6 0.491069 0.102395 0.209963 5 4 -2 
7578 6 0.73644 0.0984382 0.192842 -3 1 3 
5352 6 0.766177 0.0636308 0.174858 1 4 4 
5343 5 0.434551 0.115216 0.159872 4 2 1 
5910 5 0.725327 0.0941062 0.168677 0 -2 1 
5385 5 0.842023 0.100586 0.209865 2 1 -6 
5251 5 0.136192 0.109193 0.178648 -2 0 -3 
8410 5 0.513222 0.148201 0.158515 0 -1 1 
5928 5 0.0770026 0.203061 0.157716 2 1 -4 
5119 5 0.553291 0.159981 0.198203 0 -6 3 
7677 5 0.81149 0.168356 0.20703 2 -1 -1 
5888 6 0.811554 0.132459 0.15426 1 -3 2 
7519 6 0.889459 0.179363 0.205222 0 -3 0 
5252 5 0.0913595 0.22114 0.208149 1 4 4 
6746 5 0.849973 0.221437 0.206876 6 -4 3 
8063 6 0.927326 0.207576 0.22615 -2 2 -1 
7756 5 0.105216 0.24072 0.184108 1 -3 6 
7783 5 0.583677 0.227102 0.197224 -2 0 -2 
6001 6 0.0631668 0.195912 0.208796 1 2 1 
6850 5 0.220515 0.300121 0.197733 -2 2 0 
6633 5 0.823842 0.331412 0.204762 0 3 -2 
8094 5 0.953978 0.294637 0.197719 -1 3 -4 
6069 6 0.973039 0.319124 0.17682 -1 7 0 
8952 5 0.960745 0.305956 0.152058 2 3 -1 
5063 6 0.0200604 0.314591 0.166831 -3 2 -1 
7934 6 0.336988 0.30405 0.207961 -2 -5 -3 
5582 5 0.210001 0.366453 0.145993 4 -2 -5 
7816 5 0.654598 0.396348 0.218741 1 4 0 
8642 6 0.0299761 0.403073 0.139806 0 1 4 
7518 6 0.131171 0.376335 0.242271 -1 1 -2 
6165 5 0.14696 0.375771 0.194483 1 -2 -4 
6352 6 0.532643 0.430387 0.170547 -1 1 -2 
7050 6 0.128779 0.461311 0.168045 1 4 0 
7340 6 0.297492 0.478471 0.199778 1 -1 5 
8430 6 0.192194 0.4352 0.188982 3 1 0 
5047 6 0.309077 0.486865 0.245562 -4 -4 4 
5372 6 0.541723 0.466016 0.182885 4 -1 2 