ITEM: TIMESTEP
20000000
ITEM: NUMBER OF ATOMS
9000
ITEM: BOX BOUNDS pp pp pp
-75 75
-75 75
-75 75
ITEM: ATOMS id type xs ys zs ix iy iz 
6187 5 0.948302 0.0196847 0.0230829 -2 -3 -1 
5483 6 0.586207 1.00006 -0.000240191 2 2 3 
8623 6 0.770682 0.0255312 0.0512809 -5 -2 -2 
6061 5 0.946953 0.0259042 0.975739 3 2 -3 
7791 6 0.00842295 0.0307719 0.990832 2 3 -2 
8346 6 0.0589961 0.032845 0.00933211 3 -3 -6 
7647 6 0.135984 0.0688005 0.988537 0 1 -2 
7172 6 0.259082 0.0733717 -0.00324882 4 -2 -6 
6082 6 0.452993 0.0409256 0.00545905 3 -1 9 
6240 5 0.575555 0.0899072 0.991455 5 -2 -2 
7565 6 0.570162 0.109673 0.992849 7 -2 -1 
8372 5 0.758879 0.0804562 0.015222 2 -3 -1 
6052 5 0.251912 0.090421 0.0432074 2 1 0 
7570 6 0.518843 0.13872 0.0300772 -1 1 1 
6000 5 0.794421 0.118591 0.018184 -10 3 1 
5474 5 0.98643 0.170046 0.0111208 3 4 -3 
5111 6 0.12672 0.1809 0.031343 -4 0 -1 
7338 6 0.523239 0.182929 0.991298 -3 0 -3 
7833 5 0.601609 0.144163 0.0349277 -1 2 2 
6873 6 0.0196469 0.196179 0.0305683 3 1 -2 
5683 6 0.406148 0.220741 0.959891 7 -1 -3 
5576 6 0.577696 0.235933 0.989556 3 0 -1 
7912 6 0.713539 0.234779 0.0118778 -4 -3 -1 
5974 5 0.0732288 0.242759 0.0141289 -2 3 3 
8077 5 0.0607026 0.257891 0.96717 0 5 -4 
5908 6 0.358668 0.239675 -0.00208847 -5 1 4 
7765 6 0.310384 0.297462 0.0372701 -3 5 -1 
8646 6 0.775599 0.272359 0.996935 6 -3 -1 
5737 5 0.889003 0.329046 0.0365077 0 -1 2 
7657 6 0.186652 0.365164 0.0151511 -2 -1 3 
8133 6 0.189787 0.274718 0.0124635 1 3 -1 
8404 5 0.220627 0.312932 0.0146217 -2 0 0 
6277 6 0.437901 0.30894 0.0142211 2 1 -3 
6887 5 0.923437 0.331354 0.00459659 -3 0 1 
8447 5 0.883282 0.401412 0.00412025 -5 1 -5 
5632 6 0.257848 0.365747 0.969727 -3 -2 -1 
8085 5 0.345154 0.388073 0.00356656 -1 -1 2 
7734 5 0.697793 0.374469 0.972983 -4 -4 1 
8527 5 0.657484 0.39738 0.0195348 1 -4 3 
8281 5 0.208764 0.409437 0.989949 -3 -2 8 
8928 6 0.236389 0.421347 0.0239256 -4 0 -1 
8670 6 0.930915 0.408624 0.000314391 -1 3 6 
8601 6 0.173439 0.433569 0.00377221 -2 0 5 
6775 5 0.414122 0.393832 0.0443652 -1 -2 3 
5564 5 0.436659 0.447535 0.00997149 -5 -1 3 
7772 6 0.734941 0.44731 0.0259929 0 1 1 
6575 6 0.770314 0.440163 0.988144 1 -4 -2 
8129 5 0.96767 0.4601 0.0383793 1 0 1 
5807 6 0.998066 0.473032 0.00673453 2 2 2 
5896 6 0.197184 0.557599 0.0327889 2 -4 0 
5109 5 0.293796 0.52952 0.991816 1 -2 0 
6457 6 0.100166 0.527537 0.959038 1 -1 -3 
5870 5 0.745426 0.553608 0.0358474 2 0 1 
7476 5 0.0851219 0.676367 0.991787 -1 2 -1 
5830 5 0.321208 0.668766 0.0109944 -2 0 -3 
7463 6 0.459413 0.681941 0.0292101 -6 -2 1 
8615 6 0.610178 0.658526 0.00615225 1 1 2 
5461 6 0.224578 0.650906 0.0550422 4 -3 2 
7996 5 0.599421 0.726694 0.0418815 4 1 4 
7670 5 0.740994 0.73605 0.985771 5 0 -3 
8291 5 0.94671 0.703893 0.995592 -1 0 3 
8540 5 0.565969 0.724528 0.99117 0 0 1 
8031 6 0.540802 0.755019 0.00402968 -3 -2 -3 
8979 6 0.610287 0.813319 0.971753 -4 -3 2 
7212 6 0.322112 0.801914 0.0210882 -1 -1 -6 
8881 6 0.574381 0.750683 0.0419194 2 -4 0 
8332 6 0.917352 0.812939 0.0404311 -2 -2 -4 
5827 6 0.840964 0.841092 0.0551602 0 0 -2 
5873 5 0.00598083 0.828352 0.00456071 -1 2 3 
5846 6 0.85579 0.855691 0.994641 2 -1 -3 
8442 6 0.960413 0.936665 0.995191 -2 -2 5 
6170 5 0.248025 0.949516 0.00782624 -1 -5 3 
7582 5 0.249963 0.896817 0.966596 -1 2 5 
5185 5 0.648331 0.932717 0.00898016 0 -5 0 
7143 5 0.743877 0.940728 0.0543565 1 1 2 
5680 5 0.768441 0.895182 1.00227 -2 -1 -5 
6125 6 0.963925 0.947498 0.00772655 4 -1 3 
8426 5 0.260555 0.925238 0.00358157 -1 -2 -1 
8300 6 0.74812 0.938607 0.0385239 -2 5 3 
7446 6 0.325729 0.979698 0.015038 0 -1 -1 
7774 5 0.606307 0.97622 0.0254082 -2 -4 0 
5710 6 0.0209793 0.970455 0.992527 1 -3 -2 
5945 6 0.564024 0.0109542 0.0198716 -1 -4 -2 
6880 5 0.193491 0.0193453 0.99633 4 -2 1 
8408 6 0.343137 0.0291557 0.0585335 0 -1 -1 
7629 5 0.228668 0.059496 0.0353539 4 -1 0 
6247 5 0.932787 0.0539293 0.0326926 -3 -3 4 
7080 5 0.166793 0.0346813 0.0057827 2 -1 3 
5345 5 0.72165 0.0476529 0.0424804 -3 0 -1 
8055 6 0.572828 0.145414 0.0403506 -4 0 -4 
7650 5 0.603321 0.0996084 0.0200451 1 3 -2 
5535 5 0.522375 0.163052 0.0657193 3 0 3 
6827 5 0.959981 0.162621 0.0668453 -1 2 -5 
7543 6 0.66908 0.211604 0.08049 4 0 2 
6006 5 0.0740827 0.179761 0.0443151 4 -3 0 
6990 5 0.148513 0.222597 0.0475752 0 2 0 
7043 5 0.141402 0.214029 0.0298622 -1 0 1 
5082 6 0.985473 0.203652 0.0670585 -3 -3 1 
7683 5 0.0861705 0.20061 0.0336551 -1 -1 -3 
5453 5 0.480105 0.23313 0.0428255 6 -3 5 
7484 6 0.773424 0.30837 0.0424836 0 3 2 
5463 5 0.272044 0.299637 0.0410498 -5 -5 3 
8514 6 0.541117 0.298291 0.0267205 2 -3 3 
5177 5 0.105013 0.290945 0.0391034 2 0 -1 
8984 5 0.20223 0.333492 0.023021 1 -5 5 
8117 5 0.471711 0.265493 0.061482 -2 -4 0 
5516 6 0.369348 0.36727 0.0644022 5 0 0 
7234 6 0.509201 0.348974 0.0539715 -2 -2 -1 
8587 6 0.0562037 0.371204 0.0628642 6 -1 -1 
8681 6 0.606645 0.392574 0.0448408 -5 -2 -3 
7350 6 0.00880419 0.441981 0.0562659 -1 3 -1 
6386 5 0.318045 0.417203 0.0561711 -1 -1 5 
5923 6 0.401948 0.404631 0.0467187 -1 1 -2 
8679 6 0.547823 0.477085 0.027132 -4 -3 -2 
7627 5 0.276292 0.524188 0.056947 -2 0 -1 
6128 5 0.0318355 0.542008 0.0294746 -1 0 4 
5708 5 0.131263 0.545842 0.0444431 -1 -2 3 
7578 5 0.513343 0.542414 0.0495092 0 -1 -1 
6163 6 0.588951 0.561078 0.0260772 -4 3 -2 
6451 5 0.620296 0.581706 0.0656759 -1 -2 -4 
7842 5 0.585818 0.558084 0.0384314 1 -1 0 
5338 6 0.25699 0.532792 0.0221811 -1 -1 4 
5897 5 0.402805 0.554455 0.0436247 4 0 -1 
6499 6 0.993134 0.577006 0.0191261 -6 3 5 
8202 5 0.116848 0.626332 0.0466479 0 0 -2 
6058 6 0.564504 0.575164 0.997183 1 4 0 
8285 5 0.100784 0.58993 0.0497307 -5 1 -1 
8029 6 0.764136 0.628812 0.0475877 2 -3 -4 
5800 6 0.180203 0.649794 0.0537846 -3 6 0 
5543 5 0.491564 0.614255 0.0196136 -1 1 -1 
8088 6 0.580042 0.614991 0.0627357 5 2 -1 
8136 5 0.666986 0.595398 0.991258 1 -3 1 
7864 5 0.66317 0.670052 0.0427871 0 5 1 
7814 6 0.52592 0.697619 0.0332159 -1 0 3 
8941 5 0.0565115 0.725459 0.0452589 -1 2 0 
5824 5 0.898731 0.725442 -0.00314552 -6 0 -2 
5637 6 0.195928 0.724255 0.0157919 0 -5 1 
8753 6 0.96034 0.772503 0.0213262 -6 1 4 
7367 6 0.939538 0.715689 0.00493027 5 3 -4 
8095 5 0.336554 0.837686 0.0446965 7 0 2 
8856 5 0.686107 0.846991 -0.000137272 -5 2 1 
6259 5 0.707427 0.797528 0.0193402 -2 -3 -2 
7413 5 0.395547 0.857668 0.0215143 -5 -1 5 
7387 6 0.440345 0.862943 0.0433815 1 -4 -1 
7056 5 0.605425 0.848214 0.985283 0 0 0 
5909 6 0.322122 0.850545 0.0387391 1 4 -3 
6786 5 0.139564 0.938028 0.0173476 -1 0 -3 
6885 5 0.299483 0.919518 0.0503378 -2 -2 1 
7289 6 0.520766 0.929819 0.0364743 1 1 -1 
5015 5 0.161157 0.935082 0.0509649 0 2 -3 
6382 6 0.0584928 0.972293 0.0627739 -1 -5 3 
6372 5 0.672383 0.970689 0.0482821 1 1 -1 
8283 5 0.609424 0.0234724 0.0213617 2 -1 -3 
7271 6 0.490855 0.999453 0.024964 4 -3 2 
5843 6 0.824034 0.0143313 0.0411111 2 4 0 
5975 5 0.297888 0.0261817 0.0827098 -3 3 0 
7988 5 0.708738 0.0289293 0.0779396 -1 -3 5 
5253 6 0.028652 0.0685934 0.0710586 4 4 3 
8005 6 0.578412 0.0169183 0.057633 3 3 1 
5629 6 0.83495 0.0425523 0.0711867 2 -4 0 
5696 5 0.0317401 0.0846713 0.0869562 3 2 1 
8078 5 0.37983 0.0769039 0.0695503 -2 1 -1 
7666 5 0.846946 0.0347364 0.0251155 -4 3 3 
7736 5 0.92249 0.0579504 0.00692998 1 7 4 
7883 5 0.545049 0.0991442 0.0593987 1 5 5 
5115 6 0.624279 0.116671 0.0467404 -1 2 2 
7839 5 0.0825666 0.0991694 0.0457862 10 0 1 
5054 6 0.263757 0.149791 0.0465957 3 3 1 
8224 6 0.428131 0.174174 0.0671748 -3 5 -2 
8417 5 0.2959 0.192462 0.0546285 4 1 5 
5699 5 0.0555794 0.278396 0.05384 -4 0 -1 
7488 6 0.346216 0.254478 0.0512147 -3 2 -4 
7226 6 0.661224 0.271635 0.0587898 -2 -2 -1 
7203 6 0.122705 0.289626 0.034034 -1 3 -8 
8627 6 0.31512 0.301818 0.0260733 0 -2 0 
8216 6 0.636542 0.248384 0.0680454 5 0 0 
6774 5 0.0728281 0.303487 0.0714939 -2 -1 1 
7351 6 0.457251 0.279834 0.068283 -1 -1 2 
7325 5 0.846322 0.329535 0.070807 -1 -1 0 
7249 6 0.366163 0.306452 0.0720048 1 0 -1 
8387 5 0.662213 0.356244 0.0466623 -1 -2 1 
5954 6 0.726487 0.300393 0.0968881 -3 -1 4 
8794 6 0.783625 0.35824 0.0606575 -4 2 -4 
5509 6 0.263411 0.403719 0.0879497 -5 -5 -4 
5443 6 0.319522 0.373537 0.0751104 -3 5 -3 
8996 5 0.52875 0.355525 0.024484 2 -2 3 
8230 6 0.0652459 0.451304 0.0812584 -3 -3 -2 
7459 5 0.168655 0.434722 0.0547916 -3 -3 -4 
8700 6 0.878454 0.453384 0.0763892 -3 7 1 
8729 6 0.840597 0.443248 0.0770623 6 2 -1 
8847 5 0.415745 0.492118 0.0921797 -2 -5 0 
8555 6 0.291781 0.484894 0.0812469 4 0 5 
8362 5 0.760624 0.5162 0.0276328 -1 1 4 
5874 5 0.860039 0.516738 0.0404734 -6 1 -3 
7018 6 0.0767644 0.557643 0.0502204 0 2 1 
7618 6 0.268158 0.541386 0.0310571 -1 0 5 
8781 5 0.978549 0.575304 0.0609539 -1 -5 0 
5627 6 0.149473 0.584874 0.0676931 4 3 3 
8845 5 0.407054 0.591331 0.0439101 0 -1 -6 
7184 5 0.377264 0.61612 0.115766 -2 -2 2 
7787 5 0.839726 0.624903 0.0470961 2 0 -1 
6344 6 0.52151 0.666764 0.050222 -2 1 -1 
8059 5 0.877394 0.667819 0.0334744 0 7 3 
7110 6 0.359919 0.709747 0.0469018 -1 -2 3 
8876 5 0.885961 0.692492 0.0470734 0 -2 1 
6119 5 0.00705039 0.699199 0.0537045 4 1 -1 
8904 6 0.318236 0.701332 0.0594749 -1 0 -3 
7141 6 0.981468 0.730512 0.0387842 -2 5 0 
7706 5 0.6154 0.712392 0.0535351 -1 4 -1 
5985 6 0.690708 0.754461 0.0683619 -4 0 3 
8130 6 0.727848 0.735461 0.0607827 3 -1 -2 
6465 6 0.110575 0.71587 0.0274247 4 -4 -1 
8258 5 0.227757 0.739953 0.0488944 -2 -3 5 
8543 5 0.605099 0.75445 0.0549679 -5 -2 -2 
6670 5 0.642719 0.840345 0.0579152 -2 0 5 
6733 6 0.090074 0.811341 0.0560674 -4 -3 3 
8010 5 0.601088 0.833465 0.0440863 1 3 -2 
8323 5 0.327296 0.875988 0.0560066 2 -4 7 
7435 5 0.971768 0.85215 0.0638368 0 -1 3 
6859 5 0.579177 0.850768 0.0488103 3 -5 4 
8815 6 0.301869 0.908598 0.048825 3 -3 3 
7711 6 0.497893 0.897143 0.0340679 1 -7 4 
5265 6 0.819514 0.89019 0.0685791 0 -1 -4 
7775 6 0.875636 0.930527 0.0319448 3 1 2 
6432 5 0.0497772 0.912431 0.0459102 0 -2 0 
5962 6 0.927142 0.955311 0.0738866 4 -2 -6 
6175 5 0.151041 0.969146 0.0348722 -1 -2 8 
7866 5 0.201972 0.953742 0.0853423 0 4 2 
6725 5 0.681951 0.909376 0.0691487 -1 1 -1 
5815 5 0.789899 0.923518 0.0769724 4 3 -5 
8182 5 0.975789 0.927648 0.0522144 1 -1 0 
7311 5 0.0652266 1.00455 0.0453685 4 4 4 
7547 5 0.605293 0.0317488 0.0741585 -4 -1 0 
7597 6 0.693798 0.0106148 0.0493985 -2 5 -5 
6721 5 0.552266 0.13313 0.11283 1 -4 0 
6714 6 0.739101 0.113285 0.0823883 0 -1 5 
6121 5 0.051279 0.130272 0.0924695 0 0 3 
7602 5 0.727123 0.115874 0.0754322 1 5 7 
7906 6 0.942003 0.11027 0.0901485 2 1 5 
6665 5 0.0574496 0.124281 0.058096 1 -2 2 
8524 6 0.85139 0.208893 0.113316 3 4 2 
8751 6 0.458361 0.222801 0.0786964 1 -4 1 
6302 6 0.964976 0.226654 0.0982395 1 -3 0 
5725 5 0.405166 0.256684 0.0372099 3 4 3 
5681 5 0.628006 0.188808 0.086069 -1 -6 -1 
6773 6 0.681111 0.219537 0.0575438 -3 1 -1 
5316 5 0.479009 0.294791 0.0266913 7 1 7 
7091 5 0.257346 0.271558 0.0999797 -3 -7 4 
6517 5 0.446014 0.285957 0.0552388 1 -3 3 
8786 6 0.686242 0.322719 0.0745596 -3 1 1 
7867 5 0.0378522 0.321214 0.0628894 0 -3 7 
6989 5 0.208001 0.322903 0.0667761 1 3 10 
5913 6 0.677137 0.317123 0.0839857 -1 2 0 
7790 6 0.86646 0.383768 0.0581646 -6 5 -3 
8068 6 0.28895 0.389269 0.102013 -2 -2 2 
8558 6 0.578354 0.364935 0.059998 3 5 0 
5170 6 0.181672 0.400851 0.0848275 7 3 -6 
8194 5 0.798779 0.397625 0.100806 -2 5 1 
7635 6 0.169705 0.395262 0.103064 0 0 0 
5357 5 0.501046 0.391244 0.0894724 2 -2 3 
6141 5 0.637327 0.426493 0.0815029 -2 4 2 
8763 6 0.7481 0.455456 0.068504 1 6 -1 
5154 5 0.779106 0.449871 0.0727955 3 -4 0 
6628 5 0.157773 0.452011 0.107193 -2 -3 -6 
7139 6 0.478856 0.459678 0.0557979 -3 1 -3 
5993 6 0.45286 0.499427 0.0798538 0 1 1 
7770 6 0.879178 0.535102 0.114243 0 1 3 
5842 5 0.991604 0.51426 0.1185 -5 -1 3 
7452 6 0.352394 0.589482 0.113309 -2 -2 2 
6550 6 0.457033 0.533326 0.115367 -1 -1 -4 
5533 6 0.311537 0.585868 0.0676462 1 -1 -1 
6925 6 0.385104 0.575614 0.100602 2 -4 6 
7437 5 0.75087 0.601466 0.068798 4 -2 0 
8575 5 0.665954 0.567794 0.0832061 6 1 0 
7304 6 0.851892 0.59975 0.0465345 -3 -2 1 
7346 6 0.890755 0.596914 0.0904061 2 -3 3 
6631 5 0.119149 0.629108 0.106573 5 7 2 
7264 6 0.142769 0.607497 0.0374237 -2 -1 -1 
7053 5 0.131426 0.646162 0.0939911 3 1 -6 
6199 6 0.188045 0.662155 0.0482341 1 -4 1 
6330 6 0.652921 0.613631 0.0388621 1 -4 0 
7817 5 0.762818 0.642139 0.0787837 -3 4 0 
5491 5 0.221204 0.704115 0.0795945 5 -2 -3 
8322 6 0.335621 0.691776 0.0671421 3 0 4 
5023 6 0.910123 0.724528 0.0783819 5 -1 6 
8596 6 0.098813 0.75918 0.0884247 1 -4 -1 
6406 5 0.2191 0.708813 0.0938316 0 2 5 
8638 5 0.305247 0.712928 0.0607696 2 -3 -3 
5366 6 0.680348 0.70438 0.0717308 1 0 2 
6442 6 0.359196 0.725071 0.0785205 -1 -3 -2 
8250 6 0.527626 0.741122 0.0559856 0 4 -5 
7169 5 0.537691 0.735697 0.02919 0 6 -4 
5721 5 0.68181 0.743399 0.0445301 5 3 5 
7872 5 0.0142716 0.79306 0.0854348 5 0 -5 
5276 6 0.198937 0.778127 0.0598283 -2 2 -1 
8154 6 0.103884 0.826943 0.106726 2 0 -3 
8340 6 0.805499 0.837903 0.0877362 2 2 4 
6032 6 0.835277 0.845747 0.0747508 0 1 -1 
5624 5 0.0509501 0.875847 0.0701978 3 -2 -3 
8931 6 0.151728 0.904605 0.094094 4 2 2 
8480 5 0.177708 0.933973 0.0710704 4 3 3 
6909 5 0.0402021 0.920711 0.05524 0 -5 -2 
8432 6 0.922275 0.00715026 0.0951221 1 -1 0 
6794 5 0.670748 0.944304 0.0762865 0 6 3 
6798 6 0.1082 0.0217308 0.0749486 2 5 1 
8044 5 0.938143 0.956659 0.0927855 0 -3 -2 
5765 6 0.923832 0.0426082 0.121729 4 0 -6 
7630 6 0.786348 0.1286 0.134622 -2 4 2 
7228 5 0.0231237 0.133029 0.10039 -4 3 2 
7079 5 0.077052 0.116795 0.0753566 -5 -1 3 
8310 5 0.171962 0.159403 0.115562 1 -2 2 
8595 6 0.179986 0.151817 0.114955 2 2 -1 
7122 5 0.567697 0.12851 0.119433 2 -2 2 
6622 5 0.666915 0.238277 0.0810529 4 -1 0 
8199 6 0.668216 0.211006 0.11522 -1 -1 -2 
6142 6 0.779639 0.239763 0.0989057 2 10 -3 
7783 5 0.590656 0.304576 0.137033 -1 -4 -4 
7430 6 0.889632 0.247301 0.132681 -1 -2 -3 
7063 6 0.46521 0.291024 0.122569 2 3 0 
6695 6 0.817038 0.285093 0.0795075 2 3 2 
5512 5 0.0473508 0.277152 0.0982899 6 3 -2 
8343 5 0.714241 0.340385 0.0994329 -3 2 -4 
7655 5 0.0291029 0.347784 0.0952161 3 4 3 
8561 6 0.0063284 0.36504 0.1263 -1 -3 2 
7279 5 0.678213 0.381803 0.142587 1 4 -4 
8777 6 0.829055 0.320937 0.102207 -2 -3 2 
6094 5 0.194767 0.385231 0.0933079 -2 2 1 
7107 5 0.472291 0.402842 0.113063 -2 0 4 
6111 6 0.987564 0.372886 0.0996189 3 0 -1 
8116 5 0.976386 0.396929 0.119323 -2 0 1 
8359 5 0.00404842 0.412102 0.137713 4 3 1 
7062 6 0.952797 0.45144 0.0779899 -1 -4 3 
8191 5 0.482538 0.454545 0.092711 -3 1 5 
7853 6 0.425097 0.466717 0.0712501 -3 1 3 
8705 6 0.475478 0.494896 0.0844838 -2 6 0 
8155 6 0.374904 0.494109 0.0848878 0 0 -4 
8612 6 0.442884 0.486327 0.113699 2 0 0 
8027 6 0.955724 0.460635 0.109045 -1 -1 2 
5988 5 0.381256 0.498402 0.120674 1 4 0 
6944 5 0.607775 0.525457 0.111706 2 1 0 
7244 6 0.693202 0.509898 0.123686 -2 -2 -3 
5570 5 0.737424 0.519127 0.148084 0 -1 3 
6819 5 0.0164673 0.557946 0.110486 0 -3 0 
7648 5 0.931724 0.526515 0.0870312 0 0 0 
5937 5 0.965788 0.555317 0.117993 0 -2 1 
5743 5 0.986431 0.550219 0.0959871 -4 1 7 
7560 6 0.761885 0.556684 0.112143 0 6 0 
7802 6 0.369033 0.581537 0.111557 -1 3 -1 
6340 5 0.822907 0.57826 0.147522 1 2 -2 
8877 5 0.426013 0.597438 0.088516 2 -1 0 
8259 5 0.538315 0.577794 0.133324 -2 -3 -2 
7503 5 0.632856 0.570446 0.0974934 -4 3 4 
6026 6 0.76388 0.606182 0.0649712 1 4 -1 
7398 5 0.162773 0.646763 0.0978731 -2 -2 -8 
7923 5 0.428823 0.627277 0.108048 2 -3 2 
8490 5 0.499786 0.635354 0.15643 5 1 -2 
6664 6 0.224524 0.670031 0.0950406 3 -4 -3 
8598 6 0.590399 0.679924 0.103375 -3 2 2 
5132 5 0.629657 0.641961 0.0812956 4 0 2 
8718 6 0.922517 0.68814 0.0794465 -6 -1 2 
8873 5 0.643269 0.712851 0.0912388 -1 0 0 
7102 5 0.838987 0.70026 0.0564825 -6 -2 0 
6735 5 0.940181 0.706988 0.0929808 -1 -1 0 
8079 5 0.290631 0.723764 0.136246 0 3 4 
8724 6 0.595223 0.72688 0.0705834 -3 -1 -3 
7230 5 0.709553 0.701202 0.159465 1 -4 1 
8913 6 0.980825 0.769103 0.0782686 0 -3 4 
7526 6 0.940073 0.744563 0.102712 -1 -1 -2 
8369 6 0.958426 0.816979 0.11964 3 0 1 
8445 6 0.104743 0.843321 0.114969 6 5 -3 
8048 5 0.632614 0.827266 0.112243 -6 -1 2 
8660 5 0.0121301 0.866765 0.0932353 3 4 -2 
7119 5 0.0684316 0.898503 0.0818135 5 0 -4 
8424 5 0.456899 0.876538 0.0941807 -1 2 1 
7748 6 0.74439 0.871439 0.0948993 3 -1 -2 
7449 5 0.247019 0.919291 0.0827869 -1 2 -4 
6508 5 0.299618 0.882837 0.0812629 4 -1 3 
8439 5 0.334507 0.906115 0.0703221 -2 0 1 
6840 5 0.409995 0.953871 0.101211 -1 -3 -4 
8967 6 0.951134 0.998913 0.0926415 -6 -3 -2 
8732 5 0.937045 0.978548 0.09318 0 2 0 
6667 6 0.0258212 0.974815 0.0978526 6 3 2 
7277 5 0.414457 0.993949 0.0899107 4 3 7 
6846 6 0.551579 0.995005 0.129801 -8 6 1 
7247 6 0.4239 0.996766 0.125273 -4 -1 -4 
5891 6 0.747714 0.0368304 0.135251 0 6 1 
7394 5 0.192247 0.053177 0.150678 4 2 1 
5376 5 0.404025 0.0588347 0.142943 4 4 2 
7993 6 0.950796 0.0689582 0.111309 -1 5 0 
6525 5 0.152263 0.0714015 0.0687758 0 0 4 
7611 6 0.240521 0.052142 0.101985 3 -4 5 
8680 5 0.723918 0.0681456 0.10189 -2 5 -1 
6977 5 0.943997 0.091175 0.124529 1 2 2 
6704 6 0.856086 0.117335 0.079275 -4 1 -2 
8302 6 0.212355 0.103463 0.170271 -1 -4 2 
8823 6 0.640552 0.142905 0.213097 5 3 -3 
6868 5 0.29691 0.163999 0.126447 0 0 2 
7580 5 0.488501 0.131563 0.136464 2 0 1 
7493 6 0.205737 0.173486 0.104041 -3 -2 -1 
5674 6 0.652054 0.212324 0.12344 0 -3 -1 
5829 6 0.860254 0.254351 0.140994 1 3 1 
8446 6 0.612962 0.268419 0.125112 -4 0 2 
7961 5 0.697477 0.244583 0.106849 1 3 -2 
7100 5 0.719992 0.291664 0.131321 -2 3 4 
8762 5 0.749009 0.278948 0.157397 1 -2 7 
6367 5 0.245151 0.299035 0.126435 6 -5 -2 
8053 5 0.374953 0.351372 0.136682 2 1 -3 
5487 5 0.567851 0.313294 0.151734 -1 0 0 
8132 5 0.014389 0.397374 0.0955008 0 -4 0 
7382 6 0.585745 0.352902 0.0749935 -4 -8 0 
5633 6 0.639302 0.400432 0.132533 -5 -4 3 
8438 5 0.0884891 0.375593 0.127717 1 -1 3 
6368 5 0.427382 0.413239 0.0911491 1 2 0 
5955 6 0.329735 0.455841 0.136081 5 1 2 
6738 6 0.584551 0.419073 0.114625 0 2 0 
8704 6 0.221745 0.472107 0.119329 -4 0 -5 
8254 6 0.841474 0.506719 0.149378 -1 -5 3 
7105 6 0.483149 0.490625 0.144655 7 2 -3 
5599 6 0.63288 0.507646 0.181888 3 5 1 
5071 6 0.0536032 0.495595 0.127914 0 0 -3 
5579 6 0.727409 0.504392 0.0901276 -4 1 4 
6564 6 0.7708 0.477834 0.147213 -1 9 -2 
7571 6 0.616327 0.518037 0.071819 -2 4 1 
7882 6 0.848772 0.519932 0.131487 1 -1 -2 
6286 6 0.904855 0.528695 0.138398 -6 -2 0 
7532 6 0.291358 0.591649 0.106675 2 -3 -1 
5430 5 0.308432 0.571416 0.144479 1 -2 3 
8526 5 0.988303 0.56588 0.144107 -2 -1 6 
7964 5 0.4357 0.573145 0.0950348 -3 1 6 
5751 5 0.227971 0.627306 0.136359 -1 -2 2 
8158 6 0.501267 0.64371 0.133279 0 3 3 
6182 6 0.587766 0.723282 0.120758 1 0 -3 
7998 5 0.679618 0.642932 0.108769 3 2 5 
5502 6 0.792089 0.647733 0.097552 -2 3 1 
6660 6 0.58184 0.697502 0.138484 0 -2 -2 
8609 6 0.931748 0.701314 0.104756 -3 3 2 
8186 5 0.221663 0.676881 0.112822 6 -3 -6 
6110 5 0.538741 0.757112 0.130919 0 1 1 
6717 5 0.0469128 0.764313 0.124131 1 -1 0 
8542 5 0.683603 0.744024 0.0849738 -3 -2 5 
8576 6 0.657466 0.74686 0.11954 1 1 0 
5882 6 0.886783 0.73711 0.130204 -3 0 1 
6818 6 0.715917 0.78682 0.128632 1 4 3 
6469 5 0.818367 0.748424 0.133251 2 -2 6 
8195 5 0.379519 0.8043 0.0847804 0 3 0 
5755 6 0.435142 0.783619 0.112632 1 0 3 
7688 6 0.90023 0.772989 0.15723 -2 2 0 
6269 5 0.128341 0.849273 0.103832 1 1 2 
6896 5 0.432556 0.827504 0.164827 0 3 1 
6936 6 0.615202 0.833297 0.12352 2 1 -1 
5346 6 0.840453 0.86441 0.149901 1 5 -1 
6427 6 0.325316 0.88383 0.130207 -1 0 3 
5621 6 0.588559 0.882762 0.0852061 2 -4 2 
5811 6 0.798272 0.89335 0.0764531 1 3 -2 
5841 6 0.144835 0.918205 0.149018 -1 2 1 
7917 6 0.806815 0.945048 0.206343 0 2 2 
6562 6 0.939269 0.898958 0.117134 2 1 4 
7850 5 0.227179 0.948323 0.170102 2 -1 2 
7370 6 0.454758 0.925748 0.133166 -2 1 -3 
7011 5 0.512083 0.913776 0.148649 5 -2 -1 
5475 5 0.582506 0.940959 0.145055 0 -1 1 
5970 6 0.106689 0.959649 0.14044 2 -1 0 
5793 5 0.637147 0.979708 0.13663 -1 2 1 
5125 6 0.652935 0.979818 0.129965 -2 -1 -1 
8974 6 0.114466 0.025499 0.153549 -2 4 -1 
8671 6 0.229559 0.994148 0.121851 1 2 -4 
7073 5 0.110856 0.0491199 0.145149 2 -2 2 
5228 6 0.612368 0.0628394 0.146212 3 4 1 
8479 5 0.115964 0.0833869 0.153032 0 1 -1 
5646 6 0.368457 0.0848924 0.119831 5 1 2 
5610 5 0.405125 0.0712556 0.156269 2 4 0 
5283 5 0.860939 0.0464295 0.164029 -4 -1 3 
7789 6 0.0392922 0.0869391 0.173518 -2 4 0 
6845 5 0.102149 0.0837091 0.141136 7 1 -3 
7971 6 0.858668 0.0905625 0.164589 1 0 -2 
5183 6 0.763534 0.117583 0.152344 -2 0 6 
6399 6 0.35067 0.12386 0.140946 -4 1 3 
6583 5 0.412433 0.131355 0.145631 1 5 6 
6502 6 0.487281 0.144799 0.137348 3 2 0 
7175 5 0.0694779 0.133414 0.134036 0 3 0 
6388 5 0.8127 0.150475 0.146802 -3 -2 -7 
5592 5 0.29305 0.188185 0.177927 2 3 5 
7931 6 0.554305 0.219714 0.151071 -3 4 -4 
6871 6 0.509368 0.245909 0.137115 0 -5 5 
6477 5 0.304423 0.253383 0.171877 -2 -1 3 
8403 5 0.586608 0.260658 0.183217 0 -3 -2 
8658 5 0.579844 0.292807 0.176066 2 3 1 
7642 5 0.686283 0.26478 0.165904 1 2 -1 
8351 5 0.673558 0.292587 0.134553 3 -2 5 
8651 6 0.74241 0.248845 0.129308 -5 -2 -1 
8855 5 0.0156498 0.363389 0.137404 0 6 6 
5848 5 0.690081 0.353186 0.109999 1 -1 -3 
5304 6 0.700551 0.380938 0.156248 -3 -1 6 
8000 5 0.931881 0.311808 0.143657 4 -5 -1 
5199 6 0.0638276 0.381577 0.15651 1 -2 -2 
5761 5 0.203 0.370099 0.154777 -3 -1 1 
6891 6 0.498861 0.372457 0.134211 -2 0 6 
8049 5 0.855123 0.381782 0.16724 1 -1 1 
5029 5 0.253408 0.41996 0.155527 -1 -1 5 
6663 6 0.513507 0.40216 0.140225 -1 -3 2 
8294 5 0.51903 0.430501 0.178687 0 2 -5 
6069 6 0.927396 0.391499 0.141547 -2 2 1 
6154 6 0.177772 0.451311 0.121304 5 -2 2 
6405 6 0.994341 0.458816 0.16522 -3 5 -2 
8699 5 0.0854997 0.460944 0.166344 -3 3 3 
6788 5 0.212421 0.468966 0.132569 2 2 6 
8251 6 0.502719 0.455003 0.122945 -1 3 0 
6751 6 0.646965 0.463542 0.109005 0 5 3 
7785 6 0.561806 0.455557 0.114335 2 0 -1 
5767 6 0.622153 0.476875 0.112755 0 -5 2 
5738 6 0.842776 0.479499 0.143035 0 -1 3 
7564 6 0.141865 0.52808 0.14369 -7 -5 -1 
6803 5 0.272605 0.515759 0.148727 -3 -5 -3 
5525 5 0.832816 0.503436 0.150028 -1 -1 0 
5586 6 0.019516 0.548941 0.151685 -4 -1 7 
8197 6 0.678307 0.564024 0.152679 -2 0 1 
7098 6 0.658386 0.536963 0.128807 2 1 1 
7049 6 0.827804 0.580436 0.174924 -3 -2 3 
6234 6 0.115287 0.604052 0.147402 3 -2 2 
7419 6 0.343577 0.579308 0.171233 -3 1 -1 
7918 6 0.361694 0.621353 0.134559 1 -2 -3 
8736 5 0.740026 0.54918 0.138175 -2 2 1 
6932 5 0.973725 0.603129 0.132216 3 -4 -5 
6346 6 0.473937 0.660074 0.150326 -1 0 -7 
5181 6 0.562017 0.661709 0.129884 -2 2 -2 
6739 6 0.662119 0.677888 0.16402 -5 1 -2 
7701 6 0.657681 0.672936 0.181894 -1 -4 2 
7968 6 0.857759 0.615283 0.128942 1 1 2 
5609 5 0.294486 0.692173 0.149871 0 3 -6 
8521 5 0.993703 0.683502 0.149694 2 6 0 
7474 5 0.0809477 0.727381 0.186866 -2 -2 0 
6173 5 0.381297 0.671493 0.141511 -5 0 4 
5386 6 0.530336 0.722332 0.161881 0 -5 4 
8690 5 0.809972 0.752063 0.140679 0 -6 -9 
5939 6 0.807096 0.710224 0.158304 0 2 3 
5222 5 0.878513 0.702067 0.18959 3 3 -1 
6223 6 0.546126 0.737092 0.116553 1 0 -2 
6544 6 0.708685 0.685573 0.134722 0 6 -1 
8611 5 0.660281 0.741336 0.171631 0 0 3 
8998 6 0.325207 0.751793 0.168184 3 2 -5 
5374 5 0.703782 0.773071 0.202875 -2 -4 1 
7633 6 0.388477 0.810036 0.11195 3 -3 -1 
7215 6 0.252431 0.809523 0.116975 3 0 -10 
8531 6 0.245505 0.80089 0.115207 4 -3 1 
5349 6 0.581573 0.847521 0.11672 -5 2 -3 
7408 5 0.0250437 0.790361 0.158623 0 -2 4 
8036 5 0.0737534 0.857261 0.13633 -1 1 -1 
7640 6 0.327365 0.828012 0.124054 0 3 2 
5458 6 0.351482 0.882286 0.126181 2 1 -1 
7831 6 0.574522 0.876213 0.14109 5 -8 3 
8822 6 0.0256434 0.897439 0.174428 -1 1 -1 
7303 5 0.0672293 0.920711 0.125311 -5 -4 1 
8725 5 0.367541 0.889871 0.143649 -5 -1 2 
6611 5 0.575031 0.86747 0.147317 -2 -1 -1 
5279 6 0.0915886 0.935901 0.168481 1 -1 -3 
7643 5 0.154625 -0.000966274 0.113796 -4 -4 3 
8833 6 0.178368 0.973757 0.190673 4 4 -5 
6137 5 0.592663 0.989191 0.126008 0 -1 2 
5555 6 0.133908 0.996798 0.159718 2 -2 -1 
6255 5 0.667496 0.0179566 0.19695 4 2 3 
5273 5 0.41642 0.0444041 0.168005 -2 -4 -1 
7393 6 0.20961 0.0830074 0.143142 2 -3 4 
7975 5 0.348014 0.0866497 0.188672 -1 1 -4 
7518 6 0.751415 0.0656429 0.196155 3 0 7 
6178 6 0.143232 0.148534 0.196318 0 -1 -4 
8912 5 0.256708 0.144421 0.179381 -1 -1 1 
5556 5 0.632379 0.152241 0.170263 3 -1 -2 
8915 5 0.709677 0.116493 0.178187 6 4 -2 
8563 6 0.938129 0.129522 0.207344 -3 1 3 
7190 6 0.182666 0.168167 0.157225 5 -3 4 
5164 6 0.982508 0.117338 0.178094 1 7 2 
5098 6 0.0290634 0.162161 0.179227 2 -3 2 
8440 6 0.271019 0.133173 0.19144 5 6 2 
7027 6 0.664517 0.157792 0.179158 -3 1 -1 
5130 6 0.722092 0.21532 0.200464 2 3 1 
5432 5 0.788917 0.196964 0.162191 -4 -1 2 
6421 6 0.320307 0.23344 0.191841 -1 1 1 
8193 6 0.341369 0.200289 0.170078 -1 0 4 
6805 5 0.45809 0.216793 0.170061 1 5 -2 
8421 5 0.522438 0.212056 0.192854 -4 2 -3 
6744 5 0.0556371 0.244375 0.152066 0 -2 -1 
5281 5 0.773126 0.251961 0.203016 -2 0 -2 
6426 6 0.751519 0.24429 0.19799 -2 -4 2 
8721 6 0.909358 0.259287 0.169927 6 0 0 
6515 6 0.0360849 0.302705 0.188049 7 0 0 
6216 5 0.241764 0.269417 0.167622 2 0 4 
8513 6 0.373804 0.328999 0.17759 -1 -2 2 
7689 5 0.1673 0.2852 0.192532 2 1 -2 
6503 5 0.279847 0.283612 0.18351 -1 -1 1 
6004 6 0.276968 0.308756 0.166387 -2 4 5 
6201 6 0.0937587 0.297935 0.184443 -2 -3 -2 
5700 6 0.221366 0.336599 0.179043 4 0 0 
5368 5 0.940721 0.320285 0.193499 0 0 -3 
5890 6 0.0716917 0.35121 0.186877 3 -3 -2 
6147 6 0.306722 0.369142 0.203512 0 1 -1 
6312 6 0.728055 0.410301 0.162566 0 -4 0 
6303 5 0.213724 0.372413 0.152145 4 -1 3 
5935 5 0.383364 0.4284 0.172691 0 4 5 
7207 6 0.216785 0.397811 0.176093 0 -1 -2 
7982 5 0.937872 0.440202 0.188983 -1 -1 -1 
6975 5 0.64633 0.466105 0.194948 -1 -3 1 
6333 5 0.648216 0.444989 0.189526 -1 -2 -2 
7332 6 0.606027 0.434983 0.167015 0 -4 2 
7447 5 0.687454 0.488202 0.162184 4 0 0 
5037 6 0.285086 0.521031 0.170392 -1 2 1 
7637 5 0.480955 0.477522 0.132222 -1 4 2 
7233 6 0.98387 0.480238 0.173743 -2 -1 1 
8819 5 0.265446 0.531929 0.124065 -3 1 0 
5131 6 0.0749423 0.571511 0.179692 3 -1 -5 
6692 5 0.56294 0.610516 0.191105 2 0 -2 
8958 5 0.718067 0.598776 0.182045 0 1 -2 
5810 6 0.0523268 0.633891 0.193745 -2 2 -2 
6832 6 0.154375 0.59293 0.182057 0 2 1 
7306 6 0.635173 0.618667 0.173636 2 -2 1 
8641 6 0.693622 0.602156 0.153519 -3 -1 0 
7286 5 0.877821 0.661442 0.152164 -2 2 3 
5306 6 0.0433197 0.676584 0.152527 -3 -2 -1 
8491 6 0.159645 0.640999 0.152109 -6 -6 -2 
8719 5 0.549973 0.629009 0.152906 2 -1 -3 
7425 6 0.616332 0.682501 0.155089 3 3 -5 
8921 5 0.913645 0.708619 0.140546 0 -1 -1 
6966 5 0.053363 0.701035 0.187227 2 4 -1 
6727 5 0.0203135 0.69071 0.18647 3 0 -3 
5687 5 0.376011 0.723082 0.139061 2 2 -1 
5863 5 0.0862614 0.751305 0.150728 1 4 2 
8655 5 0.52124 0.735564 0.200847 -2 -3 3 
5961 5 0.529373 0.737026 0.188613 -3 3 4 
8580 5 0.779948 0.750543 0.170405 -5 3 4 
8361 5 0.379866 0.763159 0.157037 1 -2 -1 
6252 5 0.0173854 0.786979 0.183204 -3 -5 1 
8952 5 0.433471 0.77878 0.158208 2 0 0 
5218 6 0.684498 0.793276 0.125473 -1 0 0 
6983 6 0.830396 0.813751 0.151636 3 -2 -4 
8219 6 0.61627 0.837763 0.198888 6 -3 2 
7710 6 0.218476 0.911422 0.202259 2 -5 1 
7173 5 0.43214 0.864911 0.194669 -2 -4 -1 
6498 5 0.079464 0.890526 0.154138 -1 -1 5 
7071 6 0.581414 0.939512 0.172063 -3 -3 -2 
8151 6 0.0735424 0.968321 0.160496 3 2 -3 
7327 5 0.15401 0.924722 0.157875 1 0 -1 
7185 5 0.405609 0.0092052 0.211917 1 3 -5 
5295 5 0.464033 0.00525379 0.20462 3 4 0 
8215 5 0.606353 0.0115185 0.188629 -2 3 -1 
8115 5 0.698021 0.00691583 0.197099 3 -3 2 
8953 6 0.782218 0.010437 0.16975 0 1 1 
5394 6 0.521315 0.0389913 0.207437 2 2 3 
7741 5 0.536716 0.0234237 0.218941 -3 -3 5 
7391 6 0.740354 0.0590158 0.152405 3 0 -1 
5027 6 0.218914 0.0667511 0.182601 0 -1 0 
6800 5 0.451719 0.120306 0.168005 4 0 2 
5510 6 0.663282 0.0643196 0.204841 3 1 1 
6460 5 0.26509 0.128377 0.259024 4 -1 -6 
6994 5 0.131283 0.145833 0.202247 -2 1 -2 
6014 5 0.15117 0.174591 0.169433 1 2 3 
6304 6 0.231596 0.149802 0.145558 1 1 5 
7926 6 0.85071 0.101761 0.169598 1 -2 1 
7928 5 0.0376727 0.166001 0.170786 1 0 2 
6967 6 0.717393 0.183559 0.164693 0 0 -4 
8289 6 0.369648 0.185249 0.153204 0 -2 0 
5553 6 0.883295 0.204222 0.204498 -6 -1 1 
7947 6 0.315393 0.226859 0.225581 -2 -2 7 
8624 6 0.318989 0.256042 0.180908 -4 0 1 
6642 6 0.740663 0.280886 0.194668 1 0 -4 
5727 5 0.879933 0.259144 0.240094 2 -2 5 
5383 5 0.935466 0.282632 0.205527 -1 -5 3 
6156 6 0.25825 0.290402 0.19791 2 5 2 
5404 6 0.118479 0.319058 0.204542 -3 -1 6 
8120 5 0.613174 0.315211 0.197555 1 2 -2 
6489 5 0.0181791 0.304599 0.196157 -3 -1 0 
7436 5 0.0984561 0.373756 0.209841 -1 -2 0 
8617 5 0.0915492 0.352561 0.184943 8 0 2 
8063 5 0.107323 0.380133 0.191521 -7 3 -1 
6942 5 0.88565 0.428531 0.173252 -2 -2 6 
7779 5 0.913187 0.398374 0.214141 4 0 -2 
7548 5 0.0372226 0.405502 0.156258 4 -2 -1 
5524 5 0.33185 0.436808 0.152752 0 2 -3 
7528 6 0.370942 0.412759 0.181202 2 -6 -3 
6852 6 0.57807 0.440464 0.16935 0 3 0 
7507 6 0.688721 0.420436 0.151475 -1 -1 1 
5597 6 0.510566 0.425633 0.17773 -1 0 -1 
7140 5 0.578724 0.446027 0.177941 4 8 6 
6059 5 0.0373132 0.481331 0.226675 -3 -4 0 
5781 6 0.1554 0.498287 0.157994 -1 -1 3 
6814 5 0.153226 0.50563 0.202967 -4 -1 -4 
8682 5 0.299416 0.544116 0.167516 4 5 0 
8530 6 0.619637 0.513781 0.183131 0 5 3 
8880 5 0.876775 0.543163 0.182887 5 4 -1 
8494 5 0.477729 0.547902 0.219188 0 0 0 
5331 5 0.978442 0.526207 0.187243 2 0 1 
7745 5 0.613427 0.605303 0.163228 1 -3 4 
6995 6 0.845092 0.56933 0.194525 -2 6 0 
7380 5 0.484072 0.623398 0.201221 -1 3 3 
6383 6 0.715069 0.604819 0.23778 0 3 0 
7341 6 0.999966 0.563341 0.172092 -4 -1 2 
6528 6 0.564883 0.628305 0.168131 1 4 5 
6311 5 0.550745 0.644313 0.232218 1 -1 1 
8495 6 0.740518 0.647631 0.182742 2 -2 2 
5498 6 0.34509 0.678976 0.198803 0 -1 5 
5854 6 0.416788 0.677639 0.205391 1 3 -3 
7148 6 0.85827 0.66079 0.196989 0 0 1 