ITEM: TIMESTEP
50000000
ITEM: NUMBER OF ATOMS
9000
ITEM: BOX BOUNDS pp pp pp
-75 75
-75 75
-75 75
ITEM: ATOMS id type xs ys zs ix iy iz 
7872 5 0.283782 0.0126828 0.000188234 -5 -4 -1 
6811 5 0.329771 0.974323 0.0265974 3 -7 -4 
6321 6 0.76121 0.0328266 0.0312056 2 6 -6 
8604 5 0.787296 -0.000176373 0.0213917 -3 -1 -5 
6969 6 0.46873 0.0753059 0.0116959 -1 0 3 
8944 6 0.639531 0.0322509 0.997355 5 -1 5 
8215 6 0.380061 0.0768806 0.00791539 -4 -5 1 
5906 5 0.807057 0.11041 0.967422 -4 3 0 
6396 6 0.148073 0.0394616 0.0122764 5 -9 -1 
5025 6 0.350222 0.105983 0.0340814 1 1 4 
6816 6 0.45955 0.124888 0.0225812 0 -4 2 
7668 5 0.759215 0.108407 0.00316211 0 7 6 
8674 5 0.00549385 0.0991437 0.000917254 3 2 5 
8246 6 0.502069 0.156172 0.0239986 -3 0 11 
8226 5 0.603238 0.190515 0.983019 -7 2 4 
7056 5 0.685606 0.132614 0.990372 4 -1 2 
6674 5 0.187615 0.160309 0.045273 -5 0 -4 
7051 5 0.277963 0.169738 0.957166 -4 0 -2 
8703 5 0.295794 0.199181 0.0115386 -2 -1 -2 
8137 6 0.584877 0.16408 0.00971961 2 -6 -1 
6998 6 0.719344 0.215182 0.0344016 -6 -10 3 
7455 5 0.947454 0.224656 0.996751 2 8 -3 
7832 5 0.329324 0.198518 0.0155085 3 3 2 
6460 6 0.701719 0.239166 0.0196517 -3 -2 2 
6733 5 0.122593 0.22699 0.994846 2 3 -1 
8916 6 0.856715 0.278567 0.0326834 0 1 -6 
5736 5 0.948569 0.293483 0.987515 -4 3 1 
7099 5 0.106718 0.328266 0.987305 -3 -8 0 
5058 5 0.31218 0.303149 0.0225225 -1 -1 -1 
8560 6 0.994251 0.341223 0.981401 -3 0 10 
7225 5 0.244009 0.326771 0.00597237 -12 -4 1 
5638 6 0.462935 0.356154 0.0473903 -1 -1 0 
7070 6 0.997775 0.352319 0.0489222 2 -1 -1 
7620 6 0.369471 0.372377 1.00041 4 -9 5 
5348 6 0.563064 0.374807 0.980427 -4 -4 1 
6239 5 0.636381 0.445613 0.0454857 1 -7 1 
7683 6 0.48082 0.398112 0.0203264 1 1 -6 
7761 5 0.735767 0.439666 0.0343242 0 -3 6 
8892 5 0.851831 0.371206 0.01609 -5 -4 -6 
7490 6 0.622906 0.444197 0.00629064 -11 7 3 
5758 5 0.434918 0.429308 0.0108581 -5 -3 0 
6066 6 0.547798 0.457804 0.991398 -3 2 7 
5627 5 0.932929 0.464981 0.00422401 9 0 0 
5342 5 0.686722 0.416878 0.0447568 -3 -4 -9 
5994 6 0.207832 0.484589 0.0243103 4 -5 -7 
8392 6 0.351196 0.524382 0.0272856 1 -1 -2 
8172 5 0.497299 0.521288 0.987052 -6 0 -1 
8794 5 0.774394 0.496941 0.0109652 0 3 6 
8747 6 0.697263 0.548864 0.00955229 -3 2 7 
7746 5 0.891312 0.571003 0.98978 4 5 4 
7198 6 0.219742 0.507633 0.0313244 -4 6 -5 
8547 6 0.913078 0.558005 0.998095 -3 0 -3 
6237 6 0.50585 0.592477 0.975888 6 -1 5 
7121 5 0.172454 0.683044 0.0233392 -1 1 2 
5426 6 0.356058 0.645916 0.00969207 8 -1 3 
8574 5 0.318271 0.635952 0.0262491 4 3 3 
5205 5 0.510901 0.648335 0.00907044 4 5 0 
7401 6 0.628149 0.642327 0.0500567 4 3 4 
8689 5 0.0256857 0.665714 0.0207186 8 0 -5 
6435 5 0.30297 0.658745 0.988964 -3 -2 -5 
6267 6 0.764963 0.687425 0.0215252 -6 4 0 
6603 6 0.129236 0.681623 0.026292 3 1 0 
6923 6 0.167459 0.687075 0.0179357 -5 0 0 
5080 5 0.250095 0.723943 0.0437425 -6 -5 -2 
8884 6 0.482174 0.694447 0.984564 -4 8 2 
6106 6 0.574082 0.640847 0.0274042 -1 -2 -4 
8324 5 0.916579 0.685448 0.00931419 5 0 -1 
8131 5 0.881275 0.695445 0.0472487 1 -9 -1 
7917 6 0.253565 0.719498 0.0266258 3 -5 0 
6739 5 0.508411 0.671815 0.0344524 -1 0 1 
8737 5 0.815814 0.700668 0.017134 7 -2 -2 
6021 6 0.21565 0.772246 0.986118 -3 -1 -6 
8170 5 0.732055 0.701643 0.00973608 -2 5 -5 
5097 6 0.819455 0.782569 0.993307 2 -7 0 
7460 5 0.0184398 0.775821 0.989032 1 3 -1 
8064 5 0.0977857 0.757457 0.996252 -2 3 -10 
6965 6 0.383844 0.778419 0.0380959 -2 5 8 
6796 6 0.536027 0.796336 0.0306569 -4 -1 -6 
5136 5 0.857446 0.818122 0.994077 0 3 4 
7693 6 0.55611 0.819818 0.994917 -4 -9 -1 
8210 6 0.583154 0.824179 0.965011 5 -1 0 
6414 5 0.621609 0.821148 0.0234807 -1 -7 9 
6196 5 0.829228 0.819399 0.0477559 -7 -3 -4 
8327 5 0.0254292 0.865943 0.0139309 8 -8 2 
6867 6 0.144395 0.833759 0.0229784 -4 2 -5 
5405 5 0.871339 0.817894 0.00270907 1 1 4 
7530 6 0.230956 0.870328 0.00792856 -6 1 -2 
5777 5 0.638707 0.834369 0.0363363 3 0 6 
8967 5 0.685194 0.857706 0.0300845 -8 0 -8 
5665 6 0.810458 0.865718 0.000944898 -4 -3 -3 
8893 6 0.582763 0.883171 0.997985 -9 -3 -5 
7183 5 0.606688 0.87442 0.973873 3 9 -6 
6390 6 0.196524 0.926043 0.0282909 4 -3 -5 
6820 6 0.30165 0.928202 0.000341623 5 -5 2 
7606 5 0.323369 0.967118 0.975595 -1 -1 9 
7628 6 0.0207403 0.964944 0.0162909 1 -1 9 
5673 6 0.319521 0.950555 0.00995518 2 -4 4 
5069 5 0.460613 0.00321832 0.0197777 0 1 -4 
8732 6 0.902365 0.964825 0.990899 0 3 0 
7979 5 0.99602 0.95515 0.991561 -5 -1 1 
5811 6 0.514086 0.0144781 0.00612786 -3 4 1 
8166 6 0.733937 0.934144 0.0256529 -3 1 -1 
7552 6 0.337988 0.0165931 0.0524843 0 3 4 
8680 6 0.91894 0.985866 0.0233877 2 -5 -4 
8428 5 0.0222994 0.0152056 0.0395203 6 -3 2 
5790 6 0.492026 0.0311423 0.0354699 -5 1 0 
7143 6 0.61206 0.0555837 0.0548765 -4 7 -2 
7184 6 0.484832 0.0335482 0.0221374 -3 -1 -8 
6812 6 0.588798 0.0779058 0.0385468 -4 -4 -4 
5428 6 0.696435 0.0683474 0.0221761 4 0 -4 
5861 5 0.6208 0.0416781 0.0172249 14 6 1 
6979 6 0.929078 0.0688634 0.0443672 1 6 7 
7636 6 0.46271 0.102538 0.052833 -1 10 7 
6481 6 0.566911 0.0891177 0.0294036 4 6 1 
7265 6 0.644467 0.0739205 0.0727389 4 4 -8 
6653 5 0.292378 0.1458 0.0196093 5 2 11 
8483 5 0.918367 0.138222 0.0253746 4 5 5 
6275 6 0.653 0.192049 0.0461231 -9 0 8 
8731 5 0.827722 0.200713 0.0555007 6 -1 5 
8263 6 0.836687 0.240157 0.0248017 -7 3 3 
8241 6 0.835133 0.183952 0.0746832 -6 -4 1 
7635 5 0.996345 0.228046 0.0617354 -3 8 -3 
7717 6 0.178366 0.22262 0.034597 -3 8 0 
8207 6 0.49237 0.234511 0.0857756 -1 -6 3 
5615 6 0.824006 0.240247 0.999862 -4 -3 -5 
6415 6 0.201631 0.259201 0.0550052 3 5 -3 
8897 6 0.81679 0.2099 0.0194248 -10 2 -3 
5958 6 0.25926 0.264486 0.00929897 -6 -1 4 
6169 5 0.881385 0.273829 0.0140236 -4 9 1 
7375 6 0.392808 0.313009 0.0303154 -5 -1 7 
8714 6 0.4969 0.336134 0.0427573 1 -2 -3 
8012 5 0.588973 0.358083 0.0746688 -6 6 3 
5397 5 0.202051 0.292201 0.0297858 5 -3 -10 
5933 6 0.739247 0.352336 0.00372042 0 1 7 
6177 6 0.230854 0.425144 0.0321185 3 8 1 
6438 5 0.450137 0.371877 0.0416371 3 -2 3 
5473 5 0.52895 0.384147 0.029647 12 2 0 
6800 5 0.778736 0.375673 0.0144223 11 4 2 
6518 6 0.67883 0.374446 0.0102197 -2 2 3 
7331 5 0.359903 0.392345 0.0360712 0 -11 0 
5608 5 0.614303 0.387937 0.0664285 1 -1 -1 
6964 6 0.823039 0.454747 0.07256 -7 -5 1 
5020 6 0.0117982 0.495397 0.0341394 0 -3 -2 
7224 6 0.639086 0.458568 0.0270481 -3 -1 -2 
5200 5 0.121142 0.554931 0.02248 0 2 3 
6293 6 0.379093 0.555506 0.0150048 -2 -4 -1 
6853 6 0.509871 0.516702 0.00638589 -4 -9 0 
8311 6 0.997455 0.561334 0.0405428 4 2 1 
7458 6 0.674483 0.504513 0.0811825 0 2 -2 
6833 5 0.356942 0.609699 0.011319 9 4 -3 
5395 5 0.586624 0.605908 0.0541442 4 1 0 
7327 6 0.812227 0.62352 0.0244902 -4 5 -2 
5999 5 0.10965 0.612939 0.98276 -5 0 0 
8850 6 0.432218 0.588462 0.0262601 -2 0 0 
7497 6 0.587445 0.638896 0.0361155 0 8 -6 
6511 6 0.680611 0.661484 0.0446325 8 -6 0 
7883 5 0.746248 0.635921 0.013659 4 -12 4 
6902 5 0.910296 0.61519 0.0355563 9 -5 2 
6845 6 0.967813 0.660187 0.0366263 0 1 -9 
5904 5 0.0434758 0.670462 0.0389127 0 -7 5 
5419 6 0.803016 0.696362 0.00989568 -4 1 -3 
5328 6 0.878083 0.716444 0.0608215 -6 2 1 
5297 5 0.000556447 0.694459 0.018394 -4 -2 11 
8367 5 0.387966 0.742113 0.0425384 -7 -2 4 
6246 6 0.875031 0.724913 0.0325483 2 5 3 
7818 5 0.390476 0.768965 0.0393609 2 -3 6 
6493 5 0.361538 0.778103 0.0316186 4 14 2 
8961 6 0.522755 0.769864 0.991534 -6 2 -5 
8159 6 0.837951 0.812109 0.0641473 5 1 1 
7926 6 0.293244 0.783533 0.0263817 -2 7 -9 
5541 6 0.414568 0.776683 0.0283279 -1 -9 8 
6349 5 0.901492 0.818522 0.0141353 1 1 -2 
5381 6 0.230238 0.814081 0.0594266 -4 -9 5 
6147 5 0.0491946 0.841737 0.0348938 6 5 -4 
8985 6 0.899637 0.82783 0.0205937 6 -3 -5 
7489 5 0.26497 0.878875 0.0351396 5 -10 6 
6807 5 0.0687934 0.897796 0.0325123 1 0 -1 
6528 6 0.472219 0.854958 0.0166082 -1 3 -3 
7349 5 0.611343 0.953253 0.0273815 4 -2 1 
8534 6 0.737241 0.97627 0.0512552 3 -1 -2 
5658 5 0.491643 0.956258 0.0396799 -8 -6 4 
8778 6 0.753414 0.9988 0.0222725 2 -3 8 
7013 6 0.771673 0.968793 0.0620788 9 -5 0 
6421 5 0.32215 0.998911 0.0591524 -5 -6 -3 
6709 5 0.736096 0.0485145 0.0683082 -14 2 -2 
8613 5 0.861432 0.0334243 0.0601258 -4 2 -9 
8052 5 0.763318 0.0477179 0.0274956 -14 2 -1 
6888 5 0.418268 0.0804483 0.0970197 -3 4 4 
7403 6 0.206041 0.105541 0.0582617 0 -9 -5 
8653 6 0.654549 0.109767 0.0624619 -4 -1 6 
5112 5 0.982834 0.105008 0.0572349 -4 -1 4 
7222 6 0.000376964 0.170447 0.0376231 -2 4 5 
5632 6 0.296052 0.187486 0.0795279 4 -11 0 
6334 6 0.743659 0.158702 0.0753704 -4 5 2 
5284 6 0.706258 0.223405 0.0849816 6 1 1 
5464 5 0.165039 0.220413 0.0573421 -2 -4 6 
6743 5 0.278258 0.244057 0.0127902 2 -5 3 
8026 6 0.41722 0.2419 0.0870308 1 -3 6 
5157 5 0.588538 0.206253 0.0713315 0 0 2 
2962 1 0.670761 0.213302 0.0698899 0 0 0 
8249 6 0.853244 0.230555 0.059984 1 2 -2 
7193 6 0.981405 0.199636 0.0339922 -7 4 1 
6919 6 0.301489 0.240676 0.0938727 0 3 5 
6666 6 0.573766 0.26248 0.0504266 -6 -2 3 
7860 5 0.584708 0.236353 0.0733261 -1 5 6 
8145 6 0.343786 0.261359 0.049984 3 3 -3 
8227 6 0.628099 0.275111 0.0586035 -7 -4 -2 
6234 6 0.657636 0.266193 0.0861035 4 -3 -1 
6746 6 0.957553 0.231189 0.0399885 -6 3 5 
6098 6 0.930965 0.290578 0.0796263 3 -3 2 
6068 6 0.218409 0.291468 0.0537687 -1 -5 5 
8368 6 0.58624 0.31446 0.0506528 -3 2 13 
8864 5 0.759483 0.260967 0.0309356 1 7 3 
6865 6 0.386035 0.35883 0.0469236 8 -3 3 
8530 6 0.708878 0.320877 0.0868347 -1 -1 -3 
7800 6 0.718075 0.31743 0.0784265 -3 1 11 
8335 6 0.826462 0.34129 0.0562652 -4 -1 5 
8316 6 0.988282 0.304693 0.0781992 -4 0 2 
5516 6 0.412052 0.367702 0.0868576 4 -7 -8 
8358 5 0.205137 0.394941 0.0276948 1 3 1 
7237 6 0.919934 0.383172 0.0615178 -3 0 3 
7773 5 0.00225744 0.419664 0.0507408 -7 -11 -3 
5002 6 0.236024 0.400084 0.0794373 1 -5 -1 
5433 6 0.71221 0.392584 0.04172 -3 -2 0 
6738 5 0.0172299 0.399652 0.0384146 3 3 -3 
5874 5 0.224809 0.419809 0.0651627 -4 3 -2 
5988 6 0.949034 0.425786 0.057553 -4 9 6 
8502 6 0.029535 0.435045 0.0795934 0 2 2 
5396 5 0.843967 0.478445 0.046239 0 6 -1 
6383 5 0.941468 0.460742 0.0852052 -2 -2 -5 
7115 5 0.426903 0.500858 0.0729199 -4 4 -4 
8099 5 0.242015 0.511142 0.0817839 -4 4 -3 
8963 6 0.629271 0.532362 0.0930419 4 -8 -8 
7124 6 0.663355 0.534283 0.0558098 -1 17 -3 
6630 6 0.891069 0.540202 0.022324 2 6 2 
7898 6 0.588915 0.590643 0.0681749 -2 7 3 
8407 5 0.255609 0.577773 0.0349678 3 0 2 
7865 6 0.243218 0.621543 0.0415772 -2 2 -2 
5763 5 0.399353 0.624447 0.0491054 -4 -4 -2 
8821 5 0.312926 0.658886 0.0792664 3 -1 4 
5538 5 0.268683 0.688574 0.0665071 -4 1 7 
6162 6 0.572748 0.643919 0.0919788 -5 12 -3 
6669 6 0.188659 0.697482 0.0463245 -2 1 -1 
5566 5 0.0310942 0.665028 0.0518238 -1 1 7 
7284 5 0.0773455 0.732104 0.0735681 -7 -5 7 
8937 5 0.12701 0.697219 0.0679859 -2 2 7 
8999 5 0.439464 0.722702 0.0651737 1 -8 5 
8573 5 0.260662 0.745103 0.0391191 -1 -4 7 
6087 6 0.277521 0.735557 0.0610457 -2 -1 7 
8460 5 0.479507 0.817515 0.0534796 9 11 7 
5716 6 0.528349 0.844357 0.0510468 -2 5 2 
6718 6 0.659636 0.826607 0.07399 -10 6 2 
5514 5 0.649138 0.835623 0.0417957 -3 7 -3 
5528 5 0.774527 0.774484 0.063319 1 5 -1 
6127 5 0.0886992 0.857011 0.0436443 4 -1 -2 
8619 6 0.682006 0.872227 0.0444232 8 -3 3 
5854 6 -0.000503122 0.872285 0.0532417 4 -2 -1 
6353 5 0.757458 0.883925 0.034313 6 -5 -11 
7147 6 0.271309 0.956828 0.0423774 -1 -3 -4 
8057 5 0.848138 0.905067 0.0488936 3 -4 2 
8146 6 0.337226 0.926623 0.027219 -4 3 -3 
6124 5 0.643128 0.0017524 0.0531596 -2 4 4 
5929 5 0.822183 0.0013236 0.0473851 -4 -7 -3 
7824 6 0.73758 0.997418 0.114376 -3 7 -1 
7210 5 0.156817 0.0328894 0.0840165 9 2 -1 
7774 6 0.183123 0.0445743 0.0838118 0 -2 11 
8491 5 0.233421 0.0285507 0.0855545 2 0 0 
6354 5 0.338594 0.101714 0.0527856 -2 -1 -9 
8126 6 0.692738 0.0706791 0.0919141 -5 -1 3 
7355 6 0.201327 0.148733 0.0687698 -9 -6 2 
6846 6 0.0313805 0.116765 0.0894952 -3 0 6 
6560 6 0.641743 0.117745 0.067526 5 -2 1 
8197 6 0.774047 0.127434 0.118885 1 0 5 
6069 5 0.827771 0.115376 0.0682014 -7 9 3 
5495 6 0.224027 0.16535 0.0725354 1 0 -6 
2941 1 0.704795 0.176005 0.0926117 0 0 0 
2938 1 0.710195 0.169731 0.0888476 0 0 0 
7308 5 0.683842 0.165907 0.097697 -2 2 -4 
2939 1 0.710805 0.176598 0.0881006 0 0 0 
2937 1 0.705571 0.172759 0.0853568 0 0 0 
2935 1 0.698194 0.170816 0.085771 0 0 0 
2936 1 0.702969 0.167736 0.0887413 0 0 0 
2932 1 0.692667 0.173309 0.0952633 0 0 0 
2933 1 0.691755 0.171584 0.0890048 0 0 0 
2934 1 0.696007 0.168074 0.091594 0 0 0 
2931 1 0.686857 0.172661 0.0934312 0 0 0 
2930 1 0.687457 0.178479 0.0962599 0 0 0 
2947 1 0.6952 0.192941 0.0965631 0 0 0 
2948 1 0.69404 0.195983 0.102094 0 0 0 
2949 1 0.687972 0.194826 0.100126 0 0 0 
2950 1 0.688758 0.201276 0.100328 0 0 0 
2897 1 0.701561 0.195732 0.0900843 0 0 0 
2895 1 0.696927 0.197668 0.0849429 0 0 0 
2952 1 0.68469 0.205837 0.0964514 0 0 0 
2951 1 0.682507 0.200061 0.0981384 0 0 0 
2896 1 0.703345 0.198192 0.0843325 0 0 0 
2899 1 0.708386 0.192003 0.0927041 0 0 0 
2900 1 0.711962 0.19633 0.096004 0 0 0 
2902 1 0.717608 0.19454 0.0987357 0 0 0 
2901 1 0.714885 0.191025 0.0941469 0 0 0 
2903 1 0.72074 0.188407 0.0959635 0 0 0 
2905 1 0.719435 0.182172 0.0999483 0 0 0 
6152 5 0.280803 0.220643 0.0794809 7 -6 -4 
6496 5 0.503718 0.227876 0.0253626 -6 -1 -5 
2963 1 0.672353 0.207491 0.0722201 0 0 0 
2964 1 0.666167 0.208092 0.0706312 0 0 0 
2966 1 0.661048 0.208711 0.0756959 0 0 0 
2969 1 0.665025 0.213217 0.084948 0 0 0 
2968 1 0.659265 0.213531 0.0817747 0 0 0 
2965 1 0.666669 0.206854 0.0769912 0 0 0 
2967 1 0.663862 0.21413 0.0775876 0 0 0 
3002 1 0.674256 0.238186 0.0894094 0 0 0 
2970 1 0.659803 0.211962 0.0890672 0 0 0 
3004 1 0.678199 0.232666 0.0887731 0 0 0 
3003 1 0.67746 0.235616 0.0945912 0 0 0 
2971 1 0.66192 0.21843 0.0884686 0 0 0 
2893 1 0.691841 0.202712 0.0838728 0 0 0 
2894 1 0.697908 0.204145 0.0853576 0 0 0 
6708 5 0.686851 0.230655 0.0866703 6 4 -6 
2957 1 0.67675 0.212886 0.0854461 0 0 0 
2956 1 0.680694 0.207741 0.0856961 0 0 0 
2961 1 0.675844 0.213903 0.0730585 0 0 0 
2959 1 0.677229 0.216993 0.0793455 0 0 0 
2960 1 0.671379 0.214619 0.0773113 0 0 0 
2958 1 0.677923 0.210473 0.0796443 0 0 0 
2955 1 0.675212 0.206911 0.0896544 0 0 0 
2891 1 0.688623 0.210064 0.0840838 0 0 0 
2892 1 0.692535 0.207487 0.0889446 0 0 0 
2890 1 0.693255 0.213708 0.0853471 0 0 0 
2889 1 0.692705 0.21301 0.0792338 0 0 0 
2888 1 0.697372 0.217221 0.0798656 0 0 0 
2953 1 0.680983 0.203422 0.0919776 0 0 0 
2954 1 0.679493 0.209424 0.0930794 0 0 0 
2887 1 0.691524 0.219738 0.0814771 0 0 0 
6055 5 0.698088 0.216605 0.0923072 1 -4 13 
3001 1 0.669909 0.235921 0.0937331 0 0 0 
3000 1 0.6723 0.241163 0.0961447 0 0 0 
2998 1 0.664998 0.242254 0.0986857 0 0 0 
3874 1 0.688206 0.242636 0.0868309 0 0 0 
2999 1 0.668507 0.237168 0.100261 0 0 0 
2997 1 0.662053 0.237318 0.0960995 0 0 0 
3875 1 0.684419 0.238157 0.0845223 0 0 0 
2996 1 0.657415 0.242093 0.0968073 0 0 0 
3873 1 0.691591 0.237165 0.0875795 0 0 0 
3876 1 0.681797 0.24136 0.0895969 0 0 0 
3872 1 0.695924 0.241492 0.0866116 0 0 0 
3871 1 0.692761 0.240814 0.0812267 0 0 0 
3869 1 0.693843 0.246833 0.0764741 0 0 0 
3867 1 0.69509 0.251264 0.0821056 0 0 0 
3868 1 0.699595 0.249902 0.0780555 0 0 0 
3870 1 0.698009 0.243444 0.079583 0 0 0 
3866 1 0.69906 0.255933 0.0828311 0 0 0 
3865 1 0.693823 0.256765 0.0863621 0 0 0 
3864 1 0.693709 0.261379 0.0825352 0 0 0 
5286 6 0.705883 0.257876 0.0869364 4 -3 1 
3722 1 0.798347 0.247886 0.086452 0 0 0 
3724 1 0.794572 0.246274 0.0923633 0 0 0 
3723 1 0.793336 0.244026 0.0863406 0 0 0 
3725 1 0.789993 0.241984 0.0923942 0 0 0 
3726 1 0.792033 0.242838 0.098405 0 0 0 
3727 1 0.7887 0.248051 0.0966163 0 0 0 
7397 6 0.826159 0.251658 0.0780881 4 2 -6 
5591 6 0.325845 0.234235 0.0589533 -2 -2 1 
7808 5 0.597113 0.271339 0.0557873 8 0 1 
3877 1 0.678825 0.243759 0.0841482 0 0 0 
3878 1 0.675928 0.246545 0.0891388 0 0 0 
3863 1 0.691947 0.263533 0.0883504 0 0 0 
3862 1 0.697924 0.26568 0.0878005 0 0 0 
3861 1 0.697273 0.26193 0.0931183 0 0 0 
3860 1 0.701614 0.266327 0.0940472 0 0 0 
3859 1 0.702356 0.262004 0.098485 0 0 0 
3721 1 0.794007 0.251034 0.0830953 0 0 0 
3715 1 0.787144 0.266943 0.0872568 0 0 0 
3717 1 0.78634 0.260551 0.0844677 0 0 0 
3716 1 0.789423 0.26178 0.0899359 0 0 0 
3718 1 0.788582 0.255281 0.0863098 0 0 0 
3719 1 0.79333 0.258515 0.0828091 0 0 0 
3720 1 0.795621 0.255347 0.0874918 0 0 0 
3713 1 0.791393 0.2691 0.0815126 0 0 0 
3714 1 0.793458 0.267897 0.087955 0 0 0 
6340 5 0.787534 0.248459 0.088838 2 -5 -10 
8301 5 0.376117 0.300348 0.0910574 5 -7 -5 
3712 1 0.794449 0.274152 0.0837778 0 0 0 
3710 1 0.790902 0.27995 0.0801315 0 0 0 
3709 1 0.788673 0.279402 0.0747099 0 0 0 
3708 1 0.783814 0.279651 0.078815 0 0 0 
3711 1 0.794085 0.275191 0.077306 0 0 0 
3707 1 0.785791 0.285558 0.0782715 0 0 0 
3704 1 0.776594 0.291449 0.0769642 0 0 0 
3706 1 0.779676 0.28529 0.0755376 0 0 0 
8701 5 0.789117 0.313555 0.0768779 -3 10 -1 
3705 1 0.782619 0.291005 0.0745745 0 0 0 
8771 6 0.657225 0.297552 0.0863919 -6 9 -10 
7270 6 0.641962 0.333373 0.0841195 -3 -7 4 
7360 5 0.723429 0.286393 0.0522687 11 -4 4 
8990 6 0.692345 0.32905 0.0621075 3 4 3 
7847 6 0.846919 0.310381 0.0625552 4 3 3 
5379 6 0.798824 0.259925 0.0943062 -2 4 6 
7874 5 0.886718 0.320728 0.117103 1 -4 0 
5018 6 0.978362 0.353753 0.0472259 -6 1 -8 
7963 6 0.7169 0.345402 0.0882093 8 1 5 
7579 5 0.54902 0.393246 0.0751741 4 -4 2 
7201 6 0.856656 0.395711 0.11543 1 0 1 
7950 5 0.0428488 0.334453 0.0723735 3 -2 -1 
6944 6 0.0734451 0.362515 0.0800735 -1 -4 -7 
6155 6 0.977044 0.387791 0.131199 -3 0 -1 
8662 5 0.0499893 0.367878 0.0703483 4 3 -3 
8905 5 0.478945 0.416173 0.0775485 1 2 -4 
5050 6 0.759115 0.432415 0.0602412 -6 -3 2 
8342 6 0.878139 0.473616 0.118559 -5 4 -2 
6642 5 0.0849621 0.425173 0.0786054 -3 4 -2 
5893 6 0.547981 0.462582 0.0980157 3 3 -3 
7132 6 0.907961 0.485921 0.0787977 -3 4 1 
5576 6 0.453199 0.504574 0.064842 -4 4 6 
6193 6 0.552393 0.493554 0.0462991 -5 0 -4 
6727 6 0.632815 0.464435 0.0544784 -9 0 -4 
8533 6 0.361005 0.501673 0.0595139 2 -1 2 
7547 5 0.910585 0.491915 0.0744937 0 2 1 
7587 6 0.927127 0.505366 0.0777704 1 -6 -12 
7843 6 0.356037 0.550093 0.0960422 6 5 2 
8010 5 0.374636 0.538077 0.0726152 -1 -6 -3 
6194 5 0.334521 0.572064 0.0581936 -8 1 10 
5913 6 0.693674 0.597903 0.10714 4 -4 -1 
6249 5 0.698539 0.623476 0.0719377 1 -5 -3 
8565 6 0.341461 0.6102 0.0587214 5 -1 8 
5882 6 0.564711 0.61282 0.0853035 1 5 2 
5545 5 0.924625 0.640047 0.0915616 -4 -11 0 
8588 6 0.00266616 0.672099 0.0592426 7 -3 3 
7205 6 0.361994 0.664137 0.0607101 -9 2 -2 
7190 6 0.539164 0.655827 0.0681313 2 0 -2 
6503 6 0.0247235 0.709689 0.0883895 3 1 2 
6946 5 0.153827 0.698463 0.0492102 -7 -8 -3 
7574 5 0.490899 0.675244 0.106326 -3 0 2 
8749 6 0.874806 0.703866 0.103746 2 -2 4 
6008 6 0.279172 0.753843 0.0795233 -1 -6 4 
6048 6 0.777412 0.723547 0.0778792 1 3 2 
5292 5 0.330675 0.75278 0.0736281 1 5 -2 
6175 6 0.644687 0.714028 0.0714575 -1 -4 -4 
5368 6 0.11653 0.766781 0.0627147 0 8 5 
5657 6 0.820151 0.742252 0.0800334 -5 -2 3 
5111 5 0.932004 0.711805 0.120808 -5 -4 -8 
6975 6 0.370571 0.796734 0.0314012 1 -2 -4 
7716 5 0.816227 0.771647 0.114098 8 1 -7 
6229 6 0.143139 0.798735 0.0776321 2 4 1 
7762 6 0.133635 0.829189 0.080692 -5 0 -2 
5394 5 0.765439 0.840992 0.0795053 -2 -3 3 
5829 6 0.35157 0.86653 0.0956367 -4 3 0 
6413 6 0.977671 0.881766 0.102654 -2 1 -1 
6311 6 0.318593 0.920862 0.0752045 2 -3 -2 
6083 6 0.671371 0.871181 0.0696031 -4 1 1 
6621 5 0.0493329 0.897651 0.0593091 -8 0 5 
7347 5 0.374462 0.964238 0.0642746 -2 -3 -7 
5606 6 0.468765 0.926878 0.07839 3 -10 -2 
5488 5 0.19417 0.00273492 0.0565502 3 1 -3 
7049 5 0.54445 0.983041 0.0768514 2 -3 8 
7339 6 0.684782 0.976464 0.0679975 -1 6 10 
7945 5 0.935436 0.939398 0.0533566 -1 -5 0 
5509 6 0.354522 0.0381902 0.0743356 3 9 5 
7960 6 0.793825 0.952066 0.0678501 1 3 -4 
7702 5 0.598463 0.980534 0.0965229 3 4 -4 
8163 5 0.663254 0.0113618 0.120191 7 -1 5 
6402 6 0.0190306 0.0257476 0.0593904 0 6 3 
5189 6 0.346036 0.0602017 0.113966 8 -3 -2 
5694 6 0.395 0.022878 0.0781518 3 -5 6 
8431 6 0.92319 0.0114316 0.114791 3 3 -9 
5841 6 0.535853 0.0819004 0.150526 2 -4 -3 
5316 6 0.0387994 0.0804912 0.0949873 -2 1 -2 
7394 6 0.537173 0.110807 0.108632 1 2 -5 
7314 5 0.703133 0.132797 0.137349 0 1 -3 
6722 6 0.560583 0.130827 0.1088 1 3 -3 
7399 5 0.693462 0.148771 0.125433 7 3 1 
8561 6 0.365169 0.139427 0.0903196 -1 4 -3 
5242 6 0.720469 0.187582 0.13689 -2 0 1 
2940 1 0.711327 0.175253 0.0943147 0 0 0 
2942 1 0.707126 0.180823 0.096024 0 0 0 
2929 1 0.688154 0.174569 0.101251 0 0 0 
2927 1 0.683967 0.179828 0.104213 0 0 0 
2925 1 0.683237 0.182063 0.111475 0 0 0 
2928 1 0.690134 0.180574 0.101881 0 0 0 
2908 1 0.717786 0.175836 0.107942 0 0 0 
2906 1 0.715451 0.182263 0.104793 0 0 0 
2910 1 0.712744 0.178854 0.112949 0 0 0 
5179 6 0.943374 0.164271 0.114645 -7 -2 3 
7582 6 0.380581 0.202201 0.115451 6 13 -5 
7893 5 0.638395 0.177684 0.108999 -1 -4 1 
2943 1 0.701338 0.182627 0.0944934 0 0 0 
2944 1 0.701812 0.18512 0.0999898 0 0 0 
2945 1 0.701491 0.189912 0.0952933 0 0 0 
2946 1 0.698868 0.191359 0.101288 0 0 0 
2924 1 0.687379 0.186384 0.114639 0 0 0 
2923 2 0.688434 0.192251 0.116704 0 0 0 
2926 1 0.686972 0.185067 0.107289 0 0 0 
2914 1 0.70641 0.188478 0.108029 0 0 0 
2922 1 0.690311 0.19852 0.115534 0 0 0 
2921 1 0.692059 0.2047 0.114379 0 0 0 
2920 1 0.696648 0.201638 0.116898 0 0 0 
2919 1 0.69693 0.201303 0.110357 0 0 0 
2898 1 0.707192 0.198042 0.0906157 0 0 0 
2907 1 0.714654 0.176543 0.102043 0 0 0 
2904 1 0.715718 0.18716 0.0997638 0 0 0 
2909 1 0.71142 0.174642 0.107996 0 0 0 
2911 1 0.709151 0.181499 0.10847 0 0 0 
2913 1 0.70238 0.183821 0.10917 0 0 0 
2912 1 0.706869 0.184067 0.113809 0 0 0 
5163 5 0.604282 0.242359 0.126011 -1 3 0 
3006 1 0.67672 0.22597 0.0921893 0 0 0 
3005 1 0.681903 0.229556 0.0930322 0 0 0 
2975 1 0.658967 0.22254 0.102112 0 0 0 
2973 1 0.661866 0.222261 0.0948058 0 0 0 
2974 1 0.664026 0.219306 0.10014 0 0 0 
2972 1 0.661077 0.216001 0.0944786 0 0 0 
2977 1 0.656702 0.220595 0.108842 0 0 0 
2976 1 0.662705 0.219187 0.106816 0 0 0 
2978 1 0.66024 0.218458 0.113632 0 0 0 
3010 1 0.672088 0.221513 0.104962 0 0 0 
3008 1 0.67475 0.224339 0.0986057 0 0 0 
3013 1 0.678915 0.221816 0.110639 0 0 0 
3011 1 0.674397 0.216618 0.107625 0 0 0 
3009 1 0.676953 0.219018 0.101459 0 0 0 
3007 1 0.681009 0.224332 0.097354 0 0 0 
5597 5 0.660967 0.23378 0.116861 4 -4 1 
2885 1 0.689776 0.223375 0.0878637 0 0 0 
2886 1 0.69564 0.221207 0.0864058 0 0 0 
2883 1 0.694608 0.224544 0.0934724 0 0 0 
2882 1 0.68919 0.224108 0.0969627 0 0 0 
2884 1 0.691346 0.219148 0.092678 0 0 0 
2880 1 0.6943 0.222908 0.103018 0 0 0 
6793 6 0.194763 0.243922 0.0580523 1 -2 -2 
2992 1 0.65639 0.243787 0.110915 0 0 0 
2995 1 0.655359 0.237508 0.100849 0 0 0 
2991 1 0.659443 0.238189 0.11061 0 0 0 
2993 1 0.652873 0.239226 0.107849 0 0 0 
2994 1 0.654869 0.243737 0.103597 0 0 0 
2206 1 0.682742 0.249396 0.0977469 0 0 0 
2207 1 0.677788 0.251949 0.10086 0 0 0 
2990 1 0.661753 0.24188 0.114796 0 0 0 
8339 5 0.666358 0.229123 0.0960621 -2 1 4 
3015 1 0.67771 0.22486 0.117585 0 0 0 
2988 1 0.668524 0.243459 0.116125 0 0 0 
2208 1 0.676881 0.245863 0.101024 0 0 0 
2989 1 0.666329 0.239774 0.111047 0 0 0 
3016 1 0.681729 0.229531 0.115631 0 0 0 
2209 1 0.670931 0.248549 0.100839 0 0 0 
2881 1 0.693553 0.228185 0.0999079 0 0 0 
7091 5 0.690555 0.232099 0.155291 3 -10 -2 
2877 1 0.68538 0.226701 0.110202 0 0 0 
2879 1 0.69204 0.228166 0.106858 0 0 0 
2878 1 0.687927 0.22391 0.105011 0 0 0 
2875 1 0.688751 0.233674 0.110535 0 0 0 
3017 1 0.678162 0.232267 0.119851 0 0 0 
2873 1 0.686871 0.240079 0.107766 0 0 0 
2876 1 0.684538 0.230851 0.10506 0 0 0 
2874 1 0.682801 0.235653 0.10998 0 0 0 
2872 1 0.687258 0.240396 0.114116 0 0 0 
8599 5 0.661326 0.24695 0.104132 -4 0 -3 
2871 1 0.693109 0.242971 0.111172 0 0 0 
2870 1 0.687949 0.246536 0.111457 0 0 0 
3845 1 0.735019 0.244328 0.106197 0 0 0 
3847 1 0.729696 0.245292 0.100836 0 0 0 
3846 1 0.733129 0.249766 0.103832 0 0 0 
3848 1 0.731247 0.249823 0.0969486 0 0 0 
3730 1 0.777808 0.243202 0.0975687 0 0 0 
3732 1 0.771075 0.245608 0.0955512 0 0 0 
3728 1 0.784692 0.243239 0.0989619 0 0 0 
3729 1 0.782587 0.245557 0.0931242 0 0 0 
5616 5 0.161192 0.261293 0.0763362 3 2 -3 
8693 5 0.345907 0.301166 0.0988822 7 10 7 
2204 1 0.688611 0.254282 0.0969214 0 0 0 
3883 1 0.667146 0.257564 0.0889827 0 0 0 
3882 1 0.665454 0.251955 0.0919744 0 0 0 
3880 1 0.672597 0.25298 0.0893612 0 0 0 
3879 1 0.674396 0.249932 0.0839543 0 0 0 
3884 1 0.660717 0.257435 0.0898568 0 0 0 
3881 1 0.667371 0.250463 0.086222 0 0 0 
3885 1 0.663343 0.257835 0.0957835 0 0 0 
3887 1 0.659033 0.260327 0.101406 0 0 0 
3889 1 0.654342 0.265469 0.105118 0 0 0 
2203 1 0.687967 0.260546 0.0971537 0 0 0 
2205 1 0.682398 0.255736 0.0969817 0 0 0 
8333 5 0.664836 0.255799 0.0800193 -6 -1 7 
3888 1 0.660593 0.26679 0.102343 0 0 0 
3886 1 0.659052 0.262699 0.095822 0 0 0 
2860 1 0.67552 0.261836 0.111271 0 0 0 
3891 1 0.653467 0.265782 0.112405 0 0 0 
3890 1 0.658448 0.268786 0.108984 0 0 0 
2210 1 0.673663 0.249871 0.106616 0 0 0 
2862 1 0.67889 0.258537 0.105361 0 0 0 
2864 1 0.681713 0.257356 0.111293 0 0 0 
2211 1 0.670225 0.254823 0.105399 0 0 0 
2212 1 0.668187 0.252846 0.1107 0 0 0 
2202 1 0.693536 0.258637 0.100587 0 0 0 
2201 1 0.693773 0.264764 0.0985777 0 0 0 
2200 1 0.694019 0.264177 0.105172 0 0 0 
2198 1 0.699271 0.268263 0.102445 0 0 0 
2199 1 0.692932 0.270644 0.102283 0 0 0 
2197 1 0.695941 0.270489 0.108471 0 0 0 
2196 1 0.700968 0.266571 0.109584 0 0 0 
2863 1 0.68456 0.261482 0.106518 0 0 0 
3858 1 0.708063 0.264442 0.0971782 0 0 0 
2194 1 0.700678 0.268784 0.116824 0 0 0 
2195 1 0.696388 0.265641 0.113649 0 0 0 
2191 1 0.70942 0.261447 0.118095 0 0 0 
2193 1 0.701496 0.262633 0.117738 0 0 0 
3857 1 0.708013 0.259682 0.101918 0 0 0 
3855 1 0.710778 0.257201 0.0950471 0 0 0 
3856 1 0.714187 0.260389 0.0997585 0 0 0 
3854 1 0.717455 0.258659 0.0936715 0 0 0 
3853 1 0.714958 0.254209 0.0899621 0 0 0 
2192 1 0.70593 0.263896 0.113301 0 0 0 
3849 1 0.727611 0.246201 0.0936909 0 0 0 
2187 1 0.718271 0.269264 0.110004 0 0 0 
3852 1 0.721334 0.255697 0.0879059 0 0 0 
3850 1 0.727223 0.252547 0.0914773 0 0 0 
3851 1 0.721628 0.249929 0.0899983 0 0 0 
3740 1 0.766402 0.267382 0.102381 0 0 0 
3739 1 0.76475 0.265338 0.0962331 0 0 0 
3738 1 0.763923 0.261174 0.100487 0 0 0 
3737 1 0.770225 0.261759 0.0999524 0 0 0 
3742 1 0.76138 0.268994 0.107586 0 0 0 
3731 1 0.77606 0.245602 0.0912448 0 0 0 
3734 1 0.766557 0.25156 0.0956327 0 0 0 
3733 1 0.769951 0.250015 0.0904952 0 0 0 
3735 1 0.771791 0.255417 0.0955466 0 0 0 
3736 1 0.768636 0.255771 0.101319 0 0 0 
5501 5 0.129446 0.248996 0.0994945 3 1 3 
6297 5 0.68366 0.25303 0.105919 0 -7 8 
2859 1 0.674183 0.267797 0.111525 0 0 0 
3096 2 0.698445 0.290094 0.0950506 0 0 0 
3095 1 0.696428 0.283991 0.0936278 0 0 0 
3097 2 0.697928 0.295823 0.0981229 0 0 0 
2861 1 0.67805 0.265049 0.106165 0 0 0 
3092 1 0.695296 0.281816 0.105202 0 0 0 
3091 1 0.701095 0.285161 0.106705 0 0 0 
3090 1 0.700094 0.280233 0.110391 0 0 0 
3094 1 0.693606 0.280256 0.0979312 0 0 0 
3093 1 0.697006 0.285495 0.100343 0 0 0 
2184 1 0.718745 0.274952 0.105907 0 0 0 
2185 1 0.719013 0.276237 0.113076 0 0 0 
2182 1 0.72529 0.276471 0.102906 0 0 0 
2181 1 0.72679 0.280207 0.107645 0 0 0 
2183 1 0.724674 0.273148 0.108654 0 0 0 
3927 1 0.718984 0.299468 0.117948 0 0 0 
3924 1 0.708614 0.295738 0.120983 0 0 0 
3925 1 0.712816 0.300566 0.121486 0 0 0 
3926 1 0.715943 0.295199 0.122427 0 0 0 
2173 1 0.742397 0.297565 0.0949466 0 0 0 
2179 1 0.728926 0.287014 0.106573 0 0 0 
2180 1 0.725542 0.283843 0.102174 0 0 0 
2176 1 0.736485 0.288158 0.0988016 0 0 0 
2175 1 0.739088 0.29389 0.100458 0 0 0 
2174 1 0.741736 0.291414 0.0956275 0 0 0 
2178 1 0.732946 0.283973 0.102761 0 0 0 
2177 1 0.735131 0.289711 0.104762 0 0 0 
3700 1 0.777799 0.293533 0.0891556 0 0 0 
3699 1 0.772409 0.296712 0.0903719 0 0 0 
3698 1 0.773803 0.292041 0.0949263 0 0 0 
8237 5 0.782115 0.291694 0.117641 2 2 3 
3696 1 0.771275 0.297733 0.0983818 0 0 0 
3697 1 0.777406 0.297486 0.0958522 0 0 0 
3701 1 0.773693 0.291648 0.0845195 0 0 0 
3702 1 0.776868 0.297004 0.082309 0 0 0 
3692 1 0.768035 0.297907 0.111831 0 0 0 
3703 1 0.780565 0.29213 0.0820774 0 0 0 
8661 6 0.130194 0.297114 0.0790087 -8 4 3 
5191 6 0.414383 0.337876 0.086251 1 2 -4 
2599 1 0.595425 0.316216 0.103113 0 0 0 
2597 1 0.599665 0.312441 0.108321 0 0 0 
2598 1 0.598811 0.319131 0.107904 0 0 0 
1827 1 0.669411 0.314604 0.116059 0 0 0 
1829 1 0.666769 0.310227 0.111624 0 0 0 
1830 1 0.660541 0.311243 0.111548 0 0 0 
3105 1 0.693787 0.319623 0.0962851 0 0 0 
1833 1 0.658392 0.299518 0.114071 0 0 0 
1831 1 0.661488 0.304981 0.110787 0 0 0 
1835 1 0.663155 0.295044 0.117498 0 0 0 
7938 5 0.673506 0.3224 0.0968422 2 2 6 
3099 1 0.696924 0.305436 0.105652 0 0 0 
3103 1 0.70018 0.317314 0.0997269 0 0 0 
3101 1 0.700632 0.311091 0.103194 0 0 0 
3098 1 0.696324 0.300159 0.101954 0 0 0 
3102 1 0.695334 0.312843 0.100638 0 0 0 
3100 1 0.698995 0.306182 0.099736 0 0 0 
3104 1 0.694898 0.31987 0.102769 0 0 0 
3106 1 0.68906 0.317487 0.0998591 0 0 0 
3107 1 0.688142 0.32385 0.099071 0 0 0 
2171 1 0.749216 0.299337 0.0932556 0 0 0 
2172 1 0.74731 0.294874 0.0973519 0 0 0 
5499 5 0.735253 0.282375 0.109047 4 -4 -9 
2170 1 0.746745 0.301839 0.098289 0 0 0 
2169 1 0.746221 0.30571 0.0929249 0 0 0 
2168 1 0.740634 0.305742 0.0960005 0 0 0 
2166 1 0.735586 0.310659 0.0944063 0 0 0 
2165 1 0.739037 0.316296 0.0941133 0 0 0 
2163 1 0.736429 0.315708 0.10125 0 0 0 
2167 1 0.741186 0.310496 0.0913539 0 0 0 
2164 1 0.732759 0.316555 0.0958124 0 0 0 
3695 1 0.775762 0.300145 0.102028 0 0 0 
3694 1 0.771958 0.296542 0.105676 0 0 0 
3693 1 0.773053 0.301808 0.10931 0 0 0 
8824 5 0.108245 0.33818 0.105039 3 2 -3 
8441 6 0.242266 0.309912 0.1157 8 -8 -4 
8797 6 0.503892 0.326255 0.0894809 -3 3 3 
2602 1 0.592855 0.32324 0.112108 0 0 0 
2601 1 0.591962 0.322266 0.105483 0 0 0 
2600 1 0.592526 0.316705 0.108973 0 0 0 