ITEM: TIMESTEP
20000000
ITEM: NUMBER OF ATOMS
9000
ITEM: BOX BOUNDS pp pp pp
-75 75
-75 75
-75 75
ITEM: ATOMS id type xs ys zs ix iy iz 
8251 6 0.504919 0.0215502 -0.000867703 5 -1 7 
8510 6 0.709271 0.976703 0.0358306 -4 -2 -1 
7357 6 0.967654 0.0172632 0.00227927 -1 -7 -4 
8442 5 0.123994 0.0632957 0.0240703 0 2 0 
8727 6 0.309133 0.0166589 0.983432 1 -3 1 
6817 6 0.252637 0.0653847 0.959492 3 0 5 
6299 6 0.549046 0.0550751 0.00918989 -1 -3 2 
7169 6 0.0421425 0.0984645 0.0102491 -4 3 4 
5827 6 0.340975 0.127447 6.05488e-05 1 5 -4 
5200 6 0.473125 0.102928 0.0231578 -3 8 -2 
7982 5 0.55928 0.0872756 0.00450578 0 2 0 
7947 6 0.682388 0.0857358 0.00652164 -4 4 -1 
6943 6 0.77157 0.0590609 0.0214764 -2 6 3 
8013 5 0.0523586 0.107146 0.00699127 3 7 -5 
5775 5 0.461365 0.097953 0.00488207 -5 3 -4 
6204 5 0.750292 0.0944354 0.0117769 -2 2 -2 
5690 6 0.364229 0.139985 -0.000355835 4 -3 -1 
8037 6 0.678064 0.0899778 0.977402 0 -2 2 
5199 6 0.981316 0.138192 0.99345 0 3 -2 
7010 5 0.748794 0.138661 0.0270299 -2 3 4 
7368 5 0.438996 0.144167 0.0248187 -1 -9 -3 
8589 5 0.596521 0.189589 0.985841 -2 -1 1 
6276 5 0.934374 0.164446 0.997661 2 2 -3 
7797 6 0.453724 0.153774 0.0624607 4 -2 2 
7993 6 0.943168 0.187441 0.00251927 1 -4 3 
7139 5 0.307314 0.229747 0.0484187 -1 1 -2 
6994 5 0.531707 0.2351 0.0203084 1 -3 -2 
7414 6 0.72384 0.213401 0.0198451 3 0 -1 
6661 6 0.820577 0.231167 0.0204049 -4 -3 -1 
8968 6 0.799629 0.297795 0.0184584 -5 -4 3 
8424 6 0.395001 0.322601 0.0529575 0 3 0 
7587 5 0.786355 0.285241 0.0146097 3 -2 -1 
5995 6 0.143005 0.342125 0.990324 -1 2 0 
7749 5 0.486732 0.337293 0.0117586 -2 1 2 
5492 5 0.536826 0.313401 0.0311049 -4 0 1 
8552 6 0.8337 0.320466 0.022457 2 2 0 
5168 6 0.983917 0.338979 0.987214 0 -2 1 
5384 5 0.0961971 0.373589 0.00375808 4 -3 -1 
8478 6 0.306523 0.381283 0.00160906 1 0 7 
7582 6 0.333926 0.395656 0.00895948 2 3 1 
6227 5 0.522236 0.385197 0.985745 1 0 2 
7102 6 0.24497 0.375279 0.984897 -2 3 -1 
8465 6 0.667514 0.402017 0.0541082 -1 4 2 
8175 6 0.992754 0.391695 0.0218046 -2 1 1 
8723 6 0.448741 0.438773 0.0345295 -2 -3 -1 
8208 5 0.571256 0.364904 0.0153718 7 0 3 
7661 6 0.0759361 0.43796 0.00676652 -2 -2 2 
8617 6 0.602854 0.451969 0.989835 1 1 -1 
5749 5 0.839603 0.449213 0.00685435 1 2 -1 
6887 5 0.133135 0.44602 0.993262 0 2 2 
5005 6 0.337817 0.478006 0.995309 -3 2 0 
7232 5 0.415678 0.511798 0.0368933 -3 -3 -2 
6525 6 0.689708 0.533929 0.987718 -3 -3 -3 
5725 6 0.66185 0.515565 0.980395 4 0 0 
7871 5 0.745279 0.529758 0.0147023 5 1 4 
7822 5 0.441646 0.524266 0.0221476 1 3 -3 
5792 6 0.898128 0.530847 0.00923605 -4 3 2 
6224 6 0.933839 0.543043 -0.000144771 -1 -2 1 
6078 5 0.111591 0.523084 0.9925 1 -4 -3 
8311 5 0.269699 0.544299 0.0229627 -4 3 5 
6589 6 0.600959 0.531038 0.00843182 -1 0 -3 
5183 5 0.785838 0.547627 0.971185 0 0 -2 
5446 5 0.973511 0.545382 0.0549984 3 -2 1 
6347 6 0.86226 0.580924 0.971992 2 0 -4 
8199 5 0.17622 0.619129 0.00780842 -2 1 -4 
5656 6 0.631203 0.586929 0.0380643 0 -1 -3 
7542 6 0.0266712 0.630442 0.989648 2 -2 -1 
6205 6 0.536626 0.619827 0.996868 -2 -5 -1 
5365 5 0.799372 0.608449 0.0163071 -1 1 3 
6487 6 0.45765 0.675574 0.969042 1 0 -4 
7710 6 0.496191 0.671753 0.99669 4 -6 -4 
5264 6 0.205686 0.673818 -9.51839e-05 1 -3 5 
7203 6 0.575932 0.705006 0.028101 -4 -5 -3 
6654 5 0.790375 0.747983 0.999122 -1 1 4 
5925 6 0.0512706 0.796195 0.00943765 0 0 -1 
8325 5 0.11666 0.796254 0.989997 7 -2 10 
7411 6 0.845501 0.743446 0.0218573 3 3 -3 
7377 5 0.910424 0.774435 0.0203882 -4 -3 -2 
8931 6 0.92494 0.788546 0.00691708 -1 0 0 
7225 6 0.273613 0.772768 0.0409871 -2 0 -2 
5197 6 0.714614 0.802449 0.0215131 -4 2 -2 
6926 6 0.298294 0.850198 0.00715265 -4 -2 0 
7885 6 0.842635 0.831798 0.966539 -5 4 -6 
6166 6 0.518736 0.865535 0.997215 -1 -4 -1 
7173 6 0.157647 0.891777 0.0208848 0 2 1 
8679 6 0.649427 0.887573 0.0314646 2 -3 1 
5835 6 0.804648 0.884223 0.00710317 2 -3 1 
7989 6 0.916412 0.888802 0.0062141 -3 1 -2 
7044 6 0.0736966 0.918625 0.0130516 0 4 -4 
6686 6 0.150743 0.926958 0.0144057 2 2 1 
8130 5 0.902106 0.947502 0.969109 0 0 -1 
7145 6 0.543637 0.945086 0.0555888 -1 -6 1 
7126 6 0.0958143 0.0129066 0.034205 -3 -4 4 
7898 6 0.105716 0.0190053 0.0368199 1 4 -3 
6431 5 0.30308 0.999618 0.0102028 0 -3 0 
5117 6 0.595758 0.00721367 0.0284345 0 -1 0 
7765 6 0.651095 0.99554 0.0406518 0 -2 0 
8189 5 0.720785 0.0401318 0.0557206 -8 0 -1 
6199 6 0.95505 0.015015 0.0330006 -4 -4 -4 
5622 5 0.719318 0.0810754 0.0555875 -1 -2 -3 
8060 5 0.00260537 0.0205794 0.0500838 -3 2 5 
7310 5 0.0962339 0.0774512 0.0263826 4 -1 -2 
5055 6 0.135326 0.0934154 0.0117194 1 1 -2 
7594 6 0.997326 0.0775555 0.0529339 -2 -1 -2 
8341 6 0.177092 0.0362817 0.0498228 3 0 -1 
8022 6 0.343516 0.108514 0.045014 0 -6 -3 
6972 6 0.609814 0.0788842 0.0365855 3 -6 -1 
7272 6 0.884915 0.102416 0.0514733 1 1 0 
7794 5 0.0342058 0.0718147 0.0193036 -4 -2 -2 
6771 6 0.416132 0.105275 0.0188063 -5 1 1 
6369 6 0.386485 0.143234 0.0424639 1 2 -6 
8737 6 0.508911 0.098595 0.0204946 5 -2 -1 
7977 5 0.514698 0.114303 0.0467987 1 -1 -1 
7801 6 0.564512 0.0952555 0.0642524 -6 -2 3 
7634 5 0.616092 0.126419 0.0723103 -2 -4 -3 
7192 6 0.372107 0.144934 0.045836 -1 -5 2 
6289 5 0.948109 0.166899 0.0472874 1 2 1 
7409 6 0.326111 0.209 0.020494 -1 -2 7 
6982 5 0.421354 0.17379 0.0226668 1 1 1 
6117 5 0.644538 0.215536 0.0339532 3 -2 1 
8736 5 0.741701 0.212486 0.0241056 0 0 1 
7887 6 0.871618 0.17418 0.0279534 -1 3 5 
8144 6 0.32378 0.229128 0.0213534 -5 -1 2 
6423 5 0.578654 0.222102 0.0180153 3 2 5 
5940 6 0.458021 0.264535 0.0295666 -3 -1 1 
7035 6 0.484096 0.26073 0.0215083 5 6 -1 
5013 6 0.659259 0.270888 0.0613658 3 -1 -1 
8824 6 0.942989 0.255477 0.0459564 -7 5 3 
8703 6 0.746989 0.302083 0.0637759 1 2 6 
8143 5 0.76297 0.312582 0.0284761 -4 0 3 
7537 5 0.351949 0.290362 0.017143 -4 2 1 
6862 6 0.538044 0.300809 0.0333912 -1 2 2 
5611 6 0.626324 0.287067 0.039756 3 1 2 
6436 6 0.752478 0.299078 0.032912 3 -4 -3 
6526 6 0.797063 0.287574 0.0425237 5 2 -4 
6701 6 0.846279 0.283048 0.05649 -2 0 -1 
6151 6 0.603955 0.32703 0.014995 6 -1 -2 
7059 5 0.73487 0.353872 0.0341896 3 1 1 
5981 6 0.206487 0.388633 0.0483082 3 0 0 
6175 5 0.331396 0.357168 0.0173582 3 0 0 
7701 5 0.259312 0.391367 0.0480523 -5 7 1 
8326 6 0.556973 0.386087 0.0689508 3 5 -2 
8908 6 0.671602 0.398277 0.0424634 -3 4 1 
6961 6 0.70347 0.431767 0.0476564 4 -3 -1 
7233 5 0.856381 0.392506 0.0371659 -7 1 6 
7186 5 0.84697 0.360208 0.0254289 0 -1 1 
5543 5 0.628417 0.376637 0.0335172 0 -1 4 
5858 5 0.0650087 0.453414 0.0538011 3 0 -4 
6806 5 0.674135 0.455705 0.0297268 2 -2 -1 
6927 6 1.00008 0.436699 0.0353145 -2 1 0 
5441 5 0.218925 0.45047 0.0357331 5 0 4 
8832 6 0.540648 0.442926 0.0670336 1 4 0 
5278 5 0.756724 0.4334 0.00602967 2 3 -2 
6819 5 0.121446 0.517972 0.998981 -4 -2 -4 
6006 6 0.628937 0.521303 0.0290693 2 -1 1 
8614 5 0.0161744 0.545308 0.986116 0 -1 -2 
8976 5 0.241447 0.584743 0.993524 3 2 -1 
8706 5 0.111168 0.61395 0.0369979 3 1 2 
7581 6 0.0939199 0.650061 0.021959 1 -2 3 
6871 6 0.557653 0.582699 0.0143011 -5 0 -1 
5354 6 0.0165319 0.651086 0.0706537 -3 -3 -1 
7268 6 0.748758 0.666973 0.0204286 -4 -2 3 
8054 6 0.115331 0.692949 0.000455414 3 -1 3 
7293 6 0.218402 0.700777 0.0425418 -2 -5 4 
5523 6 0.434578 0.74661 0.0138726 0 1 -2 
5389 6 0.462941 0.713378 0.00456598 1 3 2 
6325 6 0.0590988 0.775961 0.00834917 5 0 1 
5468 6 0.891489 0.750699 0.0454398 2 2 0 
5987 5 0.286689 0.755914 0.0624067 -2 -1 4 
6512 5 0.305968 0.789671 0.0540446 2 1 -3 
6135 6 0.478602 0.74438 0.0602965 3 1 -3 
6733 6 0.659196 0.802492 0.0841069 1 1 2 
6559 5 0.843938 0.773766 0.0417002 2 -4 2 
7013 6 0.110726 0.821551 0.0500877 -2 -5 -7 
5516 5 0.602027 0.814213 0.0629351 -2 0 0 
8548 5 0.624646 0.820689 0.0340318 3 3 5 
8164 6 0.00584464 0.848491 0.0173117 2 -1 0 
8207 6 0.145854 0.841432 0.0340871 0 2 -1 
8074 6 0.630712 0.873117 0.0152426 4 3 1 
7005 5 0.700421 0.841241 0.0269091 2 0 7 
5770 5 0.249037 0.879951 0.0184479 5 0 -2 
5587 6 0.646341 0.853009 0.025042 -6 -2 0 
5317 5 0.221054 0.864311 0.0193302 -1 1 4 
6152 6 0.244604 0.902535 0.992971 -4 1 0 
8159 5 0.572373 0.928319 0.0368046 2 -4 -6 
6331 6 0.116316 0.924093 0.0476166 2 -2 2 
7924 6 0.14814 0.968003 0.0429041 -3 -1 0 
8705 6 0.815854 0.954766 0.0481727 0 2 1 
8272 5 0.546023 0.996007 0.00719259 4 -1 4 
7338 6 0.950755 0.988193 0.0477933 -3 -6 1 
6098 6 0.44156 0.980439 0.0613017 -1 -1 -3 
7354 5 0.538831 0.981816 0.0296038 2 2 4 
5764 5 0.809215 0.998248 0.0387777 -2 -2 3 
6873 5 0.0769717 0.00361719 0.0722051 3 0 1 
6113 6 0.436406 0.0394128 0.0310436 1 3 6 
8686 6 0.702736 0.0220048 0.071552 -6 -3 -5 
8501 5 0.0515368 0.127895 0.0658468 0 2 -5 
5894 5 0.165581 0.0822055 0.0572401 1 5 0 
5569 6 0.438848 0.138036 0.0401282 1 3 5 
7488 6 0.651023 0.12697 0.0382085 -1 -3 -1 
7810 6 0.909691 0.0932217 -0.000137441 3 -5 2 
5309 5 0.477742 0.173947 0.0587895 -2 1 2 
7708 5 0.628013 0.150735 0.0757732 2 -1 3 
8515 6 0.932669 0.141832 0.0167253 4 0 0 
5258 5 0.386746 0.160963 0.0569909 -2 -5 4 
5583 5 0.435474 0.140798 0.0749215 -3 -2 -1 
8997 6 0.0561008 0.227287 0.0386212 2 -3 -4 
5132 5 0.653994 0.272083 0.0728892 -3 -1 5 
5521 5 0.857751 0.229274 0.0632617 -1 1 2 
8016 5 0.0874823 0.304889 0.0532817 2 4 0 
6110 6 0.684778 0.311248 0.0463204 3 1 -2 
5737 5 0.924865 0.263726 0.035235 1 3 -1 
7092 6 0.693099 0.302822 0.0710079 0 -5 1 
8593 6 0.634146 0.321785 0.0549333 -3 1 -9 
5942 5 0.0986795 0.335336 0.0843863 -5 -1 -4 
6700 6 0.29957 0.377007 0.0342706 1 0 0 
7114 5 0.71349 0.407824 0.0786244 3 -2 2 
7868 5 0.113657 0.396248 0.0396647 1 0 7 
8425 5 0.224772 0.440241 0.0528825 0 -4 1 
7292 6 0.492739 0.411866 0.100825 1 3 -1 
8802 6 0.0165038 0.421962 0.0674422 1 1 5 
5146 5 0.435762 0.424878 0.0620704 -2 -5 4 
6051 6 0.854903 0.493658 0.0782425 -4 -2 0 
6319 5 0.964299 0.489953 0.0291479 0 3 1 
5650 5 0.0995002 0.477543 0.0579244 3 2 -2 
6588 5 0.426135 0.545057 0.0318973 4 1 -1 
6265 6 0.649531 0.53881 0.0814681 -1 0 2 
7343 5 0.880123 0.493748 0.0907963 3 -4 0 
5058 5 0.161384 0.536562 0.0297379 5 -1 1 
6938 6 0.345865 0.543829 0.0448322 -2 3 -3 
5381 5 0.690403 0.548645 0.0674762 -1 2 2 
6037 5 0.802368 0.516274 0.058767 -1 -1 0 
6697 6 0.429678 0.54168 0.045632 -1 4 -1 
7697 5 0.329657 0.577751 0.0717927 -3 -1 2 
5175 5 0.925064 0.621999 0.0428593 -1 1 2 
7269 5 0.914846 0.600736 0.0834438 2 2 2 
6080 6 0.503473 0.658842 0.0696828 -6 -6 1 
8317 5 0.760267 0.612226 0.061604 2 3 6 
8717 6 0.0058774 0.640198 0.067281 -1 2 2 
7786 6 0.159657 0.699343 0.0818043 -2 -2 2 
5538 6 0.106281 0.655587 0.0671423 -3 -4 2 
6506 5 0.608961 0.743858 0.0691789 -4 0 -1 
5586 6 0.0187028 0.772108 0.0427448 -2 -1 3 
7754 5 0.75453 0.796507 0.0677306 3 -1 3 
5222 6 0.665194 0.803622 0.046838 0 -4 0 
6409 5 0.918281 0.825145 0.052899 2 -1 3 
6217 6 0.03423 0.861585 0.0641314 4 -5 -3 
7358 6 0.205057 0.868574 0.054645 3 1 3 
7688 6 0.432164 0.883218 0.0380044 1 2 -1 
7399 6 0.366262 0.853042 0.0590303 3 -3 3 
7811 5 0.972099 0.858402 0.0453341 5 2 -4 
5811 5 0.54175 0.877504 0.0438215 3 2 1 
5868 6 0.945823 0.898941 0.0823689 0 -4 0 
6361 5 0.0404107 0.943696 0.0506551 -3 -2 3 
8504 6 0.43527 0.963069 0.0548816 -3 -4 -3 
8992 6 0.233625 0.0137401 0.100249 3 -2 4 
6517 6 0.437246 0.020139 0.0963196 1 1 1 
5706 6 0.306099 0.999306 0.0717748 0 -2 -2 
5559 6 0.60181 0.0496328 0.0931513 0 1 10 
6211 6 0.325923 0.0467122 0.0845487 1 -1 3 
5268 5 0.660381 0.0407263 0.0663482 -4 5 1 
5857 5 0.842189 0.0385559 0.0720668 2 0 2 
6176 6 0.227736 0.0783677 0.0685365 -2 -4 0 
7023 6 0.519242 0.084422 0.0901246 7 2 -4 
5402 5 0.565453 0.109621 0.0489858 2 -1 0 
8636 6 0.068777 0.0800795 0.085948 0 -3 1 
8303 5 0.100322 0.10773 0.102439 3 1 3 
7861 5 0.825775 0.115032 0.0687064 -3 -4 0 
7819 6 0.449819 0.14007 0.0681419 -5 1 1 
8169 6 0.883754 0.143892 0.0599576 0 -1 0 
7574 5 0.073804 0.165876 0.112412 2 1 1 
8768 5 0.491551 0.17354 0.0980907 2 -2 2 
8913 6 0.53847 0.178853 0.0656047 4 0 0 
6382 5 0.830707 0.184725 0.0916141 1 -4 1 
5181 5 0.479641 0.216747 0.0990873 0 -2 0 
8644 6 0.635142 0.176299 0.0975569 4 8 2 
6237 6 0.0307699 0.230699 0.101646 4 -3 4 
7541 5 0.0449614 0.245206 0.0947164 3 -2 -1 
5421 5 0.502396 0.255518 0.101407 0 -9 8 
6810 5 0.769682 0.292179 0.0794939 1 2 -3 
5836 5 0.210336 0.288402 0.0620364 3 -2 -4 
5079 6 0.647471 0.299372 0.117826 -1 -1 -2 
8602 6 0.906901 0.286833 0.0797204 -2 4 3 
7055 6 0.192159 0.332919 0.0544344 -3 2 2 
7497 5 0.253633 0.303259 0.0544957 -2 3 2 
8986 6 0.329852 0.319964 0.0619346 2 -1 4 
5185 6 0.223715 0.339493 0.0761225 -5 1 -2 
7743 5 0.336071 0.37528 0.0917169 -2 -5 2 
7746 6 0.184624 0.40395 0.115186 4 1 0 
5377 6 0.489503 0.409263 0.0925052 0 -3 0 
5931 6 0.0763821 0.429138 0.0956959 2 0 -1 
8946 5 0.398869 0.422574 0.0754454 -4 2 -2 
5585 6 0.422606 0.431209 0.0829222 0 6 -1 
5834 6 0.741697 0.46943 0.078802 0 3 0 
6765 5 0.130526 0.553172 0.0664328 2 -1 0 
6253 6 0.378441 0.55492 0.0655462 4 1 2 
7058 6 0.533466 0.527248 0.0728759 5 -2 2 
8667 6 0.00742667 0.568882 0.0756623 -3 -2 0 
5386 6 0.109747 0.563785 0.0697502 -3 3 4 
7424 6 0.373369 0.565929 0.0970702 -1 6 1 
6781 5 0.68461 0.588842 0.0605011 0 3 0 
5156 5 0.600699 0.56713 0.0568889 1 -3 3 
7770 5 0.596526 0.625827 0.0707126 -4 -5 3 
7321 6 0.89727 0.592651 0.101087 0 -2 2 
5427 5 0.481529 0.620523 0.084003 -1 1 1 
7862 6 0.734668 0.636109 0.0987294 -3 -5 3 
7696 6 0.261876 0.662357 0.0473078 1 1 3 
7813 6 0.352136 0.636091 0.073713 4 2 3 
5256 5 0.412454 0.687805 0.100742 -3 -1 3 
7112 6 0.568505 0.739621 0.0737195 1 -4 2 
8881 6 0.949405 0.65138 0.0585072 3 -3 3 
7297 6 0.431539 0.721765 0.065466 3 -5 1 
8839 6 0.310018 0.721451 0.0715047 5 0 -2 
8829 5 0.900866 0.722656 0.0438993 -5 5 0 
6795 6 0.615661 0.756674 0.0848235 1 -3 -4 
7490 5 0.189804 0.803694 0.0762966 -3 2 5 
5893 5 0.607688 0.759478 0.117725 0 -3 1 
7120 6 0.0502523 0.825969 0.0450165 -3 0 -2 
5765 5 0.981331 0.797789 0.0955691 1 0 4 
5254 5 0.122818 0.838032 0.0929667 1 2 -2 
7952 5 0.772747 0.839396 0.102198 0 2 2 
5505 6 0.859162 0.808378 0.0780115 3 2 1 
8675 5 0.931518 0.82288 0.101101 4 -3 1 
8151 6 0.891877 0.831176 0.0818801 5 -3 1 
6772 6 0.189734 0.853748 0.0838347 3 -1 0 
7988 6 0.74532 0.836596 0.109522 -5 2 -2 
7975 5 0.567173 0.899111 0.079018 6 3 -1 
7162 5 0.866802 0.893679 0.0418897 -7 0 7 
8200 5 0.438111 0.919542 0.0737377 0 1 4 
6911 5 0.989806 0.938901 0.107479 3 -2 0 
6707 5 0.0507018 0.91148 0.0881388 0 -2 0 
5051 6 0.0219077 0.935452 0.0624825 -4 0 3 
5773 6 0.711487 0.920916 0.0461486 -4 2 0 
5220 6 0.792107 0.947285 0.0715955 -8 1 -3 
5919 6 0.869921 0.922887 0.0697656 4 1 1 
6616 6 0.993272 0.957612 0.121835 6 -3 1 
5188 5 0.462199 0.93795 0.0511867 -5 -4 4 
8351 5 0.633265 0.970324 0.086854 -3 -4 0 
5215 5 0.909622 0.971572 0.0342987 0 1 -3 
7128 5 0.216665 0.979706 0.0724638 3 -2 0 
8323 6 0.0562807 0.0260518 0.106364 0 -5 0 
7556 6 0.676885 0.0314146 0.0953701 -1 5 0 
5448 5 0.275942 0.0199511 0.124682 4 2 1 
6147 6 0.500186 0.021086 0.106148 2 1 1 
7966 5 0.974018 0.0248005 0.103553 0 -2 -4 
6866 6 0.0624886 0.0491735 0.10085 2 4 2 
5244 6 0.0597214 0.0825054 0.114565 0 -3 2 
5085 5 0.670048 0.0299887 0.123804 1 -3 -1 
8423 6 0.957716 0.0841892 0.0857413 3 -1 -4 
8284 6 0.444395 0.100116 0.0888603 6 -2 0 
7510 5 0.962015 0.107592 0.110174 -2 -2 -1 
5457 6 0.937816 0.137048 0.115869 -4 1 -3 
6992 5 0.586486 0.145377 0.0974465 -1 -3 -1 
7324 6 0.0826791 0.220412 0.117377 1 7 0 
5163 5 0.14689 0.256304 0.104493 0 4 0 
7009 5 0.557193 0.232986 0.0563055 3 0 -2 
8391 6 0.835858 0.246944 0.0829005 -1 5 2 
5530 6 0.325171 0.250802 0.108718 1 5 0 
5859 5 0.512471 0.257694 0.0792283 -6 0 5 
5305 5 0.744564 0.286305 0.0954075 0 -2 -5 
6252 6 0.787609 0.235892 0.0780193 1 0 2 
7596 5 0.87444 0.296404 0.0814271 1 -3 -1 
8920 5 0.3882 0.271965 0.146176 -1 -4 -6 
7362 5 0.850616 0.283141 0.106085 -1 1 -2 
6942 5 0.474129 0.295538 0.105268 2 3 1 
8095 6 0.641142 0.321472 0.121462 0 -2 0 
8731 6 0.0917939 0.365306 0.0782938 1 -3 6 
5678 6 0.480487 0.357895 0.0893276 4 -2 -1 
5417 6 0.768016 0.370161 0.0724495 -2 3 2 
7287 5 0.435974 0.408386 0.106544 3 1 1 
6416 6 0.711473 0.395594 0.0895176 4 -3 2 
8177 6 0.848208 0.382993 0.0968487 0 0 -4 
7787 6 0.860413 0.38924 0.076768 1 0 -3 
7795 5 0.950672 0.453681 0.0852984 -3 2 3 
7243 5 0.271531 0.521319 0.0780512 4 2 1 
8039 6 0.632137 0.507181 0.0260717 4 3 0 
5041 5 0.0950546 0.494518 0.100459 -1 0 -4 
6884 5 0.971164 0.522832 0.114851 0 1 -2 
8076 6 0.221436 0.581726 0.0827538 1 -3 0 
6930 5 0.0572879 0.579177 0.159732 5 4 -2 
5805 6 0.460816 0.579744 0.107393 -6 0 0 
8400 6 0.638455 0.598161 0.113922 -2 -6 -3 
8945 6 0.800261 0.559918 0.139646 -3 -2 2 
5023 5 0.473233 0.579643 0.108777 1 4 2 
5993 6 0.302592 0.628072 0.0946363 3 1 2 
5340 5 0.991417 0.607855 0.109039 -3 -2 -2 
5452 5 0.074711 0.674686 0.115773 1 -2 1 
5878 6 0.193967 0.674594 0.103507 1 4 6 
6917 5 0.2845 0.621483 0.0878722 -2 -5 -1 
8618 6 0.2953 0.606589 0.148971 -7 0 -3 
5329 5 0.936336 0.647795 0.14369 1 -2 -1 
8046 5 0.441794 0.661438 0.0679318 -1 -1 -2 
5123 6 0.655792 0.652093 0.0637989 0 2 3 
6052 6 0.799469 0.71067 0.0687015 -3 2 1 
5026 6 0.883267 0.67166 0.123702 0 -3 0 
7735 6 0.209157 0.675988 0.13294 0 -3 4 
6560 5 0.477607 0.704803 0.0841865 0 -2 0 
8535 6 0.681696 0.738951 0.0881362 -2 -4 -1 
5106 5 0.820039 0.685049 0.100744 -1 -2 -1 
5119 5 0.00208796 0.72028 0.0820583 -5 -1 1 
5405 6 0.112106 0.716606 0.115713 0 5 4 
6621 5 0.373114 0.731108 0.169065 5 -4 0 
5997 5 0.664273 0.74044 0.0923325 -6 6 -2 
7516 6 0.737506 0.738694 0.113621 -2 4 -4 
6845 6 0.0340155 0.78658 0.0906391 2 2 3 
6542 5 0.74037 0.825196 0.0816788 2 1 0 
7231 5 0.440373 0.825765 0.135622 -1 0 1 
6172 5 0.571969 0.830004 0.127575 1 0 3 
8583 5 0.683965 0.861535 0.0746169 1 -2 -5 
6073 6 0.743381 0.880766 0.0960668 2 1 7 
5829 5 0.754461 0.852799 0.0895971 0 -1 5 
5845 6 0.534599 0.886994 0.150362 0 -6 2 
8869 6 0.210565 0.901464 0.0857336 4 -3 2 
5994 6 0.202139 0.958409 0.0804125 -1 1 -5 
5356 5 0.464784 0.931746 0.0671365 0 2 -2 
5499 6 0.788334 0.945896 0.102655 -3 -1 0 
6644 6 0.759182 0.970713 0.117793 -1 3 -3 
6245 6 0.950775 0.990515 0.102812 -6 5 6 
8707 5 0.504997 0.000300518 0.135778 3 -1 2 
7668 6 0.524794 0.995831 0.119179 -7 0 0 
8216 6 0.816354 0.976785 0.135234 1 -2 -4 
6882 5 0.128974 0.061958 0.166319 5 -1 -2 
8496 5 0.83287 0.0750924 0.119149 -2 1 -1 
5352 6 0.635658 0.0704091 0.121143 -1 4 -6 
5614 6 0.790742 0.0712614 0.163809 -2 -2 0 
8569 6 0.493548 0.100177 0.119439 5 3 0 
7142 6 0.898878 0.142464 0.160868 0 4 1 
8868 6 0.591967 0.135472 0.121997 -6 0 3 
6901 6 0.878399 0.149628 0.0789746 1 -1 1 
7526 5 0.580063 0.165797 0.13535 -1 -2 4 
5169 5 0.726312 0.185347 0.174798 -1 5 5 
7466 5 0.136657 0.163877 0.145925 3 2 -2 
8714 5 0.910389 0.188735 0.151601 -1 -1 -3 
6674 6 0.450033 0.252421 0.118996 4 1 1 
5431 5 0.179026 0.25193 0.116367 1 -2 3 
7807 6 0.113342 0.310858 0.0911459 3 0 7 
6137 6 0.596871 0.296361 0.112574 -2 -3 -5 
8141 6 0.439641 0.313097 0.127111 2 1 1 
6920 5 0.698656 0.307933 0.114657 -3 4 2 
8528 5 0.616266 0.332679 0.128096 -1 1 1 
7476 5 0.623584 0.319404 0.145862 -3 0 6 
5075 5 0.166853 0.378297 0.0892407 3 0 -3 
8241 6 0.785022 0.377078 0.145795 -1 3 1 
8041 5 0.941587 0.350961 0.0874075 1 1 0 
7185 5 0.245838 0.387514 0.126635 0 0 -2 
5095 5 0.371421 0.407293 0.164962 -2 2 -4 
8337 6 0.30625 0.424399 0.133406 -3 1 0 
5021 5 0.403707 0.449032 0.0820014 -1 2 4 
7171 6 0.727856 0.550067 0.120221 2 -3 -3 
8894 6 0.0598258 0.488312 0.140238 -2 0 -1 
5141 5 0.176974 0.517494 0.144771 1 1 -2 
8790 5 0.854353 0.520078 0.0752044 4 3 1 
5736 5 0.223278 0.547653 0.139202 1 -5 2 
6330 5 0.810473 0.566633 0.0975158 5 0 4 
8195 6 0.146586 0.591193 0.123165 0 2 1 
6378 5 0.405757 0.555934 0.100389 5 -3 -5 
6821 6 0.579356 0.565048 0.0842008 0 3 -4 
7883 5 0.929106 0.544429 0.126399 -1 -1 -2 
5905 5 0.282769 0.629333 0.137304 4 4 6 
7632 5 0.893642 0.62865 0.138914 0 -2 1 
8408 6 0.666241 0.610829 0.142977 3 -4 -2 
5568 5 0.882677 0.719211 0.14171 0 4 2 
5459 5 0.61462 0.714557 0.111424 0 -2 -1 
6586 6 0.487276 0.692155 0.137014 3 3 -5 
8394 6 0.754079 0.708394 0.125452 1 0 3 
8155 6 0.754698 0.731943 0.112947 -2 -3 2 
5629 5 0.14643 0.741776 0.152101 2 -4 2 
8490 5 0.139661 0.775278 0.156163 3 -1 1 
5789 6 0.323772 0.728691 0.140751 1 -4 -4 
5733 6 0.302431 0.776469 0.0887783 0 0 0 
5430 5 0.982558 0.764267 0.123919 2 1 2 
5724 5 0.123351 0.786771 0.131385 6 0 1 
8492 5 0.290488 0.808725 0.157194 -3 -2 3 
7513 5 0.51793 0.804913 0.0983417 -3 2 -4 
8856 5 0.880982 0.812487 0.173891 -3 -1 -1 
8171 5 0.382984 0.847978 0.125388 3 2 6 
8182 5 0.0131013 0.890501 0.142805 -5 2 -2 
5233 6 0.343669 0.903379 0.0997323 5 0 1 
7731 5 0.463441 0.935241 0.125307 0 -3 2 
8742 6 0.286169 0.943243 0.11411 1 1 3 
8328 6 0.708156 0.939375 0.140675 0 -1 -1 
7937 5 0.735257 0.940489 0.101706 4 0 -5 
8417 5 0.676185 0.991338 0.115664 -1 1 -3 
8453 5 0.859444 0.989246 0.154989 -2 -1 3 
6290 6 0.329396 0.951706 0.142464 1 1 4 
6937 6 0.519964 0.00299544 0.148901 -5 -5 0 
8619 6 0.970882 0.0031858 0.12024 -2 -1 7 
5557 6 0.23033 0.991385 0.133491 3 3 -4 
8765 6 0.636797 0.99423 0.134721 -3 5 2 
5320 6 0.842811 0.99805 0.119074 1 -4 -2 
5125 6 0.0941675 0.026158 0.167485 4 3 1 
8777 6 0.350406 0.0124676 0.124612 -2 5 -1 
5545 5 0.926322 0.0498997 0.148875 -8 0 -1 
7201 5 0.929422 0.0705244 0.152234 -4 0 -4 
7547 6 0.00563878 0.101725 0.157854 -4 1 0 
5118 6 0.408883 0.0908298 0.150153 0 -2 -1 
8468 6 0.496253 0.0386183 0.139192 0 -2 0 
6093 6 0.309488 0.0484196 0.118488 4 0 0 
6895 6 0.82275 0.0764401 0.141904 2 3 4 
5624 6 0.32616 0.119906 0.147081 -4 2 -4 
7284 5 0.254255 0.102241 0.0961406 -1 0 2 
8075 5 0.260611 0.172662 0.116398 0 3 3 
5518 5 0.378663 0.143609 0.15468 4 -5 5 
8800 6 0.70921 0.161864 0.152738 -4 -2 -2 
6136 5 0.710993 0.147538 0.163778 2 1 7 
8640 5 0.134761 0.144363 0.149572 2 2 -2 
6386 5 0.172103 0.184561 0.160228 -2 -3 1 
8434 6 0.308624 0.13206 0.181599 -1 1 -4 
7167 5 0.596069 0.188026 0.169386 -3 1 2 
6362 6 0.60529 0.160205 0.111696 -3 1 4 
7601 6 0.937045 0.160532 0.172924 2 -4 -1 
7100 5 0.272532 0.170358 0.149554 3 2 1 
6748 6 0.243976 0.170375 0.132163 3 4 -4 
7621 6 0.740507 0.188597 0.161682 -5 -4 7 
7420 6 0.205613 0.220759 0.163203 0 2 7 
6715 5 0.481227 0.252908 0.134786 4 6 -1 
6165 5 0.576382 0.198759 0.138157 2 -5 -1 
6240 6 0.0643524 0.257425 0.132574 -4 7 3 
5237 5 0.212409 0.236165 0.164589 3 -5 1 
6283 6 0.606414 0.230168 0.144317 -2 2 0 
5195 6 0.926303 0.250218 0.163986 3 -1 4 
8927 5 0.574895 0.276162 0.154338 0 -2 -4 
6564 6 0.709182 0.271637 0.184353 2 0 0 
7038 6 0.291201 0.29716 0.121007 -2 4 -1 
8849 6 0.325832 0.296974 0.125122 -4 -1 0 
8482 5 0.56629 0.317442 0.17019 2 -3 -2 
6383 6 0.216168 0.367887 0.13631 1 -5 3 
6668 5 0.556581 0.418217 0.144559 0 -5 1 
6134 5 0.388071 0.425342 0.15469 -1 2 5 
5403 6 0.632381 0.424151 0.156904 -2 1 -2 
7209 6 0.159206 0.436079 0.116073 -5 4 -2 
7342 5 0.312203 0.433722 0.167412 -5 -3 -1 
8764 6 0.0801289 0.473165 0.128254 -1 1 -4 
6725 6 0.458129 0.458219 0.128272 1 2 0 
7219 6 0.457949 0.451897 0.156036 -2 3 6 
7218 5 0.885251 0.476365 0.167874 3 -2 -3 
6567 6 0.708346 0.499999 0.109189 -1 7 3 
7842 6 0.794967 0.450706 0.144899 -2 4 -2 
7899 5 0.980041 0.529808 0.142632 2 -3 -2 
5534 6 0.900928 0.581312 0.152658 -3 -1 -1 
5110 6 0.868983 0.530666 0.143856 -2 -3 1 
7755 6 0.971959 0.574974 0.165051 2 -2 0 
7814 6 0.301576 0.587515 0.106554 -2 -3 -3 
7421 5 0.932383 0.533065 0.157468 -2 1 4 
5487 6 0.099637 0.597399 0.138336 -3 -4 -1 
7330 6 0.665118 0.583984 0.169824 0 0 1 
8107 6 0.221384 0.650115 0.133761 -2 0 -2 
5581 6 0.492458 0.605172 0.134179 -4 -3 -1 
5746 5 0.48932 0.591493 0.151173 1 0 2 
7266 6 0.382586 0.629122 0.155924 2 -6 2 
7518 5 0.136055 0.634929 0.164578 2 4 -3 
6531 6 0.196378 0.62658 0.131473 0 4 6 
5551 6 0.440554 0.644527 0.153046 -5 -7 4 
8844 5 0.838559 0.628488 0.164553 5 1 1 
7391 5 0.802916 0.663091 0.147809 3 -3 5 
8761 6 0.314825 0.681049 0.168932 4 3 0 
8665 5 0.703089 0.708788 0.146798 3 -5 -3 
6112 6 0.909212 0.731469 0.138758 3 1 -1 
6787 6 0.115091 0.752592 0.110655 0 -2 2 
8666 5 0.246278 0.816963 0.174427 1 0 2 
7689 6 0.933729 0.752405 0.151782 -2 2 4 
7956 6 0.20474 0.843904 0.159132 0 1 6 
8281 6 0.634324 0.820012 0.129465 4 0 1 
8176 5 0.772693 0.811167 0.131875 -2 -2 -3 
8242 5 0.899145 0.845931 0.150951 1 0 2 
5490 5 0.0475625 0.819067 0.137936 -1 -1 -7 
8051 6 0.483228 0.864014 0.157982 -1 0 -1 
7374 5 0.620347 0.874055 0.145733 -3 1 1 
6218 5 0.68578 0.857053 0.129926 4 0 -3 
8363 5 0.174385 0.879737 0.133745 1 5 -4 
6359 5 0.298682 0.88957 0.143246 0 0 -2 
5186 5 0.351704 0.933312 0.131417 0 -3 2 
5205 5 0.191171 0.926051 0.16471 2 1 6 
7768 6 0.480156 0.965615 0.177584 -4 -1 4 
6842 6 0.598264 0.937852 0.186815 -2 4 -4 
6481 6 0.496614 0.0153308 0.192808 -3 0 -4 
6456 6 0.540705 0.0338666 0.149468 -4 0 3 
7088 6 0.598778 0.983276 0.141053 -1 -4 4 
8257 5 0.748772 0.0145255 0.143504 1 -1 0 
8748 6 0.49973 0.0507524 0.187423 -1 -2 1 
5495 5 0.861978 0.107113 0.148013 -4 4 1 
5477 6 0.979852 0.118058 0.124362 -2 3 0 
6967 5 0.0785135 0.188657 0.207197 2 -3 5 
8495 5 0.214601 0.191899 0.175429 1 3 0 
8831 6 0.752212 0.159595 0.109327 -2 -4 0 
7938 5 0.833867 0.142561 0.231623 -1 0 4 
6595 6 0.333527 0.15371 0.137638 1 5 -5 
6557 6 0.800071 0.169781 0.176632 -1 -1 4 
5124 5 0.0943001 0.258489 0.180008 -3 3 0 
7498 6 0.752379 0.213634 0.161073 -5 1 -1 
6329 6 0.861008 0.220839 0.122181 -4 4 -2 
7695 6 0.364706 0.220635 0.143255 1 0 -3 
8080 5 0.470411 0.221947 0.182943 -5 -1 2 
5751 6 0.187052 0.26083 0.169737 2 -1 0 
5971 6 0.379445 0.259709 0.153183 -3 2 2 
6441 6 0.917177 0.296688 0.179625 -2 3 -1 
6881 5 0.917065 0.303652 0.160903 -1 3 -6 
7705 6 0.361386 0.330438 0.169778 1 3 3 
5453 6 0.376186 0.319241 0.164269 -1 1 -3 
8225 6 0.478019 0.364827 0.162469 -2 3 0 
8021 5 0.133921 0.321694 0.148239 -2 0 2 
8150 5 0.423769 0.32777 0.184574 0 5 -3 
6818 6 0.899161 0.376891 0.201207 4 -9 -1 
8318 5 0.139223 0.381789 0.165461 -2 -4 -3 
6154 5 0.533283 0.416192 0.197695 -4 3 -1 
7973 5 0.383802 0.425357 0.175769 -4 0 0 
8295 6 0.705137 0.445771 0.179666 -1 5 1 
7408 5 0.278755 0.459359 0.149575 -1 -1 1 
5810 5 0.555372 0.497296 0.181025 1 -2 4 
7748 5 0.930127 0.490288 0.142302 2 0 -6 
5778 6 0.918787 0.490903 0.164439 0 -3 -1 
6169 5 0.368414 0.455185 0.163507 -1 -2 -2 
5524 5 0.518655 0.465702 0.154753 -1 -5 -1 
6861 5 0.662307 0.485534 0.162337 6 4 0 
6518 6 0.831308 0.492162 0.125863 0 1 0 
7328 5 0.979448 0.538899 0.191991 1 4 3 
7832 6 0.0558215 0.513078 0.200602 2 -4 1 
6888 5 0.377629 0.560522 0.206003 -1 0 -2 
5838 5 0.353152 0.53288 0.174915 2 0 2 
8148 6 0.782784 0.542964 0.190511 1 4 3 
8901 6 0.407475 0.569734 0.182361 -1 -5 2 
7512 6 0.541174 0.58867 0.194851 3 6 1 
6142 6 0.0718975 0.570049 0.177475 0 -1 1 
5591 6 0.526487 0.561446 0.172461 5 1 5 
8005 5 0.361209 0.640716 0.192543 0 -2 2 
6803 5 0.454009 0.608832 0.153917 2 1 3 
8652 6 0.510436 0.590775 0.175943 0 2 0 
7119 6 0.888921 0.574986 0.180949 1 0 3 
5679 6 0.0311147 0.595207 0.179909 -2 -1 0 
8003 5 0.137526 0.640528 0.188248 1 4 2 
7737 6 0.800846 0.63367 0.163951 -1 -2 1 
8546 6 0.279152 0.654402 0.160178 1 0 -2 
8758 5 0.523914 0.709233 0.16835 0 -1 3 
5864 6 0.857552 0.659708 0.14059 -3 5 0 
8886 6 0.484038 0.679566 0.166792 -3 -2 2 
7806 5 0.738486 0.69066 0.176313 -3 4 1 
5537 5 0.873052 0.709699 0.160001 -1 0 2 
6773 6 0.577114 0.704326 0.144023 -1 3 -4 
5351 6 0.0997444 0.734921 0.189016 5 0 2 
8601 5 0.307749 0.760361 0.18198 -1 3 -1 
7206 6 0.635844 0.788781 0.187849 -2 4 3 
7147 5 0.868592 0.736321 0.169659 -2 -3 6 
7384 5 0.0741245 0.722521 0.13483 1 -3 0 
8531 6 0.458919 0.795114 0.17843 -1 2 2 
7638 5 0.0457005 0.800376 0.184218 -2 3 -1 
5623 5 0.61464 0.769599 0.181792 -7 -2 -1 
6976 5 0.715902 0.78925 0.152573 -1 2 1 
7878 6 0.256851 0.793724 0.162913 3 -5 -3 
7496 6 0.653354 0.820973 0.159569 2 2 2 
8990 6 0.114731 0.849681 0.170267 1 1 -1 
6798 6 0.481833 0.836111 0.160437 -1 -3 0 
8871 6 0.272708 0.881711 0.187376 -2 2 -5 
8816 6 0.40957 0.88378 0.142821 -1 -2 3 
7373 6 0.7218 0.827709 0.207021 -6 -3 1 
5626 6 0.908824 0.869479 0.209466 4 4 -2 
7149 6 0.118688 0.917914 0.18817 -5 0 5 
8937 6 0.925075 0.893877 0.182138 1 -1 -3 
5978 5 0.150858 0.923551 0.151541 3 -3 -4 
8233 6 0.166813 0.954305 0.155941 1 1 5 
8624 5 0.249976 0.987347 0.145418 0 0 0 
6626 6 0.325414 0.942505 0.195045 0 -1 -1 
6639 6 0.620241 0.938939 0.172116 2 -5 1 
5142 6 0.951485 0.997809 0.159927 0 0 -1 
7907 6 0.956675 0.982604 0.16615 -2 -5 -3 
7462 5 0.616001 0.0484599 0.194717 -1 -1 -2 
5839 5 0.265158 0.0406278 0.227726 -2 -3 2 
6015 6 0.505871 0.0516307 0.22026 1 1 0 
5911 5 0.587838 0.0984672 0.176052 4 3 -4 
7527 5 0.728691 0.0438377 0.199368 -4 -7 2 
8827 5 0.297865 0.118234 0.187067 4 -1 -3 
8599 6 0.731361 0.15447 0.168322 0 -3 3 
5225 6 0.360829 0.141464 0.215738 0 0 2 
8139 5 0.366321 0.129486 0.19547 -2 2 4 
7725 5 0.684313 0.144308 0.211103 -1 1 0 
8440 5 0.491941 0.171462 0.173011 -1 -6 -2 
5383 6 0.767324 0.155987 0.206015 1 -3 3 
8633 6 0.909124 0.155283 0.182428 1 -3 3 
7677 6 0.954306 0.182891 0.195656 1 2 0 
5273 5 0.894329 0.172028 0.200341 2 0 2 
6376 5 0.221874 0.18672 0.176301 4 -1 -1 
5330 6 0.120825 0.207484 0.225726 0 -6 4 
7204 5 0.322042 0.205619 0.196615 -11 3 2 
5086 6 0.062342 0.277057 0.194908 2 -5 -5 
6194 6 0.601736 0.244813 0.174449 4 3 6 
7443 5 0.763988 0.268427 0.201176 0 -1 -2 
8416 6 0.899605 0.266097 0.232954 3 2 -2 
7049 6 0.910373 0.271644 0.194244 3 -1 -2 
7086 6 0.935063 0.250611 0.210393 -2 0 -2 
5157 5 0.0546259 0.281116 0.187818 -3 -2 0 
5440 6 0.141054 0.309586 0.193481 0 0 -2 
7355 6 0.686093 0.30548 0.222531 7 1 2 
5302 5 0.77216 0.311642 0.209373 5 -1 5 
6173 6 0.830668 0.327455 0.228084 5 1 -2 
6958 6 0.664149 0.352927 0.244834 1 -7 5 
5364 6 0.0166075 0.364403 0.161365 3 -1 1 
6490 5 0.293068 0.389506 0.200246 5 3 -4 
5056 5 0.177191 0.44618 0.187525 -3 7 -1 
5077 5 0.656998 0.409042 0.218209 1 1 -2 