ITEM: TIMESTEP
20000000
ITEM: NUMBER OF ATOMS
9000
ITEM: BOX BOUNDS pp pp pp
-75 75
-75 75
-75 75
ITEM: ATOMS id type xs ys zs ix iy iz 
5305 5 0.517438 0.00449638 0.0217022 1 1 -4 
7974 6 0.53621 0.0103698 0.98805 -2 0 -2 
6694 6 0.0823565 0.0918494 0.0481828 -6 -1 -4 
6866 5 0.534728 0.0274638 0.978063 -7 5 2 
5041 6 0.821562 0.0480504 0.0386915 3 -2 7 
5470 6 0.134098 0.0343282 0.0118755 1 -2 0 
6525 6 0.357222 0.0522515 0.988871 4 2 0 
5502 6 0.642722 0.076785 0.999452 0 8 -1 
8965 6 0.834101 0.057306 0.030508 -1 0 -2 
7649 5 0.35309 0.0860533 0.0448748 1 -1 2 
5772 6 0.806588 0.0905143 0.985717 -1 0 5 
8323 6 0.261193 0.102759 0.0249967 7 -3 -1 
8788 6 0.373124 0.109477 0.0215848 1 0 -1 
6327 6 0.516218 0.0659055 0.988741 -4 4 -4 
7373 6 0.0835796 0.112748 0.0610381 -4 5 0 
5719 5 0.0238453 0.123341 0.0368114 0 1 -5 
5677 5 0.129157 0.197538 0.0330117 0 2 -5 
7725 6 0.641951 0.216646 0.01755 -5 2 -3 
5611 5 0.933197 0.194756 0.999307 -2 -1 -2 
8261 5 0.347827 0.200074 0.00939921 1 2 0 
8021 6 0.640362 0.245068 0.00136865 -2 1 1 
8935 5 0.970867 0.241096 0.986143 -1 -2 -4 
8985 5 0.185617 0.265432 0.0272479 -2 -2 0 
5963 5 0.824666 0.249576 0.0144495 2 4 -4 
6782 6 0.857823 0.233324 0.00946833 -6 3 0 
6005 5 0.00590743 0.219784 0.0213141 0 1 -2 
5952 5 0.110303 0.268122 0.0295648 -1 0 2 
8431 6 0.19936 0.267645 0.041467 4 0 3 
5081 6 0.319407 0.253843 0.0431547 2 -3 0 
7396 6 0.51139 0.233116 0.994033 0 1 -7 
7627 5 0.777789 0.249455 0.00140614 -2 -2 0 
5582 6 0.818803 0.23143 0.0167058 -2 -1 4 
7874 5 0.123339 0.326955 0.985762 2 -2 1 
7819 5 0.286773 0.279379 0.0119883 -2 -5 3 
7459 5 0.928309 0.328743 0.0396683 -5 0 3 
8984 6 0.98015 0.321892 0.0236617 -1 -2 3 
5154 6 0.996249 0.294172 0.0176959 0 -2 1 
8262 6 0.501897 0.315056 0.0346629 3 -3 -3 
5364 6 0.867176 0.33412 0.0394089 -3 -3 1 
5111 6 0.0442516 0.366852 0.988586 -1 3 -3 
5356 5 0.150272 0.357228 0.981946 1 -1 1 
5322 5 0.505146 0.356545 0.0236093 -1 2 0 
5578 6 0.462418 0.372675 0.02171 1 5 2 
5617 6 0.502314 0.36643 0.0106538 -1 1 -2 
7473 6 0.225695 0.414734 0.0151922 1 1 -5 
5655 5 0.89802 0.425376 0.990318 4 4 2 
8485 5 0.285119 0.428812 0.00348034 4 -1 3 
7979 5 0.563772 0.436401 0.0338194 -1 -1 0 
5399 6 0.808943 0.426769 0.030223 -6 -7 0 
6941 5 0.0690809 0.45821 0.0635873 -1 -1 -5 
7341 5 0.538018 0.44789 0.0199825 0 -2 0 
7857 6 0.857138 0.485127 0.0157705 2 0 0 
8813 5 0.19815 0.486816 0.983565 -4 -1 7 
5679 5 0.733098 0.502991 0.00347859 0 -1 0 
5308 6 0.563666 0.532054 0.99491 4 2 -5 
6867 6 0.742562 0.537939 0.0525544 5 -3 2 
8644 6 0.0979286 0.522201 0.0104076 0 -3 2 
5049 5 0.751957 0.556043 0.0248437 -1 3 6 
5735 6 0.118447 0.555792 0.0548115 0 3 2 
8593 6 0.289616 0.594147 0.0350279 0 -6 0 
5974 5 0.978099 0.646281 0.00180394 0 -4 0 
6882 6 0.0648879 0.570845 0.0538638 -3 -4 -1 
8805 6 0.253834 0.568428 0.984318 3 3 1 
7700 6 0.778479 0.59424 0.0277801 -1 4 -2 
6760 6 0.146373 0.610568 0.993875 0 2 -1 
7090 6 0.314531 0.612974 0.0147772 -2 0 2 
6946 5 0.606412 0.624427 0.0253571 2 1 0 
6703 5 0.49498 0.707918 0.0125009 -2 4 2 
8179 6 0.701518 0.643241 0.0194329 0 5 1 
6496 5 0.262439 0.700598 0.996176 1 1 -2 
6324 5 0.853672 0.710237 0.994886 -1 1 -7 
8041 5 0.0567616 0.756317 0.0107983 1 1 -2 
5855 6 0.45119 0.707431 0.0330685 -4 -1 -5 
5455 5 0.608137 0.729359 0.0339917 2 -1 5 
8775 6 0.17041 0.768072 0.0218694 1 3 2 
5662 5 0.280723 0.698878 0.996558 2 0 -1 
6089 6 0.442407 0.75521 0.0244727 -3 0 0 
7583 6 0.600826 0.727751 0.0329053 -3 0 3 
7706 5 0.0106567 0.740301 0.0199309 2 0 -2 
5002 6 0.165749 0.737289 0.0141125 3 -3 5 
5828 5 0.813774 0.744374 0.0313263 -1 -2 -1 
5161 5 0.862176 0.773071 0.00319063 -3 -1 0 
8391 5 0.446155 0.754503 0.00779625 1 1 -5 
6048 6 0.482974 0.818992 0.0129364 2 5 1 
8389 5 0.900275 0.787948 0.0261344 -3 0 1 
6403 5 0.223614 0.798604 0.981877 -2 -4 0 
8606 6 0.958263 0.833996 0.9968 -1 2 -1 
8560 6 0.385136 0.809105 0.0194813 0 2 -3 
8201 6 0.255846 0.848459 0.995409 3 0 -1 
8496 6 0.448183 0.841112 0.967978 4 4 4 
5625 5 0.636523 0.849355 0.995595 -3 -2 -1 
6037 6 0.852223 0.885671 0.0126911 -4 0 -1 
5342 5 0.963591 0.871892 0.0257755 5 1 -6 
8039 6 0.205303 0.9161 0.0127036 1 -1 -2 
6455 6 0.132296 0.91819 0.0187785 2 2 1 
7089 5 0.469646 0.916199 0.00904862 6 -3 4 
8379 6 0.593147 0.959419 0.992371 2 -3 -4 
7036 5 0.235725 0.924738 0.0325972 -3 2 -1 
8979 5 0.972171 0.991142 0.00637903 0 1 -3 
5182 5 0.650566 0.0508928 0.0161764 2 -1 3 
5256 6 0.929449 0.0394729 0.0124631 1 -5 5 
7221 6 0.338312 0.115058 0.0517992 -5 -1 -2 
7691 6 0.807057 0.0709994 0.0059277 0 0 -1 
8188 6 0.25466 0.109535 0.0510614 -3 -1 -3 
7469 5 0.959681 0.161064 0.0180029 5 -3 -5 
8169 6 0.0908744 0.176956 0.0328572 1 6 3 
6935 6 0.667306 0.162445 0.0805627 3 0 -4 
7696 5 0.493905 0.18568 0.0324067 1 6 0 
5678 6 0.53795 0.204516 0.0552463 -4 -3 2 
6528 5 0.737722 0.179222 0.046513 2 4 3 
5194 6 0.510596 0.233729 0.0327463 2 -1 3 
5820 5 0.952401 0.211149 0.0411256 0 -3 -1 
6928 5 0.700381 0.214541 0.0384981 2 -1 0 
5495 5 0.260986 0.245101 0.987013 -8 -6 0 
6032 6 0.444198 0.271167 0.0202243 0 -2 -4 
8110 6 0.580102 0.290798 0.0187063 2 0 1 
6775 6 0.955474 0.246324 0.0349897 0 -2 -5 
7830 5 0.0245451 0.251091 0.0556133 2 0 3 
6095 6 0.887111 0.262248 0.00694771 0 2 1 
8060 5 0.970604 0.328412 0.0528986 -2 -1 2 
8010 5 0.75959 0.323025 0.0533977 1 -3 2 
7879 6 0.133295 0.328421 0.0032757 5 5 -3 
6459 6 0.350283 0.331607 0.0476541 0 0 -1 
8770 5 0.301352 0.369751 0.0551961 1 -1 7 
6111 6 0.590902 0.379856 0.0294708 6 0 -3 
5688 6 0.334061 0.433041 0.0441151 1 4 2 
6646 5 0.442642 0.407719 0.0257542 4 -4 1 
5360 5 0.742734 0.382708 0.0351701 0 -2 1 
8463 6 0.00901429 0.40841 0.040142 1 -1 2 
6492 5 0.360973 0.449658 0.0851723 -2 4 -1 
6457 6 0.80006 0.486031 0.0394309 -2 -5 6 
7894 6 0.939976 0.43799 0.049434 -3 2 -4 
8022 5 0.983126 0.453324 0.0435019 0 0 5 
8648 5 0.719365 0.445299 0.0389967 -4 0 -2 
5998 5 0.748283 0.485577 0.027156 -1 3 2 
6913 6 0.75564 0.475787 0.0224972 1 0 0 
8016 5 0.494529 0.45647 0.0464905 0 3 -4 
6610 5 0.7473 0.430429 0.0205718 1 -2 2 
6679 5 0.200842 0.524482 0.0527168 -1 0 8 
5019 6 0.293742 0.498647 0.0443705 -1 2 3 
8068 5 0.435375 0.500825 0.0380133 2 0 -2 
8673 6 0.677043 0.507115 0.0565839 0 -1 3 
5482 5 0.249279 0.571154 0.0440057 5 5 2 
6907 6 0.94289 0.52119 0.0373169 -3 5 -3 
7443 5 0.388651 0.554504 0.0188252 -2 2 1 
8575 6 0.6493 0.540494 0.0321068 3 1 3 
5006 5 0.818934 0.52587 0.0298507 1 -3 0 
6209 5 0.835918 0.580575 0.054606 1 -2 -3 
6680 6 0.953701 0.603917 0.0256372 -2 0 -3 
6896 6 0.165407 0.598687 0.0160618 3 0 -2 
5266 6 0.517026 0.564437 0.0637513 2 -5 3 
5748 5 0.62024 0.569291 0.0395907 -2 -3 3 
7357 5 0.103741 0.609729 0.0310673 0 -2 0 
5184 6 0.22726 0.599363 0.0345865 -1 3 2 
8669 5 0.287438 0.559044 0.0641277 5 -3 2 
5027 6 0.0659495 0.655356 0.0154344 3 1 3 
5631 5 0.650855 0.60372 0.0719258 2 1 3 
5937 5 0.507837 0.665096 0.00475873 -2 -3 -4 
7076 6 0.258717 0.663325 0.998354 -1 -6 2 
5321 6 0.842023 0.683552 0.0405219 -1 2 3 
6313 6 0.23876 0.722887 0.0294364 -1 0 1 
8524 5 0.408799 0.681387 0.0417498 2 -1 -3 
8090 5 0.524096 0.688347 0.0581239 -4 2 4 
6355 6 0.3381 0.7055 0.0295936 -3 1 -1 
6045 6 0.759852 0.713999 0.990006 1 1 -2 
7251 6 0.0725574 0.740272 0.0167483 4 -1 3 
6869 6 0.454632 0.783592 0.0531831 3 0 -1 
6249 6 0.699315 0.730302 0.0742981 -5 1 -2 
5009 6 0.786281 0.770809 0.0375348 -1 -2 3 
8315 6 0.24286 0.761982 0.0479449 -3 1 1 
8949 6 0.440646 0.785039 0.0117069 1 -1 0 
6821 5 0.900996 0.779578 0.0544118 -1 -1 -2 
6245 6 0.164575 0.825055 0.0219029 -1 -2 -4 
8085 6 0.270103 0.840764 0.0521133 1 3 -2 
6418 6 0.477865 0.853583 0.021499 3 1 0 
6862 6 0.738329 0.858404 0.0346029 -2 1 -2 
7669 5 0.0250925 0.883238 0.00195949 2 -1 6 
7701 5 0.515945 0.87058 0.0320421 0 -1 2 
8586 5 0.798511 0.910803 0.0324282 2 0 0 
6823 6 0.88011 0.886753 0.0683793 -3 -3 0 
7018 5 0.450065 0.92687 0.0397141 1 -4 -1 
8083 6 0.754913 0.920051 0.0402671 0 -2 6 
6306 5 0.893683 0.903395 0.0288211 -6 2 1 
6506 6 0.193956 0.932252 0.0581263 -2 -2 3 
8571 6 0.553818 0.938999 0.0458384 -2 0 4 
6196 6 0.114451 0.0167028 0.0705042 2 1 -1 
8653 5 0.144428 0.0249462 0.0703318 -1 -1 5 
8006 6 0.704118 0.0339189 0.0698374 -1 -2 3 
7351 5 0.0378373 0.0670544 0.0230825 1 -1 2 
6830 6 0.453661 0.0739686 0.069817 -2 1 2 
6246 5 0.481016 0.0523673 0.0645902 -5 4 0 
6085 5 0.875401 0.0692515 0.099862 -1 -1 5 
7579 5 0.776042 0.117118 0.0417934 1 -2 -5 
6454 5 0.746222 0.113581 0.0378253 1 1 2 
5832 5 0.781841 0.0772292 0.0462267 6 -4 -2 
5486 6 0.770487 0.143913 0.0628673 -3 3 0 
6024 5 0.101194 0.153197 0.0532118 -1 -1 2 
5817 6 0.337508 0.145166 0.0873765 1 -4 3 
8578 6 0.325805 0.113443 0.0419232 -3 4 2 
6023 6 0.504548 0.130373 0.0609919 0 -1 6 
6071 5 0.644009 0.168616 0.0480553 1 3 2 
6608 6 0.65763 0.191653 0.0550675 1 0 2 
7561 5 0.40454 0.210155 0.0538003 0 1 3 
8200 6 0.908931 0.15697 0.036968 -2 -5 -7 
8114 6 0.185074 0.232691 0.0260671 0 1 -4 
5003 5 0.425369 0.198818 0.0363357 -2 -2 2 
5249 5 0.787743 0.184989 0.056849 -2 3 1 
7123 6 0.550292 0.194411 0.0748634 1 -3 7 
8832 6 0.989083 0.266877 0.00998683 -1 -1 2 
7735 6 0.606272 0.318548 0.0357805 1 -1 0 
5673 6 0.994332 0.307753 0.0384682 -3 -1 2 
5636 5 0.0734087 0.323847 0.0532634 -3 -2 0 
6137 5 0.178436 0.335446 0.030866 0 1 2 
8075 6 0.662415 0.357708 0.0553903 5 6 5 
8255 5 0.962064 0.367567 0.0390271 -1 -1 -4 
6018 6 0.0721141 0.409728 0.0464569 1 1 0 
8272 6 0.186373 0.385801 0.0654994 -4 2 -1 
8724 5 0.371576 0.435268 0.0642541 3 0 -5 
5300 5 0.034025 0.403269 0.036224 -2 -1 0 
5350 6 0.0842011 0.444036 0.0631174 -3 -4 5 
5487 6 0.679671 0.445428 0.0470595 8 -5 1 
7165 6 0.745177 0.476726 0.0399466 1 3 1 
8918 5 0.130763 0.588519 0.0233772 0 3 2 
5663 6 0.681981 0.632933 0.0695412 7 -1 5 
7861 6 0.307724 0.631716 0.0743713 -7 -3 0 
7226 6 0.384218 0.623867 0.0882018 2 4 2 
5996 6 0.87197 0.638975 0.0853426 -3 1 3 
8491 5 0.0426971 0.699419 0.0501715 5 -1 1 
5575 5 0.133404 0.679151 0.0610114 -1 0 0 
5281 6 0.312694 0.697514 0.0883679 -4 4 1 
6105 5 0.358806 0.702732 0.0399346 -1 0 3 
8990 5 0.479026 0.742576 0.0548099 -1 3 3 
6489 6 0.814319 0.721186 0.0378907 0 -1 0 
8359 5 0.0064546 0.708975 0.0808428 6 -2 -3 
7606 5 0.73424 0.693634 0.0827574 -1 -2 1 
7210 6 0.59985 0.761661 0.0326792 -10 0 -1 
6367 6 0.864886 0.777345 0.0307427 1 2 3 
7331 6 0.0457334 0.782852 0.0814435 2 -1 -4 
6840 6 0.0701466 0.759991 0.0592913 0 2 -4 
7827 5 0.491825 0.821119 0.0722034 5 6 4 
8683 6 0.992587 0.816562 0.0578985 -4 4 -2 
8888 6 0.190867 0.797727 0.0373099 5 2 0 
5759 5 0.327223 0.807437 0.0722199 0 5 0 
7985 5 0.379074 0.824865 0.0702049 -3 0 -4 
5635 5 0.608756 0.828274 0.0746025 0 3 0 
6640 5 0.834841 0.832447 0.083429 4 1 5 
5731 6 0.620448 0.861448 0.065591 5 0 7 
8130 6 0.730225 0.862939 0.0212566 2 -5 9 
7060 5 0.978259 0.852632 0.0942225 3 -3 3 
8634 5 0.27884 0.893743 0.0417865 1 3 -1 
8974 5 0.910732 0.900288 0.0643171 0 2 3 
8576 5 0.699137 0.858173 0.0656134 3 0 4 
6353 5 0.276324 0.906709 0.00716661 -1 1 2 
7962 5 0.234471 0.9328 0.00662883 -2 3 6 
5841 5 0.770183 0.924803 0.0632882 -3 3 -1 
5544 5 0.828513 0.932316 0.036322 2 -5 1 
7905 5 0.27513 0.962138 0.0286188 -2 -4 5 
6171 6 0.350451 0.987259 0.0552119 2 -1 -3 
6961 5 0.911468 0.975705 0.0788689 -3 2 2 
8750 5 0.286352 0.972401 0.0750346 3 0 6 
8505 6 0.361536 0.976456 0.0657499 -7 5 -2 
5077 6 0.382245 0.0122166 0.0316521 8 3 2 
5221 5 0.616671 0.968642 0.0636344 4 5 -1 
6193 5 0.216888 0.0218723 0.111353 3 -2 3 
5892 6 0.502918 0.00822371 0.072551 -2 0 0 
5601 6 0.684545 0.0240534 0.0887135 1 3 0 
8904 5 0.0836292 0.00771166 0.0851295 -4 -1 -3 
8828 6 0.483541 0.0734401 0.123923 1 -1 -2 
7733 6 0.59151 0.0706506 0.0546657 3 -2 0 
5507 6 0.914991 0.0604277 0.0817122 -6 -2 -2 
5473 6 0.961196 0.0392583 0.0561349 0 0 -1 
5698 5 0.258274 0.0652253 0.0466435 -3 2 5 
5653 5 0.728352 0.0852234 0.0681249 -2 -2 -1 
8196 5 0.458315 0.10071 0.0789149 -4 1 -4 
8887 6 0.748453 0.136108 0.0602416 0 -3 1 
8051 6 0.298105 0.207644 0.0898523 -1 -2 1 
7380 6 0.747903 0.194604 0.0910686 -1 4 -1 
6184 6 0.347321 0.234624 0.097524 3 -1 6 
6564 5 0.75125 0.209425 0.0604237 -1 1 2 
6847 5 0.0933288 0.259737 0.0804072 2 3 1 
7914 6 0.604524 0.262856 0.0872429 1 0 5 
8993 6 0.726339 0.33066 0.0728033 3 -2 -2 
8089 5 0.957189 0.271081 0.0984296 -3 3 0 
5115 6 0.684735 0.337804 0.0876268 0 3 -2 
6663 5 0.816796 0.308424 0.076949 -3 2 4 
7991 6 0.832246 0.303992 0.0378713 0 -6 2 
7122 6 0.877377 0.308334 0.0872836 -6 5 -4 
6365 6 0.305906 0.324674 0.0806378 1 -1 2 
6031 5 0.672617 0.337075 0.0648662 1 2 2 
5629 6 0.885676 0.356432 0.0886474 5 0 -1 
6903 5 0.940269 0.360439 0.0586707 -4 -1 -1 
7031 5 0.971124 0.395043 0.0711602 -1 0 0 
6602 6 0.475596 0.376774 0.0543365 0 -1 -2 
7204 6 0.848102 0.417055 0.0762754 2 -1 8 
6816 6 0.674101 0.457888 0.104597 -1 2 0 
5956 5 0.298343 0.452496 0.0874695 0 7 2 
8498 6 0.621782 0.431898 0.0646483 2 0 2 
8217 6 0.705051 0.386119 0.0576415 -1 -2 -3 
8906 5 0.735898 0.415995 0.074871 -2 0 -2 
5929 6 0.573159 0.46145 0.0858291 -1 -2 -6 
5438 6 0.209874 0.503638 0.0804353 -1 1 1 
5007 6 0.212872 0.498729 0.062763 -2 3 0 
8800 6 0.546062 0.541973 0.0544554 4 0 -3 
5235 6 0.577109 0.523869 0.12965 -1 -2 5 
5720 6 0.0918529 0.486227 0.0731408 -4 -2 5 
8962 6 0.598657 0.530618 0.118401 2 -3 2 
8776 6 0.919052 0.543857 0.0948084 3 4 1 
6968 6 0.12431 0.523145 0.105819 2 1 -2 
8929 6 0.455332 0.550144 0.108502 1 3 -1 
6386 5 0.314178 0.561922 0.0895544 5 1 -2 
5742 6 0.707466 0.57173 0.0724243 -1 3 -1 
8952 5 0.262568 0.573548 0.0897007 2 -2 -3 
5047 5 0.395684 0.595762 0.088443 -2 3 -3 
6647 6 0.366262 0.625069 0.0959925 -3 3 -2 
6461 6 0.671923 0.612704 0.101933 -3 2 -3 
5365 5 0.768102 0.659937 0.0771487 3 -3 1 
6483 6 0.398915 0.700734 0.0900147 -1 2 3 
8628 5 0.0425487 0.687023 0.116364 1 7 -4 
8049 5 0.107651 0.687591 0.0673724 -2 4 3 
8181 6 0.10204 0.742637 0.0602781 0 -3 0 
8808 6 0.668501 0.71891 0.0863285 0 1 -2 
8170 5 0.557895 0.74698 0.070293 6 0 2 
7548 6 0.207535 0.780903 0.0485764 -3 -1 -3 
8773 5 0.198263 0.756921 0.052956 -5 -5 -2 
6482 6 0.230506 0.728685 0.113456 0 -5 1 
7801 5 0.617523 0.772468 0.0849244 -2 -5 1 
7440 5 0.644959 0.704981 0.0932712 2 -2 -3 
5013 5 0.872715 0.821491 0.100954 -2 0 0 
7411 6 0.567521 0.816983 0.0765442 0 2 -5 
7130 5 0.940985 0.799587 0.106319 -4 -1 1 
7774 5 0.965571 0.78615 0.0867956 0 -3 1 
5638 6 0.275948 0.870932 0.0680094 3 1 2 
7679 5 0.139315 0.890227 0.0928884 0 0 4 
7826 6 0.938371 0.856735 0.0987816 -1 -1 -1 
7150 6 0.142627 0.896995 0.103898 -2 -2 0 
5878 6 0.444295 0.934911 0.0717169 -6 2 4 
8467 6 0.558404 0.919166 0.0698032 -2 -5 0 
5902 6 0.818466 0.879562 0.0706726 0 2 1 
8834 6 0.973202 0.8691 0.0802456 -2 3 -3 
6974 5 0.239675 0.922698 0.109268 1 -3 -2 
7713 5 0.295202 0.95783 0.128439 1 1 -1 
5880 5 0.315393 0.97792 0.100831 -2 0 -3 
8655 6 0.813016 0.966977 0.0490452 6 0 2 
6904 5 0.214213 0.973928 0.0858752 -1 -1 3 
5583 6 0.544504 0.00557796 0.084963 -6 -2 3 
5858 5 0.0744631 0.008415 0.0904968 2 -1 -1 
8077 6 0.593292 0.0177972 0.138197 -2 3 -7 
8734 5 0.275523 0.0375683 0.10608 -3 2 2 
7527 6 0.730417 0.046979 0.109666 -1 0 0 
7918 6 0.818638 0.10435 0.109218 4 -4 -1 
5664 5 0.313602 0.0557178 0.0888381 0 -1 -4 
5518 5 0.609828 0.0269134 0.0757213 3 1 -2 
6295 5 0.814084 0.00757874 0.0859916 -2 3 6 
6661 5 0.0688243 0.0731923 0.10954 -1 -2 2 
6047 5 0.471413 0.0887065 0.090885 -4 2 2 
8512 6 0.585323 0.0995198 0.119339 -3 3 4 
5928 6 0.22475 0.0858302 0.0854887 4 4 -2 
5509 6 0.372118 0.0875624 0.102407 -2 1 -2 
8897 6 0.777242 0.166052 0.106626 -1 5 -2 
8232 6 0.945424 0.160533 0.131436 5 1 0 
8000 5 0.24735 0.205191 0.107265 0 0 -1 
7208 5 0.36968 0.20671 0.0964177 3 4 -2 
5888 6 0.38469 0.207527 0.117371 0 2 0 
5488 6 0.80293 0.163905 0.0890752 2 -2 -3 
5811 6 0.0734731 0.220673 0.106658 4 -1 -1 
6430 6 0.138629 0.295683 0.111353 3 4 6 
8237 6 0.495747 0.212576 0.0957233 -1 0 -5 
5710 6 0.0234381 0.265293 0.108161 3 -3 -2 
7629 5 0.414168 0.241552 0.130692 5 8 0 
5939 6 0.536289 0.237384 0.105801 -4 4 1 
8995 5 0.734918 0.234022 0.12207 -5 -1 2 
7487 6 0.835547 0.223846 0.0985905 0 -4 -1 
5067 6 0.226958 0.280258 0.124191 5 0 -2 
5294 6 0.429793 0.256262 0.0424022 -1 4 -1 
8038 5 0.690277 0.321615 0.106333 2 3 5 
6578 6 0.7777 0.322449 0.0819654 -2 1 -7 
5129 5 0.0794866 0.312459 0.114986 3 3 -1 
8746 5 0.769381 0.333694 0.0941115 1 3 0 
7282 6 0.598571 0.35432 0.149357 2 1 -3 
5651 6 0.0339066 0.419686 0.126641 5 1 -5 
8890 6 0.142914 0.37688 0.103271 1 -1 5 
7614 6 0.781848 0.342127 0.055888 -3 2 0 
8610 6 0.975712 0.359434 0.107003 -3 0 2 
8882 5 0.127482 0.401292 0.114828 1 1 2 
6990 6 0.518714 0.395415 0.0896895 0 -1 -2 
7601 5 0.109961 0.448158 0.140834 -2 2 2 
8898 6 0.546379 0.457735 0.082412 -2 -4 3 
6244 5 0.042448 0.529883 0.0912536 0 0 4 
7454 6 0.0850549 0.488887 0.0608196 2 0 4 
8248 5 0.359187 0.476975 0.11254 -1 -3 -6 
5123 6 0.533079 0.478362 0.126641 2 3 1 
8464 5 0.0682182 0.511002 0.129864 3 4 -1 
6625 5 0.635217 0.501579 0.0721441 1 2 1 
6388 6 0.977222 0.459672 0.111549 1 -2 -2 
8930 6 0.517603 0.49154 0.132603 -4 2 -2 
8254 6 0.540897 0.519848 0.111704 5 2 3 
7349 5 0.671321 0.521333 0.088045 -1 -2 0 
5030 5 0.486057 0.549594 0.0885759 0 -3 -1 
8615 5 0.549876 0.609468 0.146619 -2 4 1 
6101 5 0.849322 0.556971 0.132591 -1 1 -1 
6797 5 0.222146 0.693194 0.0946813 -5 5 -1 
6358 5 0.679575 0.655877 0.108275 -1 0 -4 
5433 6 0.70632 0.637278 0.103253 1 5 1 
8144 6 0.722007 0.648119 0.117416 -3 -1 -3 
8140 5 0.570492 0.647333 0.158928 -7 3 0 
5549 5 0.76979 0.630641 0.08702 3 7 0 
5741 6 0.117419 0.708774 0.0833877 -3 -2 -3 
8394 5 0.827135 0.639877 0.118808 0 -4 1 
5695 6 0.0795365 0.721239 0.121452 2 -1 1 
6500 5 0.219057 0.746861 0.123283 1 2 2 
5299 5 0.383126 0.752362 0.0578527 1 1 1 
7384 5 0.584181 0.767992 0.101255 6 -2 -9 
7363 5 0.0164671 0.770933 0.109815 1 -2 -3 
6439 6 0.140406 0.792688 0.0983626 1 -3 -2 
5915 6 0.108508 0.856653 0.14092 -1 3 -1 
5616 6 0.266641 0.826383 0.135011 -1 -3 2 
7489 6 0.598524 0.83649 0.0994957 0 1 -4 
8494 5 0.123725 0.852463 0.110113 -1 0 -1 
8288 5 0.569855 0.853212 0.0965298 5 1 -2 
6993 5 0.720689 0.863204 0.0873978 2 -1 -2 
7596 5 0.890029 0.845798 0.0880383 0 3 5 
5424 6 0.956177 0.868287 0.0987602 -2 -2 2 
8543 6 0.231044 0.843024 0.106535 0 -1 -3 
8996 6 0.634466 0.878192 0.0970546 -3 5 9 
5924 6 0.955317 0.855078 0.125773 -1 4 -2 
5440 6 0.0573679 0.907372 0.0850968 -1 3 0 
8287 6 0.682997 0.905298 0.117321 0 -2 3 
8574 6 0.0405576 0.903568 0.075713 -3 0 -1 
7723 5 0.444965 0.904186 0.0782295 2 0 5 
7642 6 0.587042 0.910599 0.0703473 0 -1 0 
8246 5 0.635882 0.927631 0.111523 6 1 1 
8461 5 0.476224 0.925582 0.0838005 2 -6 8 
6664 6 0.513544 0.906868 0.0763208 3 -2 -3 
6298 5 0.745065 0.912406 0.0962566 2 -5 2 
7374 5 0.544729 0.970456 0.0922784 0 -2 -3 
6497 6 0.0236371 0.0288189 0.126399 4 -3 -5 
7233 5 0.732269 0.0182583 0.142402 -2 -2 -5 
6494 6 0.11756 0.0194548 0.118809 2 0 0 
6008 5 0.383261 0.0397869 0.0994761 2 -2 3 
5771 6 0.764697 0.0788203 0.13442 2 1 1 
5526 5 0.126179 0.0419131 0.113093 4 -1 -1 
5989 6 0.226951 0.106095 0.119706 1 0 2 
7554 5 0.641216 0.0923976 0.129259 0 1 0 
7590 6 0.894621 0.0471125 0.14539 2 2 2 
5846 5 0.219701 0.121025 0.141342 -4 2 -1 
6065 5 0.9367 0.144987 0.136074 1 1 -1 
5519 5 0.882685 0.12212 0.0825615 0 -2 2 
6470 6 0.384352 0.150994 0.14792 0 -1 -2 
6572 5 0.426666 0.149567 0.132425 -3 -3 -1 
7279 6 0.657332 0.157083 0.149759 0 0 2 
6504 5 0.605151 0.174656 0.1109 -2 3 7 
8817 5 0.995007 0.231746 0.134078 -9 -3 7 
6239 6 0.947911 0.154501 0.109292 2 -1 0 
7395 5 0.0937331 0.276547 0.12574 4 2 1 
5920 5 0.209723 0.258869 0.0618049 -1 1 4 
5423 5 0.269651 0.240224 0.107011 -2 -3 3 
8539 6 0.28359 0.248214 0.160334 0 10 3 
6136 6 0.758796 0.271298 0.131197 -6 2 -3 
6770 6 0.781333 0.281719 0.131853 -3 0 5 
7516 5 0.33962 0.278591 0.142742 4 0 -1 
5022 5 0.875524 0.322075 0.161217 -2 4 2 
5275 6 0.886462 0.342947 0.124667 -3 1 0 
7249 6 0.344825 0.356412 0.139791 0 -5 -4 
8821 5 0.21257 0.400044 0.123373 0 3 2 
5230 5 0.409989 0.362187 0.0910635 -2 0 4 
8509 6 0.0498438 0.404655 0.116867 0 2 5 
5241 6 0.132177 0.38456 0.145308 0 2 3 
8121 5 0.868966 0.437735 0.113267 -1 0 2 
7564 5 0.680567 0.458529 0.123775 3 -1 -2 
7588 6 0.138544 0.431046 0.094929 -4 -2 -1 
5427 6 0.205062 0.498779 0.111524 -1 4 7 
6168 6 0.380881 0.501845 0.127664 -1 0 1 
5283 5 0.669136 0.500852 0.131434 2 2 2 
6575 5 0.985216 0.479713 0.145031 3 1 2 
7913 6 0.699648 0.511918 0.126135 2 2 0 
5851 6 0.712464 0.521631 0.0974052 1 2 3 
6696 5 0.142527 0.58731 0.140143 5 1 -5 
6926 5 0.278851 0.594033 0.135058 3 -3 -5 
5877 6 0.575975 0.637443 0.147335 0 2 5 
6058 5 0.241666 0.600477 0.160074 3 -2 0 
6980 6 0.659631 0.635997 0.122792 -6 -3 6 
7752 6 0.11655 0.676775 0.118655 -1 -2 2 
8426 5 0.34656 0.667652 0.128046 -3 3 -6 
6700 5 0.2116 0.674312 0.124054 -3 1 6 
5976 6 0.537953 0.701495 0.13084 -4 1 2 
5527 5 0.398336 0.730604 0.156231 -3 -6 1 
6106 5 0.908189 0.676118 0.155171 1 -3 -3 
7864 6 0.949698 0.686794 0.186106 -2 -4 1 
8684 6 0.981193 0.697336 0.0980624 -2 -6 0 
6092 6 0.282273 0.739027 0.107787 -3 2 3 
5980 6 0.180295 0.752172 0.153383 2 -2 -1 
8880 6 0.723877 0.782362 0.0954256 0 -1 -4 
6628 6 0.0960414 0.795794 0.120326 0 0 0 
7462 5 0.76865 0.756605 0.142871 2 -2 3 
7222 6 0.0832698 0.853562 0.123007 -7 -3 -4 
6704 6 0.152511 0.81787 0.13676 2 5 2 
7465 5 0.388478 0.786027 0.128033 4 2 1 
7520 6 0.42197 0.827803 0.130021 1 -1 -2 
8780 6 0.94723 0.8699 0.115868 2 3 -2 
7449 6 0.380215 0.863454 0.140533 -3 -2 2 
8136 5 0.633659 0.837601 0.140586 0 0 -6 
7555 5 0.668819 0.859494 0.104737 3 -2 4 
8774 6 0.793977 0.838765 0.126283 1 2 1 
7924 6 0.441717 0.912338 0.095923 -6 -2 -2 
5206 6 0.777892 0.891112 0.152255 -1 -2 0 
5849 6 0.872989 0.889675 0.114716 -4 -2 1 
5270 5 0.907642 0.899558 0.164763 -5 0 -1 
5404 5 0.970893 0.95396 0.108813 -1 0 3 
7799 5 0.987135 0.931577 0.10949 -1 1 3 
7860 5 0.559258 0.954408 0.124455 6 -3 -1 
6117 5 0.0548165 0.998525 0.133488 3 -2 0 
7641 6 0.136638 0.997732 0.106042 3 2 1 
6815 6 0.66504 0.0115941 0.113316 -5 6 0 
8074 6 0.124562 0.0450038 0.151723 -2 6 4 
8612 6 0.0382927 0.0323715 0.163364 0 -1 -2 
6809 5 0.2947 0.997425 0.156958 2 1 2 
6100 5 0.423589 0.0398112 0.13299 -2 0 0 
7512 6 0.486137 0.0473409 0.138176 -1 -1 1 
8487 5 0.978015 0.0205273 0.143304 -3 -1 -1 
6356 6 0.167185 0.10183 0.164408 0 -4 4 
6686 5 0.510955 0.0592511 0.162761 1 6 -2 
7961 5 0.836713 0.0493902 0.135926 1 0 -2 
8318 6 0.572093 0.0398265 0.129168 0 5 -6 
6396 5 0.822141 0.107588 0.171594 -2 3 0 
6987 6 0.4997 0.125709 0.133803 -4 2 3 
8784 6 0.67695 0.143262 0.119117 -4 3 -3 
6240 6 0.701844 0.100932 0.157413 -1 -1 3 
8831 6 0.76044 0.108886 0.153163 0 1 -1 
8148 5 0.781567 0.124743 0.154198 -2 -1 0 
8370 6 0.95323 0.127593 0.158069 1 2 0 
6714 6 0.417277 0.0907071 0.13631 -2 -1 6 
8245 5 0.841033 0.122883 0.151264 0 1 7 
5699 5 0.186353 0.143152 0.137031 2 1 3 
6124 5 0.506302 0.175237 0.150988 -2 0 1 
8314 5 0.770012 0.14204 0.116298 -2 -3 -2 
6745 5 0.0496005 0.186435 0.119477 3 1 -3 
5669 5 0.58106 0.228167 0.168485 3 -1 -2 
5246 6 0.756358 0.169575 0.160589 -4 3 1 
5175 5 0.765921 0.243846 0.11715 1 2 3 
5931 6 0.754557 0.24038 0.176155 1 -4 4 
8088 5 0.00493432 0.193479 0.161117 0 -2 -3 
6630 6 0.959479 0.250363 0.133543 -2 3 -2 
5793 5 0.403487 0.234579 0.144061 2 -1 3 
6469 5 0.958708 0.273223 0.180623 2 0 -6 
8123 6 0.271322 0.279814 0.13357 4 0 -2 
7556 6 0.645012 0.288663 0.144806 -3 2 2 
8680 5 0.718096 0.296482 0.133856 2 3 -2 
6811 5 0.493681 0.326927 0.142005 -1 -4 -6 
8047 5 0.416325 0.306313 0.168184 2 -1 2 
7503 5 0.781214 0.289109 0.133871 -1 -1 -2 
7573 5 0.148611 0.369517 0.132109 3 -6 -1 
7694 6 0.167004 0.393961 0.130299 -3 3 2 
7088 5 0.236098 0.428463 0.176179 -3 -2 -4 
5250 6 0.42363 0.415174 0.181189 2 0 -1 
5328 5 0.914226 0.398064 0.14151 -5 6 4 
7033 6 0.0134824 0.432756 0.174404 -5 3 3 
6382 6 0.74465 0.421974 0.152391 0 -1 2 
8795 6 0.563066 0.44956 0.160725 -3 -5 1 
7845 5 0.629366 0.482263 0.132021 -4 3 -1 
7782 6 0.993904 0.521999 0.132309 3 -1 -1 
5584 5 0.416938 0.561215 0.163961 7 -1 4 
7072 5 0.550331 0.530594 0.181566 -4 3 1 
8135 6 0.778834 0.515736 0.120522 -4 -3 0 
6211 6 0.0823395 0.553653 0.14248 -4 0 3 
5498 5 0.379638 0.483137 0.185399 0 0 2 
6523 6 0.58884 0.510362 0.171764 1 -1 0 
5467 5 0.118142 0.544597 0.143073 5 0 -2 
8416 5 0.359535 0.57757 0.138854 1 0 0 
5799 6 0.382658 0.593516 0.148279 2 -1 -1 
8343 5 0.64252 0.615324 0.149925 -3 0 5 
5117 6 0.678804 0.596814 0.143907 0 8 0 
7479 6 0.188351 0.632464 0.134617 1 -1 3 
6808 5 0.665558 0.644333 0.138041 -1 6 -2 
8671 6 0.428303 0.64605 0.172233 -5 -2 4 
8109 5 0.256004 0.707264 0.0961534 -3 0 0 
7973 5 0.231805 0.693614 0.114567 1 0 -3 
7432 5 0.303999 0.700047 0.146356 -3 -5 8 
8381 5 0.466284 0.681094 0.146767 -4 -3 3 
5477 5 0.596908 0.693299 0.161373 -6 1 -1 
5334 5 0.131347 0.69433 0.147818 -4 4 -2 
6793 6 0.447804 0.753657 0.138886 -5 3 3 
5157 6 0.709786 0.73229 0.15722 5 -2 -1 
6229 5 0.405919 0.759735 0.145958 3 2 1 
7277 5 0.782406 0.745406 0.19071 6 -1 2 
8328 6 0.076376 0.725364 0.138161 1 -5 2 
5779 6 0.213612 0.778315 0.143241 5 1 2 
7408 6 0.608829 0.770324 0.157001 0 1 -1 
5383 5 0.10517 0.79374 0.100487 -1 1 1 
5285 6 0.795652 0.782742 0.144601 2 -2 1 
7110 6 0.0172505 0.860343 0.148505 7 5 4 
6237 6 0.259073 0.827522 0.127516 -1 2 6 
7495 5 0.347756 0.84427 0.163361 -1 -3 0 
6462 6 0.0810614 0.877129 0.104562 0 2 -2 
8374 6 0.213758 0.920589 0.187223 10 0 0 
5327 6 0.824715 0.889503 0.146935 0 -3 0 
8871 6 0.486419 0.955012 0.151114 1 0 3 
7050 5 0.852313 0.932843 0.123773 -1 2 1 
5553 5 0.415871 0.940616 0.137144 -2 2 1 
5988 6 0.666722 0.955266 0.170748 -2 -2 6 
7142 6 0.136161 -0.000511347 0.138975 3 -1 -4 
8268 5 0.46984 0.0398654 0.168303 2 2 1 
6277 5 0.535457 0.0198642 0.166864 5 1 1 
8137 5 0.604949 0.0199434 0.157521 1 7 -1 
6599 6 0.535287 0.0588746 0.163383 -3 -1 -5 
7189 6 0.720195 0.100241 0.170364 2 5 -1 
6156 6 0.484492 0.0723063 0.185741 3 -2 -4 
7485 5 0.600014 0.06357 0.17355 -1 0 -2 
7943 5 0.745073 0.0809007 0.187679 -3 2 0 
7418 6 0.203506 0.163664 0.191965 -3 1 3 
6938 6 0.633504 0.13386 0.138557 -2 -1 -2 
8229 5 0.547053 0.197395 0.193929 1 3 0 
6695 6 0.777402 0.198393 0.201859 1 2 -6 
6223 6 0.990691 0.215265 0.192297 3 1 0 
5450 6 0.962386 0.205772 0.154063 3 0 4 
6068 6 0.260787 0.226951 0.169991 0 0 -1 
6311 5 0.301588 0.214998 0.170286 1 -5 -2 
6672 5 0.784815 0.264091 0.133787 2 -1 0 
7792 5 0.829419 0.297167 0.173759 0 2 1 
6868 6 0.346859 0.271599 0.171137 2 -2 -3 
6895 5 0.792082 0.234227 0.161609 4 -4 3 
7109 6 0.876455 0.291933 0.191006 1 -1 1 
5233 5 0.35002 0.330126 0.172829 0 -5 -3 
7939 6 0.793644 0.337205 0.167529 -1 4 -1 
6359 5 0.0765116 0.315212 0.188633 -3 0 0 
7077 5 0.364791 0.296347 0.195772 -3 2 -1 
6707 6 0.0971184 0.36226 0.176624 1 -3 2 
7162 5 0.273255 0.415544 0.1803 -1 2 -1 
5890 6 0.816476 0.39563 0.147231 -3 2 1 
7096 5 0.511513 0.395556 0.152281 -1 -2 5 
8048 5 0.606157 0.434482 0.171888 -5 2 -3 
5133 5 0.0509025 0.491471 0.14462 3 -1 0 
7892 5 0.279512 0.481601 0.186548 2 0 -2 
6113 6 0.80531 0.505248 0.166529 -1 -4 0 
7304 6 0.798654 0.487143 0.149499 -1 1 2 
6623 6 0.891662 0.49607 0.16548 0 -5 -3 
6419 6 0.996705 0.506532 0.195842 -3 -2 5 
6066 6 0.401217 0.487739 0.214585 5 -3 2 
8675 6 0.613635 0.500613 0.171127 -3 2 3 
5856 5 0.518269 0.560423 0.138676 6 1 3 
7505 6 0.429745 0.52476 0.152486 -3 -4 -1 
8981 5 0.083402 0.574099 0.172672 -4 1 -2 
6586 6 0.882131 0.574445 0.142124 4 2 -3 
6166 6 0.709589 0.57448 0.147581 1 -7 3 
7048 5 0.848345 0.577854 0.182324 0 2 1 
7073 6 0.806232 0.604585 0.150651 5 1 5 
5162 5 0.082515 0.576851 0.181957 0 4 0 
8976 5 0.603901 0.645369 0.151754 6 0 -1 
5229 5 0.0599872 0.642701 0.180167 1 -1 6 
5506 6 0.160121 0.612329 0.165883 -3 2 -5 
8459 6 0.780252 0.631326 0.198754 1 1 1 
7400 6 0.432057 0.69364 0.177025 4 -1 2 
6657 6 0.730547 0.716155 0.196384 2 -6 8 
8256 6 0.132957 0.724268 0.151223 5 -2 -1 
8276 6 0.171907 0.769972 0.184459 -4 5 0 
8895 5 0.837109 0.791289 0.194146 1 1 -1 
5236 6 0.874391 0.774148 0.175233 0 -1 0 
6268 5 0.650901 0.78553 0.203461 0 -3 -4 
5932 6 0.0291804 0.805393 0.15515 3 2 3 
7721 6 0.53343 0.806816 0.16404 -2 3 5 
6452 6 0.653956 0.841511 0.19258 -5 4 -3 
7968 5 0.0910279 0.853986 0.186726 3 1 0 
7794 5 0.063351 0.831062 0.214999 -1 -5 -2 
7455 6 0.666111 0.874222 0.158274 0 3 -5 
7286 6 0.412176 0.876553 0.121378 -2 0 3 
7339 6 0.369306 0.920375 0.177922 0 -2 3 
5371 5 0.415663 0.911493 0.184913 -1 -1 -1 
7795 5 0.341014 0.942416 0.210141 2 3 3 
5953 5 0.444852 0.90505 0.165185 -3 -4 4 
6424 5 0.50064 0.922274 0.166876 2 2 1 
5681 6 0.847601 0.922559 0.134349 2 3 -4 
7936 6 0.211043 0.964767 0.164383 1 3 3 
8550 6 0.854872 0.999885 0.171719 6 -4 4 
8964 6 0.977944 0.958354 0.135827 0 -5 3 
5624 5 0.807966 0.994065 0.156124 2 5 -2 
5870 6 0.520864 0.0190069 0.14529 -1 1 1 
5727 6 0.015306 0.0766971 0.181048 0 1 -2 
8489 6 0.220262 0.0416024 0.190467 2 -6 -1 
7988 6 0.272365 0.0237752 0.123556 -6 0 3 
6542 6 0.732942 0.0182476 0.206873 2 0 0 
6339 6 0.34243 0.0867029 0.221652 1 0 -3 
8941 5 0.832224 0.101531 0.157004 2 1 3 
6762 6 0.37125 0.144968 0.170507 -2 0 3 
5045 5 0.502491 0.153102 0.20399 1 0 -3 
6276 5 0.865325 0.139957 0.164272 3 0 -6 
7091 6 0.986352 0.158952 0.211219 -3 3 1 
6829 6 0.00900126 0.18296 0.1817 1 -2 1 
6186 5 0.451024 0.181755 0.190574 -5 -5 5 
8627 5 0.434194 0.185955 0.177912 4 -1 -1 
7168 5 0.877093 0.171067 0.168624 0 -2 5 
8132 5 0.00933993 0.237373 0.198082 -1 1 0 
7386 5 0.80167 0.212412 0.147563 -1 3 3 
8264 6 0.890091 0.230702 0.232667 3 -1 -2 
6503 6 0.988051 0.22102 0.214092 -3 2 0 
8456 6 0.0344118 0.270364 0.234215 -3 2 5 
5258 6 0.747133 0.254343 0.138918 -1 -3 2 
5869 5 0.928894 0.293698 0.221831 -2 -4 3 
5769 6 0.216433 0.329598 0.169343 3 4 2 
5687 5 0.545613 0.355365 0.20117 -2 1 -6 
8376 5 0.451332 0.359245 0.172619 0 -4 5 
7245 5 0.70054 0.347258 0.157861 4 3 2 