ITEM: TIMESTEP
20000000
ITEM: NUMBER OF ATOMS
9000
ITEM: BOX BOUNDS pp pp pp
-75 75
-75 75
-75 75
ITEM: ATOMS id type xs ys zs ix iy iz 
7294 5 0.471769 0.0477214 0.979923 2 -5 -2 
5117 5 0.729945 0.0198632 0.0331128 -3 8 1 
6235 6 0.537124 0.0975739 0.00658012 3 3 -1 
7429 5 0.511919 0.0797274 0.0110423 3 -1 -1 
7089 6 0.400415 0.121296 0.0683798 -2 3 0 
6200 5 0.645846 0.135515 0.0220982 2 -2 -3 
5761 5 0.722184 0.134291 0.0351112 -2 -3 4 
6097 6 0.819717 0.114398 0.0544863 2 3 4 
8765 6 0.424482 0.15574 0.980286 -5 2 -3 
8208 6 0.673242 0.129313 0.0402229 -1 3 5 
6605 6 0.704702 0.221178 0.0400929 4 2 2 
8165 6 0.912835 0.188047 0.022264 -6 0 4 
7918 6 0.533519 0.14497 0.969461 4 0 -4 
5083 6 0.532269 0.17107 0.986817 4 3 -2 
5461 5 0.580114 0.158285 0.027584 -1 3 1 
5558 6 0.0434467 0.22015 0.00120855 2 -1 2 
6324 5 0.162412 0.256397 0.993624 -4 -2 1 
6020 6 0.985514 0.196306 -0.000772071 2 -1 -2 
6964 6 0.371303 0.242321 0.0498981 2 5 -2 
8393 6 0.569571 0.237699 0.0149631 1 1 3 
7038 5 0.751059 0.271783 0.969222 -3 -1 0 
8454 6 0.249475 0.24483 0.989879 1 1 -1 
6665 6 0.686187 0.284321 0.0424202 0 -2 0 
8620 6 0.407033 0.272509 0.0338223 3 -2 -3 
7155 5 0.786049 0.262905 0.0111247 0 -1 3 
7858 5 0.260807 0.312418 0.0182216 1 1 2 
6904 5 0.489574 0.356199 0.0043676 4 8 3 
7171 6 0.213413 0.347222 0.975561 -2 0 3 
8396 6 0.290182 0.387635 0.00247356 -1 5 -2 
7526 6 0.806075 0.391803 0.0526202 -1 0 0 
5435 6 0.362981 0.355246 0.0230391 2 -3 -4 
8424 6 0.314872 0.391225 0.000921571 4 4 -1 
7185 6 0.454991 0.379924 0.970401 -2 -3 1 
5036 6 0.211092 0.425153 0.0295531 7 0 1 
5574 6 0.324186 0.441812 0.0372786 -1 2 0 
8452 5 0.875023 0.422727 0.0174009 5 -1 -1 
5666 6 0.680481 0.457131 0.99433 0 3 -1 
7309 6 0.0880919 0.509452 0.0273604 4 1 -2 
7247 6 0.501963 0.482133 0.0517512 3 -4 2 
6595 5 0.551296 0.44846 0.0276117 1 0 1 
8793 5 0.33542 0.470606 0.0431166 1 1 2 
7704 6 0.41201 0.473442 0.0150876 1 3 -2 
7149 6 0.808518 0.512638 0.0154505 5 0 3 
6317 6 0.348827 0.509943 0.0122195 -2 0 -3 
7496 6 0.394597 0.491468 0.0253118 6 3 4 
7889 5 0.499627 0.540045 0.0164988 0 0 -5 
6660 6 0.623751 0.486002 0.00778339 -6 4 3 
8442 5 0.390083 0.502039 0.0314551 6 -2 4 
7510 5 0.536467 0.530671 0.0154491 -1 4 0 
8622 6 0.765233 0.56784 0.0149162 -3 2 1 
5568 6 0.409424 0.591652 0.029382 3 -2 0 
6583 5 0.569907 0.599827 0.0328246 2 4 -1 
5365 5 0.895634 0.586919 0.981347 2 -2 1 
5886 6 0.248016 0.595796 0.0287361 0 5 -2 
8079 6 0.415504 0.616981 0.0126108 2 2 3 
6431 6 0.352957 0.646706 0.966547 -6 -5 -5 
5262 6 0.594918 0.643029 0.0232306 -1 -2 0 
7857 6 0.707131 0.617629 0.998718 0 1 -3 
7653 5 0.825028 0.673877 0.0133767 -3 -1 1 
5200 5 0.037211 0.654127 0.0452749 1 -1 0 
8931 5 0.373116 0.686012 0.000861768 -2 7 1 
6651 5 0.791134 0.677505 0.0281354 -4 4 -2 
6854 5 0.360119 0.74829 0.993661 -3 -2 2 
7120 6 0.742746 0.779666 0.000784018 2 -1 1 
8631 6 0.917984 0.704703 0.00689682 -2 1 0 
5388 5 0.118231 0.831157 0.030929 1 2 -3 
5478 5 0.293588 0.801492 0.0520983 -3 0 1 
8265 6 0.675838 0.817241 0.0317665 0 -2 -4 
7856 6 0.870809 0.79361 0.0134601 -2 -2 -6 
6192 6 0.774646 0.831821 0.00389707 -3 -2 -1 
5239 5 0.321975 0.860654 1.00096 -1 -4 -6 
7643 6 0.792221 0.887813 0.0180462 -6 2 2 
8237 5 0.785034 0.905755 0.00953886 0 2 2 
6183 6 0.685775 0.898226 0.0075182 3 -2 3 
5175 5 0.77936 0.888551 0.954635 1 -4 2 
7699 6 0.112926 0.9156 0.00307152 -1 -1 1 
7211 5 0.912025 0.91937 0.0190144 -2 -3 1 
7742 6 0.980243 0.97306 0.995912 -2 3 0 
7502 5 0.0312171 0.9721 0.00895026 2 -4 0 
8980 6 0.965765 0.947219 0.0444853 1 -1 -4 
5644 5 0.0800156 1.00416 0.030739 -4 -7 2 
7401 5 0.399474 0.00761474 -0.0038301 0 1 0 
7030 6 0.901162 0.989823 0.0537809 -2 2 2 
8255 6 0.142601 0.0273327 0.995618 -2 -2 2 
6303 6 0.195405 0.0135926 0.0432393 -4 0 0 
6335 6 0.474723 0.0705872 0.0501508 0 3 1 
8558 5 0.684244 0.990978 0.0511716 3 -2 -1 
6760 6 0.513966 0.0528889 0.0351314 -5 2 -1 
5480 6 0.237158 0.0805067 0.0290167 2 -2 -2 
8445 5 0.573698 0.0684664 0.0648142 2 4 -5 
7217 6 0.779537 0.0507349 0.0153789 0 1 0 
6449 5 0.993632 0.047507 0.00388667 -4 -3 2 
8100 5 0.12088 0.161726 0.0166336 -4 -2 -1 
8033 5 0.0364793 0.102615 0.0250771 4 0 4 
7840 5 0.961893 0.136081 0.0550357 -4 -2 4 
5734 6 0.369889 0.152929 0.0466643 4 -3 3 
6426 5 0.696914 0.161601 0.0351935 -2 1 -1 
6208 6 0.00337752 0.159501 0.0141003 1 -2 -1 
5377 5 0.170139 0.160176 0.0322666 -3 2 -3 
5162 5 0.494383 0.190853 0.0280958 1 1 2 
7352 6 0.50814 0.19654 0.0555765 -4 -2 0 
6757 5 0.547505 0.193956 0.018057 0 -3 0 
8991 5 0.0366285 0.191579 0.0272849 -7 -3 3 
6389 5 0.222145 0.207034 0.0597618 0 -3 2 
6566 5 0.561879 0.23537 0.0224339 -1 -2 -2 
7225 5 0.601402 0.192053 0.0645238 5 4 2 
8777 5 0.82067 0.194815 0.0257771 -2 -2 2 
8275 6 0.618854 0.217878 0.0428496 -2 -2 3 
8058 5 0.936577 0.27133 0.0708078 3 2 2 
6784 6 0.00722302 0.254309 0.0133839 -3 -4 3 
5625 6 0.295984 0.303337 0.0470415 0 2 6 
8937 6 0.938309 0.245935 0.987333 2 -2 -1 
8056 6 0.344531 0.264438 0.0551436 0 -1 1 
5318 5 0.6015 0.267568 0.0391897 -2 1 0 
5695 6 0.654789 0.328168 0.0687978 -1 0 2 
7568 6 0.965149 0.262158 0.049745 0 -1 2 
6767 5 0.308773 0.28879 0.0481845 2 -1 -2 
8004 6 0.0429461 0.342603 0.0484804 2 0 2 
8597 5 0.644257 0.304523 0.077391 1 0 1 
8758 6 0.444933 0.360206 0.0175468 2 0 5 
8402 5 0.871348 0.317696 0.0050166 -1 0 3 
6536 6 0.450512 0.36554 0.0604717 6 5 -1 
5984 5 0.567601 0.375301 0.00761115 -1 3 0 
8600 6 0.0456837 0.403956 0.0259206 2 0 4 
6768 6 0.0401906 0.447179 0.0189917 4 3 -2 
5746 5 0.197503 0.436207 0.0270417 0 -3 -1 
6424 6 0.743037 0.427725 0.0250295 1 4 2 
5115 6 0.807066 0.456338 0.0478855 -3 4 -1 
7900 6 0.375903 0.450216 0.0266264 -5 -1 0 
8145 6 0.390366 0.463465 0.0488386 3 -5 2 
7991 6 0.402783 0.477641 0.0380213 0 -4 1 
8541 5 0.667463 0.489452 0.0382764 -3 0 1 
7364 6 0.977489 0.484948 0.0271594 3 -1 -1 
6582 6 0.019911 0.497037 0.0444291 -1 1 -1 
8724 5 0.732975 0.523412 0.0287343 -1 -3 2 
8727 5 0.301963 0.52789 0.0231555 -2 -1 1 
6527 5 0.812031 0.495568 0.00404977 -6 0 2 
7999 6 0.355219 0.562574 0.0270644 -1 -1 1 
6778 6 0.754086 0.524985 0.0389883 -2 -1 2 
6504 5 0.145954 0.540496 0.0120519 6 7 0 
8855 6 0.53167 0.548076 0.0536866 0 -1 5 
5520 5 0.808268 0.569807 0.00756441 4 -3 0 
6969 6 0.646339 0.612091 0.0635656 4 5 -1 
6467 5 0.801708 0.568552 0.0718682 -2 0 0 
7634 6 0.233581 0.576002 0.0294849 3 1 -1 
5506 6 0.279783 0.650473 0.0169097 1 -1 -2 
8095 6 0.1563 0.676451 0.0103183 -3 2 -5 
5976 6 0.422828 0.666266 0.0222697 -3 1 1 
7734 6 0.236269 0.717016 0.0408411 3 -1 2 
7956 5 0.401113 0.708465 0.0150505 0 -3 -6 
5781 6 0.498221 0.711877 0.0262419 -1 0 8 
5637 6 0.743342 0.672672 0.024862 2 5 3 
5015 6 0.565337 0.735738 0.04845 0 0 -4 
8716 6 0.630219 0.71037 0.0377184 5 -1 1 
5313 5 0.965363 0.721892 0.997709 -4 -1 1 
7583 6 0.0634755 0.759268 0.0407796 1 -2 -2 
5448 5 0.0569783 0.81494 0.0416037 5 -1 1 
6782 5 0.461261 0.822403 0.975498 1 -1 0 
5257 5 0.119815 0.845785 0.0518539 7 3 -8 
8447 5 0.456019 0.86472 0.032083 1 -1 2 
7023 5 0.477601 0.825999 0.0413146 -2 -1 4 
6074 5 0.00979635 0.846127 0.99695 0 2 0 
6576 6 0.935887 0.866161 0.0424803 3 -5 1 
6407 5 0.953639 0.849057 0.0709837 0 -2 1 
5827 5 0.347458 0.855052 0.052542 -1 -3 4 
6116 6 0.920912 0.872271 0.0365387 1 1 2 
5531 5 0.382755 0.905427 0.0388806 1 1 -2 
5951 5 0.0518124 0.891688 0.0392487 1 3 -2 
7394 5 0.178816 0.897543 0.0213927 -1 -3 3 
6421 5 0.425071 0.952696 0.0393335 0 -2 4 
8646 6 0.90009 0.946469 0.957313 -2 0 -2 
7304 6 0.900366 0.926687 0.0700583 -3 -2 1 
6463 5 0.807904 0.968051 0.0330271 -6 2 -1 
5676 5 0.131524 0.960109 0.00892276 4 -4 -2 
7815 5 0.574607 0.951638 0.0528708 3 -1 0 
6103 5 0.91773 0.969646 0.0377065 -3 1 2 
6009 5 0.428625 0.992428 0.0977167 2 -3 0 
5261 5 0.199353 0.0289825 0.0532717 -2 2 0 
6543 6 0.181721 0.0679298 0.0437045 7 3 -2 
7102 6 0.480099 0.0618187 0.0522362 -1 0 -1 
8155 6 0.730583 0.0784843 0.0892386 1 -1 0 
7220 6 0.746483 0.0653121 0.0403764 -3 -1 8 
7054 6 0.566108 0.0526342 0.0487692 -4 3 -2 
6557 6 0.291756 0.122703 0.0275914 -5 -3 3 
8099 5 0.306719 0.122562 0.0602414 -3 -2 -5 
8990 6 0.359502 0.125786 0.0526475 -1 0 2 
7426 5 0.897983 0.139915 0.0863953 -4 -1 -3 
8972 5 0.213707 0.146532 0.0507772 0 0 -2 
5167 5 0.278361 0.146878 0.0517728 0 4 -1 
7297 6 0.241105 0.136139 0.0456987 8 1 7 
5421 6 0.61914 0.167018 0.0411823 -6 0 1 
5709 5 0.518961 0.230239 0.035931 -2 -2 0 
5909 6 0.57043 0.158213 0.0820882 -1 0 2 
5615 6 0.745817 0.228707 0.0790484 -1 3 -1 
5195 6 0.112898 0.217904 0.028072 0 -2 0 
8673 6 0.681207 0.191038 0.0297957 1 -2 3 
6662 6 0.887515 0.222083 0.0661533 4 -6 2 
5376 6 0.3808 0.233868 0.0728112 -6 2 -6 
5725 5 0.357697 0.268329 0.0476748 -2 -2 -4 
7331 6 0.474738 0.208634 0.100243 2 -3 1 
7887 5 0.572653 0.270687 0.0599399 4 1 7 
7613 6 0.653947 0.272244 0.0499252 -3 1 3 
7816 6 0.230736 0.339558 0.0542096 -2 1 2 
7371 5 0.828428 0.350424 0.0828273 1 5 2 
8334 6 0.965719 0.327718 0.0637604 2 -4 2 
8136 6 0.728103 0.337915 0.0498171 0 0 1 
5049 5 0.268466 0.389764 0.0531149 -2 -2 1 
7138 6 0.617788 0.395787 0.064979 -2 1 -3 
7606 6 0.529674 0.372308 0.0858378 4 3 -2 
8811 5 0.720477 0.390287 0.0800312 -1 4 -1 
7256 5 0.535235 0.471166 0.0864547 -4 -2 -1 
6796 6 0.0612907 0.477052 0.0475575 4 -3 2 
5814 6 0.0345789 0.48571 0.0546304 -1 2 3 
8490 5 0.477079 0.514612 0.0507639 0 2 4 
8449 6 0.639985 0.522973 0.0562149 3 -1 2 
5282 5 0.269625 0.519872 0.0754692 3 -4 0 
5589 5 0.272635 0.556936 0.00703117 3 3 0 
5843 5 0.0663338 0.600971 0.0590762 -4 -3 -3 
8324 6 0.107598 0.597972 0.070438 6 0 1 
8462 6 0.354785 0.637931 0.0465861 0 -3 1 
8461 5 0.661346 0.614097 0.0818147 -3 5 0 
8893 6 0.892309 0.605759 0.052855 3 -2 -2 
8997 5 0.263658 0.604686 0.0614038 1 2 -2 
8081 6 0.825813 0.646871 0.0729822 3 -3 3 
8267 6 0.732006 0.642857 0.0525487 2 0 1 
8764 5 0.952527 0.678531 0.0580566 -9 0 -1 
7998 6 0.124049 0.665549 0.0276465 1 3 -4 
8973 6 0.100343 0.699197 0.00966466 8 -2 3 
7062 6 0.443245 0.72717 0.060316 -2 -3 -6 
8926 6 0.674451 0.694963 0.0919411 4 -2 4 
7596 6 0.912609 0.700168 0.0784137 3 5 -2 
8906 6 0.984217 0.703999 0.0709908 0 3 0 
8920 6 0.990121 0.732138 0.101848 0 -3 0 
5028 6 0.26581 0.805761 0.075604 0 0 -1 
8235 5 0.309969 0.758103 0.0608042 2 0 -3 
5399 6 0.34876 0.766953 0.0459507 -1 -1 -2 
6381 5 0.239316 0.816594 0.0777617 -4 -2 2 
6690 6 0.504859 0.830106 0.0725535 2 2 -3 
5346 6 0.742682 0.83617 0.0803066 -3 2 0 
8379 6 0.641279 0.86373 0.0214899 1 -1 3 
5907 5 0.391134 0.879311 0.0731119 4 1 -2 
5037 6 0.645262 0.888069 0.0277171 -1 1 7 
6305 6 0.897824 0.860022 0.0463365 2 -3 -5 
5326 5 0.0713113 0.924491 0.0725924 -1 2 -3 
5919 6 0.5261 0.884516 0.108961 0 -2 -1 
6914 6 0.095245 0.925884 0.0880583 -1 1 3 
6859 6 0.418082 0.925758 0.0326731 -4 -1 0 
5255 6 0.110908 0.918119 0.0274906 1 0 -2 
6691 5 0.383454 0.906081 0.0484914 -5 -4 1 
7505 6 0.530609 0.96265 0.0440917 2 -4 -3 
6571 6 0.72024 0.91834 0.0542605 -4 6 -3 
6518 6 0.9211 0.951155 0.102866 2 -2 -1 
5882 6 0.946942 0.962229 0.0832297 0 1 6 
7272 6 0.319469 0.989664 0.0589413 3 3 -4 
8069 5 0.512803 0.966864 0.0493645 -1 -6 -2 
8038 6 0.657377 0.0367827 0.10393 0 0 5 
8018 6 0.133918 0.0516058 0.0901624 -1 -3 -1 
8426 5 0.719206 0.0793668 0.0947006 0 0 0 
7783 5 0.429778 0.0708825 0.0442446 1 3 -2 
7764 6 0.143973 0.13312 0.0847133 3 -2 0 
6229 5 0.203203 0.126599 0.0861767 2 1 2 
7230 6 0.323567 0.113515 0.0838895 -3 -1 1 
8384 5 0.412544 0.126963 0.0297703 -1 7 -1 
7850 6 0.608122 0.113293 0.100327 -3 1 -2 
8342 6 0.104023 0.163373 0.0993608 3 2 2 
8456 6 0.497785 0.154225 0.0923478 1 -1 1 
7835 6 0.578931 0.112381 0.0922994 3 -1 1 
6976 6 0.712126 0.1445 0.0702391 2 1 3 
7231 5 0.269257 0.18087 0.0543636 -3 0 0 
5111 6 0.167949 0.231166 0.0941636 -6 3 3 
7542 6 0.333815 0.147432 0.104905 -3 2 1 
5803 5 0.787618 0.169773 0.0826896 -4 2 2 
6075 6 0.333895 0.284005 0.120182 -1 -2 3 
7603 6 0.573681 0.232183 0.0641929 3 -3 0 
8572 6 0.57674 0.243042 0.0503559 -1 -5 6 
5963 5 0.606939 0.21057 0.109724 0 -1 -2 
5404 6 0.685337 0.228538 0.0383907 -1 -1 0 
8848 6 0.327982 0.20188 0.0470957 5 1 0 
7254 6 0.534346 0.220889 0.123983 -3 5 4 
8836 6 0.599645 0.231415 0.0843209 0 2 -1 
5555 6 0.116943 0.247801 0.103127 2 -2 1 
6356 6 0.243046 0.290052 0.0613865 -1 2 1 
6834 6 0.603282 0.258932 0.0392572 -4 1 0 
6802 5 0.646867 0.300018 0.0699821 -2 -3 0 
8433 5 0.715719 0.399304 0.109497 2 1 4 
6683 5 0.492411 0.428555 0.0711889 3 -3 -5 
5258 5 0.0758192 0.399916 0.104787 -4 1 1 
5093 6 0.175112 0.446918 0.0817682 2 0 -2 
6169 6 0.825077 0.432505 0.0525981 1 0 -1 
7041 6 0.35922 0.483452 0.113894 -3 2 -4 
7175 6 0.0118167 0.501577 0.0680343 -5 4 4 
5345 5 0.330462 0.513675 0.111847 -1 1 2 
7164 5 0.970651 0.494887 0.0504792 2 4 2 
6846 5 0.558591 0.509335 0.0736522 3 6 3 
7724 5 0.038411 0.552686 0.116177 1 -2 -4 
8702 6 0.192192 0.562228 0.0503559 -1 0 0 
7881 5 0.880381 0.555258 0.0953792 -3 -4 4 
8592 5 0.683132 0.534907 0.0759821 3 -4 6 
5779 5 0.688512 0.559455 0.0805405 2 0 0 
7843 6 0.429893 0.603677 0.0557602 -1 -2 -1 
8854 6 0.462137 0.608141 0.0764048 -1 -2 1 
8120 6 0.39679 0.63144 0.0906723 2 4 -3 
6177 6 0.119539 0.680121 0.0660629 1 1 -2 
7701 6 0.353613 0.664876 0.0720681 2 2 2 
7127 6 0.369444 0.653416 0.0485177 -3 1 -1 
8962 6 0.653348 0.71841 0.080109 -2 1 1 
6756 5 0.74552 0.698493 0.0794326 -6 1 2 
5524 5 0.75432 0.693095 0.0493365 1 -2 3 
6764 6 0.601832 0.666984 0.129879 4 0 3 
5694 5 0.0411272 0.740219 0.123463 5 1 -1 
8516 5 0.031707 0.754307 0.0919462 1 2 5 
5251 6 0.0811731 0.740481 0.0852066 0 1 0 
6649 6 0.339609 0.747795 0.097587 -2 0 -4 
7716 5 0.682059 0.764438 0.0685983 1 -4 1 
5168 6 0.909364 0.759302 0.0847544 1 -3 0 
5684 5 0.2702 0.776904 0.0762377 2 3 0 
7234 5 0.309645 0.775793 0.035794 1 1 4 
7978 5 0.74887 0.782163 0.10524 2 -1 -4 
7412 5 0.874033 0.810588 0.0325773 4 4 5 
5795 5 0.74773 0.859232 0.0800212 -1 -1 -2 
7997 5 0.842785 0.824155 0.0667601 3 -6 2 
7327 5 0.95579 0.846576 0.0811207 1 3 1 
7838 6 0.0416341 0.853689 0.0979322 1 -1 4 
8867 6 0.0312474 0.852647 0.0635322 1 4 9 
6292 5 0.153838 0.877294 0.0729756 5 -1 -1 
5481 6 0.179105 0.86281 0.0894289 1 -4 -2 
6475 6 0.725028 0.874622 0.107072 1 -4 3 
7021 6 0.373419 0.901261 0.0835574 0 -2 -1 
6899 6 0.564936 0.904192 0.121281 2 -2 2 
8536 6 0.653254 0.904717 0.0405752 1 -2 -4 
7067 5 0.836442 0.894084 0.0845286 -4 -1 -2 
7131 6 0.830159 0.937559 0.144681 1 1 2 
5203 6 0.153718 0.924992 0.101331 -6 1 2 
6816 5 0.523506 0.950706 0.1058 5 -5 3 
6462 6 0.673004 0.890874 0.0873325 2 -1 0 
6386 6 0.224566 0.92524 0.0464943 0 -3 4 
7381 5 0.764445 0.988198 0.081848 -4 0 -3 
6120 6 0.0173118 0.0102689 0.152599 -4 3 0 
8943 5 0.511054 0.986497 0.0552522 -3 0 2 
5005 6 0.934654 0.990775 0.0925145 1 2 -2 
7665 6 0.925497 0.967036 0.0683121 -5 -3 0 
7419 5 0.143223 0.978811 0.112356 4 -3 6 
6759 5 0.117202 0.980907 0.10733 3 0 8 
7967 6 0.796882 0.0473861 0.0964982 -1 -4 -2 
5294 5 0.323164 0.0244721 0.0847966 2 0 3 
6968 5 0.942279 0.015841 0.0841557 -2 -3 -1 
8621 5 0.268675 0.0778561 0.0970936 0 -1 -3 
6693 6 0.00695356 0.131548 0.112486 1 1 -1 
6131 5 0.182115 0.0647303 0.100381 1 -1 3 
6336 5 0.276553 0.138698 0.0943551 5 -1 -6 
5408 5 0.290322 0.130949 0.106125 4 -1 -4 
5301 5 0.0835439 0.148583 0.100179 0 3 4 
6187 6 0.236169 0.188363 0.125486 1 4 -1 
5252 5 0.0399234 0.177014 0.13729 0 -1 -3 
5972 5 0.708744 0.179807 0.133526 3 -1 -1 
8602 5 0.423939 0.195199 0.105423 2 1 5 
7826 5 0.802037 0.282731 0.0769909 -4 1 -5 
5790 6 0.0474221 0.273717 0.134983 -3 0 -2 
6352 6 0.281688 0.298256 0.12009 1 -2 -1 
7664 6 0.774297 0.29803 0.089556 -1 3 -3 
6223 6 0.835492 0.329892 0.120398 -6 -2 3 
8125 5 0.81501 0.315448 0.125123 1 -4 3 
5333 6 0.978848 0.338229 0.0907325 0 -4 4 
5023 6 0.107544 0.384073 0.0983489 6 4 -2 
6077 6 0.236702 0.383838 0.119862 -3 5 -2 
7793 6 0.907153 0.3541 0.10341 2 1 2 
8807 5 0.103381 0.369761 0.109252 1 0 -1 
6918 6 0.530409 0.40301 0.133032 1 -2 3 
6738 5 0.431041 0.435764 0.11284 3 -3 -1 
6997 5 0.77423 0.366539 0.105961 -4 -4 -3 
8073 6 0.912026 0.399282 0.135672 4 1 3 
6146 6 0.308453 0.487113 0.136705 0 5 1 
6359 6 0.976933 0.464841 0.0831315 -2 -2 -2 
7436 6 0.591787 0.515419 0.0976612 2 3 -2 
7487 5 0.814313 0.495698 0.117147 -1 -6 -1 
5349 5 0.197485 0.512324 0.0561505 2 2 -2 
6839 5 0.67828 0.496458 0.10954 2 -3 1 
8692 6 0.57367 0.549114 0.0813652 4 -3 7 
7053 5 0.0930699 0.551612 0.0915399 4 -1 3 
6643 6 0.319731 0.559093 0.0717967 5 -1 -1 
5956 6 0.862114 0.593135 0.118407 -1 0 6 
8708 6 0.500955 0.601211 0.0995682 1 -2 2 
8175 6 0.696135 0.591302 0.0907161 -5 -1 -5 
8604 5 0.740584 0.598297 0.0974254 -4 0 1 
6492 5 0.177007 0.645207 0.0552939 4 -2 1 
5978 5 0.394017 0.638546 0.104409 -2 -5 0 
5045 6 0.572123 0.67505 0.0631715 -2 0 -1 
7862 5 0.368729 0.673326 0.164217 7 0 0 
8219 5 0.155985 0.670646 0.110752 1 2 2 
7203 6 0.554546 0.654525 0.0995932 -1 -2 1 
5613 6 0.617179 0.691646 0.133923 -2 -2 0 
5492 5 0.745096 0.679603 0.0912699 0 -2 -2 
7903 6 0.767096 0.702871 0.133965 3 5 0 
5635 5 0.107859 0.717998 0.124636 -1 7 0 
5179 5 0.26225 0.730937 0.126289 -2 -6 0 
5581 5 0.416508 0.732267 0.116085 2 3 -1 
6405 5 0.948518 0.72842 0.123462 -5 -1 -2 
5672 6 0.295031 0.780448 0.129023 -3 -3 4 
6051 6 0.538468 0.73747 0.161775 -1 8 -2 
5018 6 0.966001 0.737451 0.132199 1 -1 -1 
7324 5 0.340352 0.766326 0.0906543 2 2 2 
5335 6 0.298465 0.787644 0.102682 -1 1 -1 
8523 6 0.414183 0.777457 0.0284986 -2 0 -1 
7195 5 0.449909 0.813814 0.131545 3 -2 2 
7464 5 0.922594 0.817447 0.0761179 -5 -3 0 
5752 5 0.155135 0.856546 0.0780863 1 3 5 
7656 6 0.959931 0.864192 0.091108 -1 3 0 
6600 5 0.0808577 0.87104 0.0973175 -1 3 2 
6464 6 0.0775675 0.862096 0.113477 -1 -7 4 
8628 5 0.423334 0.857355 0.11939 3 -3 5 
6828 6 0.419066 0.86722 0.0754912 2 -4 -1 
6184 6 0.135403 0.953909 0.132839 -1 -3 -4 
5541 6 0.361928 0.948469 0.103899 0 3 4 
6817 5 0.79445 0.921503 0.0938788 1 -1 -2 
5516 6 0.985451 0.923679 0.0857042 0 4 3 
6061 6 0.135756 0.933008 0.103825 -3 1 3 
8726 6 0.472448 0.960887 0.0873663 2 2 2 
6558 5 0.63284 0.964503 0.0970398 2 2 0 
6549 5 0.956011 0.940216 0.0949093 1 -8 1 
8386 5 0.0614869 0.974585 0.102808 1 0 -4 
5800 5 0.398315 0.0392395 0.126697 1 0 1 
7087 6 0.0591132 0.0361231 0.129684 -1 0 -6 
6250 5 0.884868 0.0454169 0.104725 -1 0 -1 
8910 5 0.496181 0.0336518 0.131829 1 -2 2 
7366 6 0.665385 0.0944816 0.159533 0 3 3 
7946 6 0.957594 0.0173203 0.122544 7 -2 1 
5275 5 0.137696 0.0890548 0.165795 4 -3 -4 
7204 6 0.160299 0.0395471 0.106362 3 3 0 
5234 5 0.623304 0.0904953 0.108575 -3 -2 0 
5105 6 0.50389 0.109021 0.124262 -2 1 3 
7640 6 0.875867 0.130271 0.129105 1 3 0 
5873 6 0.967593 0.102718 0.124981 0 5 -3 
7707 6 0.190624 0.158671 0.148615 4 -7 -1 
6559 5 0.626377 0.164859 0.131655 5 -2 -3 
6428 5 0.725471 0.182645 0.0882903 -3 3 7 
6137 6 0.92725 0.150726 0.147296 5 0 3 
6806 6 0.971433 0.162876 0.155251 1 -4 1 
8305 5 0.0631301 0.220306 0.114766 7 2 -4 
8197 5 0.742869 0.228562 0.121912 -2 1 5 
6906 5 0.848695 0.18056 0.105579 1 -2 -1 
7501 5 0.950136 0.193155 0.1727 -5 -1 0 
5986 6 0.169665 0.239555 0.160592 -1 2 2 
7269 5 0.55025 0.238928 0.1313 -3 -3 1 
7015 5 0.610201 0.251644 0.166221 1 1 -2 
5930 6 0.727083 0.284031 0.106916 2 0 4 
7513 6 0.941122 0.261467 0.112912 -5 1 -3 
7832 6 0.617902 0.260636 0.0770425 3 2 1 
8010 6 0.684597 0.310407 0.139294 3 -4 -1 
5080 5 0.281629 0.290153 0.155585 -2 3 0 
7365 6 0.353472 0.270013 0.0661134 -1 -5 -2 
5869 5 0.733457 0.263793 0.125436 -2 -3 -1 
7435 6 0.0754695 0.365427 0.100551 -2 0 4 
6671 5 0.192621 0.336961 0.155457 3 -2 3 
6419 6 0.611306 0.352911 0.095478 -3 -2 0 
7118 6 0.668997 0.33953 0.114095 -2 -4 5 
8834 6 0.684231 0.353758 0.116583 1 3 0 
8877 6 0.716245 0.340921 0.11927 -1 3 7 
6230 6 0.0398045 0.359297 0.121211 -2 -2 3 
6717 5 0.354927 0.342048 0.147706 1 -3 -2 
7197 5 0.559942 0.367781 0.091696 -1 -2 -3 
7489 5 0.949002 0.385153 0.114074 -5 -1 -1 
5281 5 0.577067 0.359932 0.141687 2 -4 2 
7106 6 0.228051 0.415523 0.124497 -2 -4 2 
7595 6 0.511213 0.394943 0.130147 0 -1 0 
8108 6 0.927197 0.45359 0.110468 -1 1 1 
6841 6 0.886527 0.423266 0.133261 -4 -2 0 
7078 5 0.205795 0.413722 0.18072 1 3 0 
5633 5 0.22725 0.441383 0.12924 5 3 2 
7622 6 0.641346 0.448406 0.12325 -2 -1 1 
8026 5 0.410983 0.476225 0.138966 -2 3 1 
7560 5 0.506355 0.45344 0.131621 5 1 1 
8477 6 0.565625 0.455527 0.118074 -2 0 -1 
6205 5 0.667054 0.490661 0.113013 -1 -1 5 
8366 6 0.767125 0.484597 0.16019 1 4 0 
8641 6 0.761947 0.523027 0.127799 -3 -3 -4 
8999 6 0.147403 0.557403 0.13186 -2 1 3 
8710 6 0.468698 0.567987 0.103539 0 3 0 
8520 6 0.655515 0.497829 0.0910416 1 -4 5 
6895 6 0.0544025 0.592049 0.13816 -2 2 1 
7557 6 0.286335 0.56907 0.0816625 2 2 4 
6098 6 0.292092 0.536115 0.151271 -4 2 -1 
7817 5 0.289133 0.571102 0.100885 1 3 2 
8574 6 0.850303 0.609313 0.0879367 1 -3 0 
7398 5 0.912532 0.586967 0.137616 -1 0 -2 
8509 5 0.52477 0.590805 0.130254 -1 -4 -1 
8982 6 0.517376 0.58706 0.116564 2 1 -3 
7977 6 0.344936 0.578273 0.118836 2 0 3 
8695 5 0.472265 0.688678 0.0744354 -4 -2 -6 
5969 6 0.859333 0.674546 0.158904 0 2 2 
8408 6 0.925268 0.671311 0.120633 -4 -7 -4 
5145 6 0.99225 0.632878 0.125857 3 1 0 
5765 6 0.583515 0.694362 0.124083 5 4 4 
8299 5 0.656506 0.707994 0.119616 3 2 -8 
7743 5 0.729996 0.672615 0.143037 2 -3 0 
5155 6 0.873366 0.664111 0.100366 -2 4 1 
5656 6 0.477304 0.733497 0.136354 5 0 -2 
5577 5 0.839319 0.670179 0.136641 1 0 0 
6509 6 0.0168954 0.78206 0.124494 4 2 1 
7119 5 0.253805 0.766503 0.126104 -1 1 1 
8779 6 0.318839 0.745661 0.11906 -2 0 0 
8098 6 0.703605 0.744399 0.113579 -3 1 -6 
8189 5 0.884655 0.780968 0.0988454 2 2 5 
5460 6 0.809622 0.799638 0.125218 1 6 5 
7589 6 0.49949 0.802192 0.129817 5 2 -4 
5585 6 0.512427 0.808062 0.140028 4 1 1 
7312 6 0.230912 0.821523 0.100093 4 -5 -5 
5845 6 0.385107 0.825161 0.151738 5 7 0 
6368 5 0.425659 0.815127 0.12676 4 6 1 
5842 5 0.55611 0.88605 0.12324 -1 -3 -2 
7649 5 0.0936437 0.842835 0.094331 -2 -3 0 
8295 5 0.156539 0.92158 0.146565 1 1 3 
7512 6 0.118413 0.925792 0.0994292 1 1 -1 
7741 5 0.199894 0.90549 0.140846 0 6 1 
7610 6 0.238126 0.890763 0.10899 3 1 -3 
8368 6 0.799807 0.926111 0.144968 -1 1 1 
7990 5 0.645303 0.909118 0.11947 2 2 -7 
6556 5 0.182967 0.926387 0.145117 4 -2 7 
5888 5 0.0620434 0.99057 0.11401 -1 -5 4 
8372 6 0.219688 0.96017 0.119477 -4 0 6 
6575 6 0.0328168 0.0338296 0.119553 6 -1 3 
5102 6 0.408738 0.985836 0.120713 -2 1 0 
5870 6 0.0236962 0.0307895 0.115615 -2 2 1 
8940 6 0.163504 0.0361693 0.173563 1 4 10 
6456 6 0.721557 0.99341 0.157833 -3 -2 3 
8387 6 0.802517 0.0290322 0.157812 -2 -6 -4 
7749 5 0.832722 0.0196957 0.142261 0 -1 -3 
7733 6 0.269545 0.0470704 0.159085 0 0 3 
8472 5 0.829343 0.0215666 0.111812 5 -3 2 
8239 6 0.504938 0.092296 0.119816 -4 0 -2 
6479 6 0.614749 0.0869823 0.156049 -5 -1 5 
7846 6 0.179517 0.089613 0.143121 1 6 -1 
5671 6 0.261366 0.0730107 0.157762 -3 0 0 
8444 5 0.537165 0.103302 0.150318 -3 2 -2 
7239 5 0.597891 0.129783 0.134579 -1 2 -2 
6783 5 0.959705 0.0794225 0.174134 -4 -2 1 
6441 6 0.76539 0.148592 0.134993 -1 2 -2 
7433 6 0.375914 0.136547 0.14911 0 7 3 
7189 6 0.477185 0.155317 0.123022 2 -2 7 
7788 6 0.89975 0.140945 0.150266 -1 1 0 
5271 6 0.0706363 0.212004 0.15896 4 1 2 
5426 6 0.518324 0.186039 0.131068 -4 5 -5 
5587 6 0.83785 0.193879 0.151737 2 0 -3 
5149 6 0.119996 0.178196 0.161007 1 -1 0 
6639 5 0.197362 0.180341 0.0993309 -2 6 -2 
8178 5 0.306567 0.207857 0.186099 -3 -3 -1 
7166 6 0.250046 0.197362 0.162901 2 -6 -3 
5459 5 0.515742 0.201882 0.111641 1 -2 2 
5600 5 0.605673 0.201531 0.156114 0 1 1 
8034 5 0.00171403 0.166158 0.13116 1 -2 2 
7987 6 0.0884392 0.245473 0.150905 0 1 -2 
6515 6 0.180903 0.224996 0.107032 -2 0 -4 
5497 6 0.431875 0.263331 0.164805 -1 -1 -3 
8614 5 0.167732 0.234451 0.170496 1 -1 -1 
8329 6 0.512515 0.224688 0.110195 3 -2 -3 
8213 5 0.100937 0.266931 0.162122 2 1 1 
8473 6 0.208189 0.289449 0.136084 6 3 0 
8147 5 0.355213 0.302775 0.162325 2 0 -2 
6302 6 0.435571 0.31013 0.156228 -1 2 -6 
7265 5 0.884166 0.296552 0.132205 -1 4 0 
6132 5 0.363355 0.346363 0.123616 -2 -4 0 
7320 6 0.976944 0.324424 0.134175 -5 0 0 
6008 6 0.25471 0.301195 0.0978863 -3 -3 6 
7275 6 0.318117 0.314577 0.130149 -1 -3 -3 
5030 6 0.454721 0.337692 0.13105 -1 0 -1 
5915 6 0.572721 0.327068 0.105531 0 2 0 
6159 5 0.0196643 0.424944 0.148393 5 1 -5 
7570 5 0.388901 0.416513 0.185181 1 1 3 
8465 6 0.670064 0.392212 0.175555 -1 -1 2 
5529 5 0.81803 0.434382 0.1451 0 -2 -1 
7628 5 0.909052 0.439847 0.136998 -2 1 -1 
8253 6 0.961736 0.388411 0.128746 2 0 2 
6873 6 0.635197 0.425125 0.12956 -2 3 -5 
5887 5 0.436522 0.441454 0.137071 2 -2 0 
7773 5 0.502453 0.503929 0.171685 -4 0 2 
7178 5 0.551497 0.494067 0.129341 0 0 1 
6933 5 0.352286 0.511651 0.169865 1 2 -1 
6219 6 0.638748 0.504393 0.152248 -4 -2 -4 
7128 5 0.824703 0.546716 0.145662 1 -1 -1 
8704 6 0.201354 0.541334 0.146951 -1 2 1 
5031 5 0.0930318 0.590514 0.144306 -1 0 3 
6001 6 0.583833 0.585048 0.147948 -1 0 -2 
5708 6 0.744646 0.552536 0.157166 -2 2 3 
7940 6 0.701562 0.571177 0.166935 3 -3 4 
8093 6 0.248363 0.624666 0.125469 3 0 -1 
6749 5 0.349657 0.644243 0.184966 -2 -2 1 
8467 6 0.0334661 0.611079 0.115041 -3 2 0 
5214 6 0.594528 0.650972 0.150467 6 -2 -2 
6473 5 0.611394 0.658822 0.191613 -2 3 5 
6057 5 0.136917 0.624949 0.156912 -4 -5 -8 
7915 6 0.557881 0.680976 0.133649 1 -1 2 
5929 5 0.729967 0.68082 0.153976 -2 2 -3 
5099 6 0.975397 0.690309 0.146209 -3 -3 2 
5138 5 0.0724442 0.722973 0.177517 5 1 -4 
6395 5 0.115691 0.698202 0.12735 3 -2 1 
6930 6 0.542076 0.684065 0.132752 4 -3 0 
5858 5 0.669377 0.72219 0.137735 2 2 -2 
5449 5 0.951785 0.6739 0.131969 -5 0 2 
5392 6 0.968412 0.728261 0.123451 -1 2 -1 
8530 5 0.147551 0.710708 0.134819 0 4 -5 
8717 5 0.341036 0.713639 0.13654 2 5 2 
7383 6 0.0193611 0.752113 0.132313 3 0 7 
6408 5 0.0101402 0.740826 0.168933 -2 -3 -5 
6826 5 0.859894 0.769032 0.158759 3 -1 -4 
8185 6 0.198525 0.78371 0.179428 -3 1 3 
7258 6 0.754439 0.786955 0.133821 1 2 -3 
7549 6 0.258891 0.803645 0.136862 3 2 3 
7356 5 0.353626 0.773984 0.170336 -5 6 2 
8500 5 0.409895 0.805539 0.157826 2 -5 3 
8801 5 0.811561 0.819582 0.131291 -2 0 0 
5533 5 0.624711 0.826884 0.16231 2 -2 -1 
6257 5 0.881031 0.82255 0.118227 2 -5 -1 
6058 5 0.129154 0.889081 0.148218 3 -2 0 
6544 5 0.216765 0.867069 0.153793 0 -1 -4 
8565 6 0.271441 0.86466 0.140412 2 2 1 
8137 5 0.358701 0.84987 0.152711 3 -4 1 
5741 6 0.849753 0.883801 0.144626 1 -2 2 
7666 6 0.96575 0.871425 0.143238 1 0 -1 
7910 6 0.759139 0.932017 0.146291 0 0 3 
6329 6 0.432837 0.91759 0.147255 0 0 4 
8014 5 0.466477 0.900516 0.118891 2 1 0 
6844 6 0.615618 0.91331 0.127306 4 2 -4 
8790 6 0.944894 0.935215 0.126543 0 -4 0 
7647 6 0.209729 0.967339 0.118543 0 -3 0 
8167 6 0.0695226 0.988598 0.17082 -2 3 1 
8975 6 0.475845 0.94739 0.130411 5 0 1 
5680 5 0.155077 0.0467126 0.139724 4 -2 -1 
7036 6 0.778446 0.0361294 0.175633 2 0 -3 
6941 6 0.928882 0.980574 0.173077 5 -4 1 
8898 6 0.119731 0.0276808 0.208694 1 -4 -2 
8078 6 0.232917 0.0494107 0.169687 0 -2 -2 
7408 5 0.333409 0.00625026 0.183151 -5 1 2 
7063 5 0.375742 0.0169363 0.186029 4 2 -3 
6597 6 0.124437 0.0626752 0.15741 0 0 2 
5732 5 0.864912 0.107146 0.220544 -2 5 -1 
8694 5 0.946327 0.0993211 0.166463 2 1 -1 
8556 5 0.332816 0.0951601 0.161521 3 6 -1 
8001 5 0.411181 0.0799199 0.187463 -3 6 0 
7194 6 0.206085 0.167253 0.158011 2 1 0 
7751 6 0.357167 0.121642 0.124621 2 2 3 
7218 6 0.450423 0.105227 0.145151 1 2 -3 
8816 6 0.967155 0.0977571 0.206891 -3 -1 2 
6929 5 0.457063 0.134819 0.160138 -2 2 1 
7919 6 0.389593 0.152729 0.207459 -1 0 6 
8731 6 0.952936 0.190359 0.151805 -5 -5 2 
8993 6 0.666895 0.226948 0.16682 -1 3 1 
5855 5 0.0621537 0.229912 0.186482 1 -1 -3 
5977 6 0.977536 0.220994 0.155678 0 4 2 
5704 6 0.880583 0.262735 0.193517 -4 -4 -2 
5552 5 0.935068 0.260724 0.167126 1 4 -1 
6343 5 0.408425 0.254441 0.169709 1 2 -1 
8839 6 0.58558 0.293505 0.199769 3 2 4 
6770 6 0.851562 0.305432 0.190856 5 6 1 
8806 6 0.925635 0.313361 0.170275 9 -2 6 
5389 6 0.440517 0.274513 0.155456 5 5 -5 
5436 6 0.807628 0.31035 0.168555 0 2 0 
8551 6 0.0510281 0.341081 0.133593 5 2 1 
5235 6 0.0801774 0.395047 0.14588 -1 -6 -1 
5733 5 0.132157 0.404761 0.153645 -4 -1 1 
8762 5 0.236619 0.392798 0.213242 3 -1 -2 
7061 5 0.771713 0.407106 0.212113 -5 -1 1 
6450 6 0.855809 0.424475 0.171692 0 -3 -2 
5959 5 0.953932 0.38114 0.150492 3 -3 2 
8224 5 0.348512 0.423791 0.205799 1 -1 0 
6911 6 0.137139 0.476581 0.184403 3 1 0 
6439 5 0.304797 0.414263 0.160799 -1 0 -3 
7591 5 0.762005 0.418389 0.181443 0 -1 -1 
8127 5 0.816808 0.466451 0.184904 1 5 2 
8644 6 0.10074 0.467887 0.194108 -3 -2 2 
8505 5 0.292947 0.460749 0.160811 5 0 6 
6437 6 0.266375 0.50832 0.204024 -1 1 1 
8064 6 0.495481 0.489992 0.177953 -2 4 -3 
8828 6 0.923283 0.482137 0.183286 1 -3 2 
6411 6 0.770883 0.514384 0.114677 -4 1 3 
6243 5 0.814246 0.547488 0.165107 1 -1 4 
8853 5 0.0320832 0.550195 0.191095 -2 3 4 
5928 6 0.330185 0.544369 0.155865 -3 -1 -3 
7288 5 0.481473 0.545318 0.140491 3 -3 6 
6876 6 0.16275 0.58397 0.16056 -2 -5 0 
5348 6 0.2834 0.603833 0.122295 0 -3 -1 
5027 6 0.846482 0.608661 0.166268 0 -5 -2 
6988 5 0.847674 0.599283 0.187038 4 -2 -4 
6109 5 0.99406 0.572455 0.165732 0 4 -2 
7410 5 0.202325 0.663481 0.205623 -4 1 -1 
5604 5 0.408232 0.636176 0.150309 1 4 -2 
7705 5 0.191624 0.68867 0.130213 -2 2 3 
8124 6 0.208362 0.675686 0.156545 -3 2 3 
5369 5 0.501581 0.685477 0.132551 0 1 1 
7105 5 0.675407 0.662836 0.202233 0 1 1 
6294 5 0.277249 0.688564 0.175548 1 -3 1 
8309 5 0.209501 0.748946 0.150192 2 3 1 
5838 5 0.619713 0.727513 0.178303 1 1 -4 
7608 6 0.782479 0.746366 0.168017 1 -2 4 
8306 6 0.888521 0.760599 0.150284 -1 -1 1 
5440 5 0.92953 0.739096 0.192669 0 1 -1 
8206 6 0.939777 0.800391 0.174054 -7 4 5 
5846 6 0.171517 0.783948 0.164777 5 4 -6 
7048 5 0.495945 0.796347 0.151218 1 -3 3 
7216 5 0.185465 0.865071 0.182232 -1 2 -1 
6170 6 0.296938 0.807108 0.16164 0 2 1 
5079 5 0.357444 0.843874 0.167869 2 -2 -1 