ITEM: TIMESTEP
20000000
ITEM: NUMBER OF ATOMS
9000
ITEM: BOX BOUNDS pp pp pp
-75 75
-75 75
-75 75
ITEM: ATOMS id type xs ys zs ix iy iz 
6752 5 0.101548 1.00002 0.00301936 7 -2 2 
6588 5 0.734812 0.989017 0.0319353 0 -4 2 
6169 5 0.847337 0.0171191 0.0493716 -4 -1 8 
5641 5 0.0960175 0.0195006 0.0159775 3 -2 7 
5504 6 0.619322 0.0538848 0.0202644 4 1 0 
7133 6 0.803851 0.0519205 0.00390116 -5 0 3 
6605 5 0.799113 0.0338946 0.00135818 -1 -3 1 
6879 5 0.994112 0.0468197 0.977803 -2 -2 -1 
5603 6 0.357255 0.143006 0.985753 3 3 1 
6156 6 0.444342 0.109549 0.0136849 2 -1 2 
8495 6 0.533859 0.0723772 0.0265271 2 -2 -2 
7637 5 0.611559 0.0754075 0.00732967 -2 1 -1 
7613 5 0.0810287 0.147543 0.0512908 0 0 -1 
6333 5 0.236707 0.14653 0.016995 0 2 1 
8975 6 0.468301 0.085577 0.041062 4 0 -2 
5869 5 0.488716 0.160768 0.0599316 0 0 -2 
6298 6 0.925817 0.164463 9.27806e-05 1 1 0 
6101 6 0.0384583 0.209075 0.00916773 4 0 0 
5795 6 0.530605 0.185605 0.0301916 1 -2 -7 
5444 5 0.698898 0.198846 0.978237 7 -4 4 
5896 5 0.840881 0.175912 0.0446123 0 -2 4 
5017 6 0.457538 0.181023 0.979239 4 3 -2 
6759 5 0.177084 0.208599 0.0400379 -3 4 2 
5701 6 0.216132 0.191526 0.00901153 3 3 -2 
6920 6 0.383299 0.186627 0.0150623 -2 0 1 
6236 5 0.601161 0.20223 0.012391 -2 1 -7 
5006 5 0.100583 0.217771 0.01199 0 -1 1 
5464 5 0.421367 0.20199 0.988686 2 3 -4 
5267 6 0.873535 0.230167 0.981028 -2 -5 6 
6942 5 0.497035 0.271015 0.981719 -5 -3 -3 
6990 6 0.353262 0.262437 0.0318926 1 4 -1 
6393 6 0.592587 0.299853 0.970118 -5 -1 1 
8434 6 0.0571492 0.335058 0.0134912 3 -2 4 
7476 6 0.083439 0.295321 0.987623 0 2 -4 
7224 6 0.18816 0.360765 0.00585841 4 1 -2 
6452 6 0.494041 0.344209 -0.00143411 -4 -2 3 
8148 5 0.599693 0.318873 0.00887169 -7 -4 3 
8719 5 0.501958 0.298924 0.979528 3 -4 3 
8457 5 0.763707 0.373397 0.0376233 2 -5 4 
8810 6 0.657963 0.376736 0.0144491 4 0 2 
7297 6 0.742271 0.372922 0.0175582 1 0 -3 
8808 5 0.245047 0.358512 0.0322001 -1 3 4 
7888 6 0.0537193 0.429528 0.00544097 1 1 0 
5042 5 0.105216 0.435474 0.0235585 0 5 8 
7416 5 0.265446 0.394821 0.0217434 -2 -4 1 
8419 5 0.287935 0.42441 0.9899 -1 3 2 
7557 5 0.31971 0.390304 0.0180262 3 -3 1 
7440 5 0.988805 0.390578 0.969009 1 -2 -3 
8291 6 0.138552 0.455977 0.016854 -4 2 -5 
5704 5 0.832171 0.498659 0.00439206 -3 0 -2 
6835 6 0.796183 0.492667 0.077555 4 -7 3 
6870 6 0.479701 0.480572 0.0323775 -4 4 -1 
7789 6 0.601775 0.514971 0.981748 1 -2 -3 
6558 6 0.123556 0.5202 0.0106804 3 -3 1 
5952 5 0.780876 0.599829 0.0198857 2 1 -2 
8678 5 0.993672 0.567427 0.959375 -1 0 3 
7379 6 0.174923 0.583827 0.9624 3 -3 0 
6501 6 0.164898 0.611678 0.0203192 -3 -4 0 
7733 6 0.460887 0.65634 0.032841 4 1 3 
5828 5 0.508537 0.628009 0.974059 4 -2 -5 
6934 6 0.0687207 0.62086 0.0175158 2 0 0 
7168 5 0.0755396 0.677487 0.984646 -5 1 -4 
6589 5 0.461287 0.702216 0.989882 3 0 -1 
8033 6 0.626886 0.655544 0.984921 -3 3 -6 
5853 5 0.41746 0.732397 1.00035 -4 -1 1 
7577 5 0.677278 0.679379 0.0161716 1 1 -1 
6524 6 0.702714 0.677195 0.0161331 1 4 3 
8650 5 0.999936 0.688987 0.000109212 2 1 -3 
6271 5 0.721232 0.716858 0.0230456 -1 0 -9 
6029 6 0.31612 0.736151 0.0316181 0 -7 3 
7813 6 0.562507 0.742342 0.0153162 4 0 -1 
8960 5 0.0188979 0.762569 0.00486737 1 1 0 
6288 6 0.565075 0.755245 0.00598779 -2 -3 -4 
7295 5 0.383402 0.778054 1.00467 0 -1 3 
6140 6 0.641865 0.825813 0.0448418 1 -1 0 
5899 6 0.833845 0.812597 0.0088068 2 -2 2 
8283 6 0.902592 0.820438 0.0290692 -1 -1 3 
7935 6 0.978661 0.824529 0.0127659 2 3 -2 
5300 5 0.107578 0.82979 0.0485846 1 -4 -5 
6190 5 0.698942 0.838075 0.998703 4 4 3 
6003 5 0.824109 0.860103 0.0424144 2 -3 1 
7270 5 0.0947388 0.897101 0.00398198 -2 -1 0 
8729 5 0.215299 0.888699 0.0261169 3 0 0 
6813 6 0.594336 0.877283 0.000739806 -2 4 -1 
7580 6 0.874473 0.885562 0.0352876 -1 4 -3 
6615 5 0.421675 0.893321 0.0422282 2 0 -7 
5201 5 0.473767 0.925574 0.975247 2 -4 -3 
7712 5 0.547881 0.880338 0.991596 -2 1 1 
7654 6 0.933089 0.931577 0.00849158 1 1 0 
6455 6 0.149049 0.933211 0.00559879 -2 -1 2 
5235 5 0.115609 0.940874 0.00940259 1 -2 4 
6068 5 0.188092 0.98069 0.028306 0 2 3 
8815 6 0.479454 0.960294 0.000748489 0 1 -3 
5571 5 0.474539 0.988625 0.0289373 5 2 0 
6844 6 0.00597653 0.0398037 0.0421755 1 0 -4 
5352 5 0.196845 0.994024 0.029926 2 -3 -1 
5682 6 0.496093 0.0352359 0.0366733 -4 4 3 
5778 6 0.964438 0.00596198 0.0364478 4 0 1 
5124 6 0.860341 0.0514898 0.017847 -4 3 -1 
8982 6 0.157936 0.0760282 -7.09182e-06 5 0 2 
5900 6 0.730947 0.0951329 0.00774043 5 0 4 
5893 6 0.63425 0.0604545 0.00678951 2 -5 -3 
5604 6 0.636205 0.100499 0.0466379 4 -2 3 
7822 6 0.620882 0.170187 0.0111315 1 0 2 
5250 5 0.83767 0.115598 0.0330196 -1 2 -2 
5021 5 0.917256 0.151626 0.990571 -2 1 -1 
6569 6 0.89188 0.136694 0.0575961 -4 1 5 
8726 5 0.493038 0.167241 0.0192933 1 -5 0 
7535 6 0.493017 0.1432 0.0102188 2 -3 3 
8409 6 0.497495 0.209394 0.0122426 1 1 5 
8797 5 0.798635 0.248676 0.0179783 -5 2 -4 
6814 5 0.940524 0.193513 0.0273324 -7 -3 2 
8123 6 0.298388 0.218493 0.0442314 -3 3 4 
8455 6 0.405323 0.212239 0.0702048 -2 -2 2 
8651 5 0.515075 0.234899 0.0622659 1 7 4 
5726 5 0.340927 0.233017 0.0720384 -2 -2 4 
8187 6 0.264718 0.342375 0.0449544 -1 2 0 
8243 6 0.350132 0.33967 0.0330551 2 2 2 
6518 6 0.0876097 0.330812 0.023861 1 2 1 
8910 6 0.178651 0.310799 0.024785 -3 -5 2 
8991 5 0.321043 0.35958 0.997401 2 3 -2 
8594 6 0.550655 0.381231 0.0636119 -2 5 2 
6639 6 0.746007 0.365992 0.0329662 -1 0 -4 
8220 5 0.852282 0.377516 0.0388457 1 -2 4 
6038 6 0.931321 0.388576 0.0458957 1 2 7 
5128 6 0.592219 0.450983 0.00255834 0 -4 -5 
7335 6 0.808924 0.424578 0.054431 -2 1 -1 
8595 6 0.117936 0.444545 0.0175047 1 -2 -3 
5814 5 0.570946 0.473754 0.0399297 3 -2 0 
5960 6 0.739354 0.389534 0.0781491 1 0 0 
8561 6 0.849928 0.408976 0.0277296 -6 -1 8 
5980 6 0.415198 0.501821 0.00441526 -3 -1 -3 
8214 6 0.605479 0.496542 0.0149716 4 -5 -3 
5258 5 0.748709 0.512952 0.0420579 -7 5 -2 
6072 6 0.834114 0.499195 0.0236008 1 -2 5 
5806 6 0.375588 0.507973 0.0639147 3 2 -6 
8044 6 0.701268 0.482443 0.0166115 0 -2 2 
5703 6 0.752128 0.503036 0.0489324 -4 -2 2 
8102 5 0.213065 0.515853 0.00629788 3 6 -1 
8379 6 0.202878 0.534368 0.0200508 0 2 -6 
6621 5 0.2435 0.558039 0.0617614 6 0 -4 
6686 5 0.63863 0.553939 0.0420736 -5 0 -2 
7906 5 0.655588 0.52447 0.0275189 1 4 -3 
8673 5 0.75971 0.585891 0.00930351 1 4 -5 
8684 5 0.535161 0.626158 0.0289661 -1 -4 -4 
7318 6 0.662608 0.591723 0.98486 2 4 5 
6477 5 0.242539 0.636105 0.0432616 -3 -5 0 
7917 6 0.943136 0.660234 0.0302522 -3 5 -5 
8055 6 0.203416 0.672161 0.0568666 1 -2 -1 
5138 6 0.202025 0.703673 0.042019 4 1 -2 
6116 6 0.06302 0.711172 0.0451206 -1 -2 -1 
8067 6 0.4845 0.764901 0.0195015 -1 -3 -1 
8104 6 0.840751 0.764867 0.0350059 -5 1 -3 
6658 5 0.521479 0.733482 0.00861947 -4 -3 7 
6808 6 0.330537 0.821469 0.0415223 3 2 0 
8716 6 0.64067 0.788736 0.0722638 4 -3 5 
8166 5 0.426552 0.797809 0.0469205 0 3 0 
7389 5 0.561919 0.859149 0.0321994 -1 1 2 
8083 5 0.857318 0.833477 0.0645293 -2 -2 -3 
6911 6 0.298779 0.89364 0.0343948 -5 4 1 
7565 6 0.312473 0.855097 0.987139 1 1 5 
7545 6 0.360759 0.88057 0.0365595 0 -3 3 
6617 6 0.688169 0.848014 0.0316649 0 -2 3 
8628 6 0.712247 0.84807 0.0153458 0 -1 -1 
6812 6 0.964156 0.860549 0.0476087 -2 -2 -3 
8776 6 0.0266162 0.914141 0.0337798 4 6 -4 
7940 6 0.958236 0.876519 0.0601591 -3 0 0 
8763 6 0.0124229 0.922767 0.0188412 0 2 -4 
6338 5 0.0331025 0.884788 0.0701974 -5 -1 5 
7722 6 0.402003 0.919706 0.00521932 2 -1 -1 
6047 6 0.734744 0.931341 0.0373434 -2 0 1 
7751 6 0.80509 0.87469 0.0354971 3 -1 3 
8536 6 0.206223 0.947036 0.0739606 -3 3 -7 
6216 5 0.576135 0.956834 0.0719346 -1 -6 0 
5780 6 0.769246 0.92373 0.0660666 2 2 0 
6409 6 0.522884 0.961153 0.0307711 2 -6 5 
6549 6 0.830876 0.976252 0.0518679 3 -2 1 
5085 6 0.0963398 0.987443 0.0536933 -1 -3 2 
6141 6 0.194281 0.988849 0.0150648 -1 0 2 
5391 6 0.56244 0.00831696 0.0230086 1 1 -4 
5086 5 0.859984 0.974395 0.041419 0 -3 0 
8356 5 0.234215 0.992153 0.05595 1 2 -2 
8388 6 0.514752 0.0179935 0.0570759 3 -2 1 
6483 6 0.803078 0.0361589 0.0916959 -2 3 2 
5330 5 0.327955 0.0498142 0.0524243 0 7 4 
5339 6 0.439381 0.0917327 0.0432478 1 1 -6 
8199 5 0.170184 0.103712 0.045862 -2 1 0 
7380 5 0.24381 0.090403 0.0389718 -5 0 3 
5875 5 0.23314 0.108963 0.0629854 -1 -1 2 
8938 6 0.920144 0.135356 0.0441308 4 6 -4 
5792 5 0.0233255 0.156036 0.0501006 -1 -5 2 
8839 6 0.248824 0.124996 0.0557052 4 1 -1 
6960 5 0.300244 0.148409 0.10377 5 1 -1 
5337 5 0.579144 0.138603 0.0394509 3 0 0 
7346 5 0.692279 0.211132 0.0351158 4 -6 1 
8135 5 0.0171084 0.18826 0.0508787 0 -5 -1 
6263 6 0.0587813 0.233973 0.0902967 -1 3 5 
5524 6 0.291384 0.237743 0.0597996 6 0 -5 
7148 5 0.501208 0.258241 0.0422081 3 -1 4 
8248 6 0.577712 0.257238 0.0761456 4 6 -2 
6705 5 0.0432739 0.274252 0.0635088 3 1 -1 
6312 5 0.0994088 0.307852 0.0632241 2 -2 4 
7828 5 0.215564 0.231836 0.0638006 1 -2 -1 
6819 5 0.391047 0.294532 0.0618734 -2 0 -2 
7529 6 0.681389 0.28378 0.0252648 4 2 -3 
8200 6 0.971524 0.267912 0.0361056 3 2 4 
8901 6 0.432425 0.341219 0.0895539 -3 3 2 
7055 5 0.641098 0.344169 0.0667566 1 2 2 
7051 5 0.269705 0.364629 0.0862247 6 1 2 
6062 6 0.325141 0.316303 0.108746 6 1 -1 
8987 5 0.363268 0.355686 0.0519502 0 1 4 
7108 5 0.0662684 0.356464 0.0615511 -2 2 9 
7798 5 0.28264 0.385767 0.0770867 3 5 -3 
6789 5 0.501705 0.412721 0.0682182 0 2 -2 
8377 6 0.684428 0.391425 0.0445382 -2 1 -1 
6881 5 0.19939 0.421877 0.0656179 1 2 -1 
5401 5 0.609577 0.412872 0.0575218 0 -5 -1 
8050 5 0.099108 0.439354 0.0488569 0 0 -2 
6147 6 0.762646 0.469315 0.0933349 -10 -2 1 
8302 5 0.85754 0.430611 0.0388554 -3 -1 9 
6283 6 0.927972 0.459947 0.0635775 2 -3 1 
5549 6 0.941897 0.463544 0.0530799 0 -1 5 
8669 6 0.308229 0.523593 0.0637921 -5 -1 -1 
6578 5 0.345206 0.516517 0.0742701 3 0 2 
7235 5 0.807812 0.535408 0.0938275 -4 1 -1 
8215 6 0.832872 0.551539 0.0455803 0 1 -1 
7508 6 0.422602 0.596442 0.0509258 -1 -2 5 
6419 5 0.0113437 0.574057 0.0862401 -2 0 4 
8116 5 0.991401 0.612446 0.125734 -2 0 0 
8400 6 0.419093 0.635452 0.0775328 0 0 -1 
8100 5 0.0206595 0.669823 0.0778512 3 0 2 
5295 6 0.607916 0.689158 0.110364 -3 1 8 
7966 6 0.66413 0.657955 0.0710492 0 4 -1 
8052 6 0.935338 0.669284 0.073474 -4 -2 1 
8367 6 0.9838 0.702085 0.0733674 -1 1 1 
6415 5 0.374142 0.693857 0.0737685 1 1 0 
6024 6 0.865132 0.685978 0.0767772 5 0 -1 
5311 5 0.160005 0.708081 0.0819889 3 0 0 
6724 6 0.148907 0.691664 0.0675386 4 -1 -3 
7164 5 0.557274 0.722698 0.0454843 0 4 -2 
8994 6 0.537509 0.717192 0.0584026 1 -2 2 
7869 6 0.61526 0.738256 0.0708119 5 1 1 
5158 5 0.640047 0.752498 0.0354417 4 -3 -4 
7308 6 0.0758435 0.766798 0.0322007 2 -1 3 
6838 5 0.148884 0.79888 0.0677413 3 -1 6 
7879 5 0.703965 0.80314 0.0485576 0 -1 -1 
8888 6 0.787164 0.8225 0.0556979 -9 4 -4 
5600 5 0.982004 0.861902 0.0515415 -1 -6 2 
5822 5 0.697165 0.856865 0.0489935 -2 -1 -4 
5572 6 0.0342257 0.898667 0.0428187 -3 4 3 
8699 6 0.437795 0.845954 0.0529105 -4 -1 3 
7894 6 0.869122 0.921477 0.077774 -3 0 -1 
5737 6 0.703452 0.955935 0.0658568 0 2 1 
5845 5 0.871849 0.969013 0.0458549 1 -2 0 
5760 5 0.0773331 0.950615 0.0630407 1 0 3 
6750 6 0.529436 0.950692 0.0550789 -2 5 -2 
8923 5 0.0790796 0.989389 0.117018 -1 4 2 
6204 5 0.424204 0.0194947 0.089741 1 2 1 
7112 5 0.0667614 0.058828 0.0761142 1 -1 5 
8671 5 0.403148 0.0633388 0.131986 -1 -1 -3 
6023 5 0.653599 0.0701724 0.0420017 -4 -1 5 
7841 5 0.0890377 0.0644513 0.0823064 4 3 -6 
5910 6 0.679041 0.0778448 0.073459 -3 1 0 
8648 6 0.914475 0.102786 0.0590336 -1 -1 1 
5717 5 0.775228 0.154029 0.0888879 3 0 -5 
5290 5 0.914843 0.138396 0.0729802 0 1 -4 
5211 5 0.452703 0.175215 0.0586002 8 0 -4 
5506 5 0.456661 0.148031 0.0938514 1 2 -3 
6884 5 0.816597 0.162267 0.0893411 2 2 0 
8688 6 0.469368 0.217436 0.0744665 3 5 -6 
5746 6 0.59283 0.1958 0.0558113 -1 3 5 
6633 5 0.601756 0.218365 0.120187 -5 0 -2 
5148 6 0.970762 0.158023 0.0896086 -1 -2 2 
8697 6 0.0553513 0.223514 0.0854301 0 4 4 
5146 6 0.363352 0.219577 0.0856421 3 0 -3 
7029 5 0.713321 0.228727 0.0901578 0 -1 4 
8557 5 0.958118 0.224168 0.088831 3 1 1 
5505 6 0.149721 0.249491 0.0529583 -3 -2 -2 
6364 6 0.32257 0.24801 0.0582944 0 -1 4 
6630 5 0.32891 0.211762 0.0424243 -2 0 1 
7973 5 0.687109 0.2101 0.0892226 -3 6 1 
6516 5 0.113893 0.266725 0.100985 3 0 -1 
6054 5 0.721609 0.298869 0.0647194 -4 1 3 
6833 5 0.544802 0.2533 0.0980254 -2 0 4 
7549 6 0.687834 0.286286 0.0514892 -1 3 5 
6311 6 0.118961 0.326904 0.0641935 0 -2 -1 
7286 5 0.318231 0.256682 0.0922986 0 -3 0 
5119 6 0.162391 0.354267 0.0680404 -5 2 3 
7430 6 0.713321 0.346471 0.0990351 -3 7 -1 
5209 5 0.143319 0.402832 0.0479651 0 0 2 
5096 6 -0.00165991 0.399959 0.0665993 1 1 -1 
5285 6 0.593584 0.434139 0.062135 -4 1 0 
5679 5 0.0567404 0.422642 0.0787887 4 4 -3 
5515 6 0.352807 0.445571 0.0819954 -1 -1 1 
7313 5 0.377003 0.439637 0.0485473 6 -2 3 
8456 6 0.1182 0.443268 0.0813234 1 -1 0 
8405 5 0.0817955 0.485708 0.0851758 5 3 2 
8063 6 0.784985 0.476339 0.0649365 1 0 0 
6815 6 0.796773 0.487438 0.0950605 5 -4 2 
6426 6 0.232236 0.542067 0.104789 0 0 -4 
8465 6 0.979132 0.52718 0.0529964 0 -2 0 
8873 5 0.51189 0.517669 0.0730693 0 2 -3 
5407 5 0.891734 0.520506 0.0637382 -1 -8 4 
6160 6 0.182659 0.576726 0.0790119 3 4 -2 
8258 5 0.368441 0.634798 0.0889451 -1 -1 6 
8272 6 0.427954 0.640331 0.0747373 3 -2 0 
7487 5 0.156141 0.636998 0.081651 -4 0 1 
7739 6 0.493179 0.643433 0.0696425 0 3 0 
6036 5 0.463549 0.639132 0.098376 -2 0 -3 
5347 5 0.926861 0.642541 0.090372 -1 2 -2 
5754 5 0.911164 0.651829 0.0759284 3 -1 -6 
5654 5 0.352257 0.713912 0.0508535 -2 1 2 
6735 6 0.529512 0.69808 0.0511351 -3 -6 -4 
7541 6 0.938434 0.695936 0.092273 -1 2 0 
5031 5 0.56036 0.737585 0.060894 -7 2 3 
5092 5 0.715227 0.764155 0.0473584 0 -4 -2 
6970 5 0.688752 0.745979 0.0761458 -1 0 0 
7857 6 0.728973 0.717884 0.0993807 0 -1 1 
7187 5 0.736196 0.713039 0.0617641 0 -1 0 
7649 5 0.454934 0.774422 0.0896809 -3 -1 -1 
5847 5 0.930787 0.779133 0.0796541 0 -2 0 
7275 6 0.10012 0.760238 0.0809527 -4 1 -1 
7680 5 0.466687 0.772508 0.0884545 1 5 -5 
6917 6 0.487119 0.777344 0.0766474 -1 0 3 
5253 6 0.500321 0.789416 0.108872 1 3 -1 
7118 5 0.187741 0.797624 0.0618028 -2 -1 0 
6774 5 0.804979 0.778038 0.0602049 -1 4 -2 
5434 5 0.0577753 0.835925 0.0871358 4 -1 3 
7490 5 0.68665 0.814348 0.0725797 -3 1 2 
5226 5 0.371597 0.896067 0.101672 1 0 4 
5414 6 0.501199 0.854127 0.0745005 4 4 2 
7775 5 0.636833 0.84696 0.0337713 4 -2 -1 
8583 6 0.768227 0.940743 0.0660913 -2 1 4 
7499 6 0.46509 0.999866 0.111402 4 -3 2 
7427 6 0.621734 0.016924 0.0763527 0 0 9 
5170 5 0.439667 0.0391971 0.0957706 -3 7 6 
5370 6 0.495836 0.00114304 0.148703 -1 2 3 
6293 5 0.504264 0.0216422 0.0935048 5 -1 -1 
7080 5 0.188211 0.0533533 0.0948725 -6 2 0 
5764 5 0.242527 0.0139563 0.0336121 -4 5 4 
5338 6 0.825214 0.0244743 0.105018 1 -3 1 
8848 6 0.465725 0.0632568 0.100983 -4 2 -3 
8094 5 0.778047 0.106163 0.101285 -2 -1 5 
5167 6 0.916791 0.116 0.155827 -4 1 0 
7610 6 0.260046 0.112233 0.091953 5 3 -2 
7837 6 0.913978 0.111824 0.0685471 -1 2 4 
8539 5 0.48191 0.173942 0.06507 2 2 2 
6625 5 0.729967 0.135507 0.10677 6 -2 -3 
8170 5 0.782282 0.112644 0.119171 0 -1 1 
5728 5 0.956119 0.147577 0.0677845 -1 -1 3 
8267 5 0.00223576 0.195011 0.119705 0 1 1 
7830 6 0.0668453 0.19413 0.0992671 -2 4 -4 
7776 5 0.0856063 0.209319 0.0904178 3 2 0 
6217 5 0.556003 0.209697 0.120941 2 2 -1 
8209 6 0.0459321 0.174787 0.112811 -4 -3 3 
6534 6 0.0741796 0.238473 0.107893 -4 3 0 
7598 5 0.266558 0.202531 0.0948394 -1 -3 -2 
7586 5 0.261709 0.225996 0.0939232 1 1 2 
7484 5 0.332253 0.221828 0.0854139 -2 4 -2 
5003 5 0.00701625 0.244776 0.103612 4 5 -3 
6045 6 0.20692 0.254862 0.116234 1 2 -2 
6324 6 0.159352 0.284699 0.108582 2 1 2 
5431 5 0.249036 0.275357 0.0958054 2 -3 -3 
7963 6 0.46217 0.284991 0.0585688 0 -1 0 
6367 5 0.0817821 0.34397 0.104258 -2 1 -3 
7562 6 0.370734 0.30776 0.130178 -2 -1 8 
7686 5 0.321463 0.329305 0.0944013 -4 -2 1 
7858 6 0.614588 0.361975 0.0869676 -5 -5 2 
8835 5 0.776378 0.35538 0.124334 -4 0 1 
5609 6 0.212052 0.35361 0.120229 1 0 -1 
6866 6 0.255977 0.349954 0.0823053 -1 2 -3 
6762 6 0.586283 0.382313 0.0892114 2 1 4 
6943 6 0.198024 0.427278 0.0849157 -1 0 5 
8039 5 0.542405 0.450582 0.0620386 -4 0 1 
7661 5 0.731376 0.431444 0.0994532 2 -4 0 
7076 5 0.883433 0.443111 0.113072 1 -2 2 
7113 6 0.205621 0.50217 0.130336 -7 -5 3 
7322 6 0.339884 0.478035 0.124592 2 3 1 
7438 5 0.456625 0.517417 0.0791958 2 -3 3 
7033 5 0.331525 0.504618 0.08073 -1 -7 -1 
5163 5 0.875586 0.552306 0.111025 1 0 1 
6816 5 0.0817432 0.577836 0.063114 0 -6 -2 
5114 5 0.405831 0.487218 0.10095 -5 -3 -3 
5944 5 0.0183738 0.58754 0.107583 0 1 0 
5306 6 0.201958 0.595547 0.111776 2 1 4 
7056 6 0.331111 0.577959 0.10788 2 -6 -1 
7370 5 0.163794 0.589478 0.0868583 -3 7 2 
7871 5 0.206472 0.625538 0.131962 0 -5 1 
5325 6 0.367655 0.607874 0.128511 -4 0 -3 
6163 6 0.645624 0.669098 0.104067 -1 -1 0 
7934 6 0.699642 0.668993 0.10903 -4 1 3 
6229 5 0.926951 0.710917 0.0762919 -3 0 4 
6700 5 0.485396 0.653176 0.111825 -2 0 5 
7069 5 0.135871 0.700116 0.12588 -1 0 -5 
8917 5 0.15364 0.716108 0.0983512 2 -5 -2 
8420 5 0.282067 0.707589 0.0801514 -2 -1 0 
6032 6 0.27663 0.740972 0.0969149 -1 0 2 
7920 5 0.547989 0.728959 0.0849146 1 -1 0 
5521 5 0.907052 0.786419 0.113407 -4 -2 4 
5093 5 0.219312 0.845346 0.0329995 1 -2 -3 
6016 5 0.336278 0.823558 0.0784242 0 -4 -3 
6472 5 0.364922 0.849157 0.0807717 -4 0 3 
7406 5 0.182788 0.847073 0.112547 1 -4 1 
7883 5 0.305955 0.85708 0.109048 -1 -2 0 
8898 5 0.444952 0.868737 0.0923237 0 4 0 
5028 6 0.492635 0.919737 0.108558 1 6 2 
8999 5 0.0652184 0.89714 0.102068 -2 -5 0 
7144 5 0.815506 0.921522 0.088195 4 0 -1 
5774 6 0.0982601 0.918086 0.122528 1 4 3 
6571 5 0.204076 0.924656 0.0895267 1 -2 0 
5815 6 0.0230598 0.932453 0.117676 2 0 0 
8386 6 0.731763 0.937975 0.110426 -4 -9 0 
6997 6 0.301669 0.964049 0.088035 0 3 -2 
8343 5 0.38183 0.964865 0.110162 3 -1 0 
8631 6 0.878132 0.991205 0.0889745 3 -1 4 
8935 6 0.523183 0.0459345 0.121525 1 2 6 
7188 5 0.583222 0.0485434 0.137451 2 -2 2 
8755 5 0.664145 0.00869862 0.0983166 -1 0 1 
5834 5 0.0810434 0.0153431 0.108767 4 -2 -5 
7185 6 0.24188 0.0500455 0.14945 -1 -3 -3 
7063 6 0.810163 0.0371743 0.136219 0 -4 0 
8036 6 0.244891 0.095454 0.0872255 -2 5 1 
7519 5 0.380659 0.0755379 0.128731 4 3 4 
8538 5 0.406673 0.105471 0.090707 0 -2 -4 
7205 6 0.332202 0.181073 0.105774 -5 1 2 
7510 5 0.558132 0.134956 0.134642 -3 -2 0 
5937 6 0.674287 0.121324 0.119381 -4 -1 0 
6286 6 0.677524 0.170025 0.153554 -1 1 5 
5308 6 0.305793 0.153982 0.162729 -1 5 -1 
8921 5 0.317155 0.156166 0.153982 0 -1 1 
8593 5 0.863052 0.205147 0.130853 -2 -2 -1 
5826 6 0.165465 0.218788 0.0983734 2 0 5 
7158 6 0.633181 0.268674 0.146764 -4 4 3 
8467 5 0.013842 0.228345 0.0995126 1 -3 1 
5712 5 0.0315536 0.256658 0.0964911 3 4 -4 
6767 5 0.164246 0.237168 0.120456 3 0 6 
5564 5 0.890387 0.25212 0.089432 -1 0 -1 
5615 6 0.873684 0.223335 0.100452 -3 -1 -3 
6228 5 0.643097 0.250139 0.147056 3 0 2 
6903 5 0.746151 0.296273 0.129591 -1 -2 1 
6289 5 0.967638 0.329434 0.124408 -1 3 0 
6323 5 0.229938 0.321491 0.15209 -1 -1 0 
8868 5 0.113387 0.302754 0.172113 -3 2 -4 
7332 5 0.291059 0.298416 0.128915 4 -3 -4 
7048 6 0.730792 0.303951 0.0863692 -1 0 5 
7601 6 0.923805 0.312137 0.125657 2 -1 6 
7151 6 0.437148 0.307639 0.128896 2 -1 4 
8435 6 0.213339 0.348225 0.101915 -4 3 4 
7907 5 0.55763 0.352745 0.141658 0 3 -2 
6831 5 0.118164 0.343759 0.110766 2 -1 0 
5994 5 0.0812822 0.33444 0.128749 3 5 2 
5394 6 0.692749 0.366624 0.111588 -3 -1 -3 
8942 6 0.189331 0.412357 0.128287 1 3 2 
6962 6 0.36179 0.465721 0.117025 0 -2 2 
7358 6 0.796153 0.414628 0.124586 -3 4 -2 
7336 5 0.853839 0.42522 0.105021 0 1 -1 
7298 5 0.432655 0.499065 0.121682 2 2 1 
8117 5 0.87148 0.460084 0.077148 -3 3 6 
5121 6 0.804812 0.514769 0.0730718 -1 -1 6 
8106 6 0.090026 0.542222 0.104864 -2 -7 -1 
5371 6 0.326711 0.555904 0.0926077 -1 3 5 
8096 6 0.413329 0.550924 0.149865 -6 1 1 
6320 5 0.463418 0.543606 0.12056 -1 -2 3 
7218 6 0.575682 0.547639 0.125894 -4 1 -3 
7911 5 0.719732 0.547854 0.128805 -1 -3 -1 
5863 5 0.336829 0.613616 0.122299 -2 -3 -2 
6242 5 0.162084 0.610136 0.154055 2 1 1 
5781 6 0.399303 0.657215 0.133725 -1 -2 -4 
7648 6 0.649238 0.634616 0.113649 -6 7 2 
6219 6 0.679617 0.670486 0.129552 5 -1 3 
8758 6 0.926786 0.676763 0.0885913 3 -1 -1 
6857 5 0.110187 0.684386 0.151366 3 2 2 
6855 6 0.298521 0.672179 0.129065 0 -1 -1 
5468 6 0.485925 0.663214 0.115159 -3 0 -3 
7626 6 0.730948 0.645981 0.0882239 4 0 6 
8458 6 0.788444 0.672139 0.148974 1 0 0 
5589 6 0.407833 0.725895 0.144201 0 1 3 
6848 6 0.526434 0.743527 0.144122 0 -3 4 
5995 6 0.661055 0.69136 0.12173 -2 8 -1 
7495 5 0.41296 0.735982 0.124502 4 -2 2 
5272 6 0.937858 0.710926 0.130499 -3 -2 -2 
6314 5 0.571312 0.740747 0.117822 -4 0 -1 
5689 5 0.814313 0.75974 0.120394 -2 5 -1 
8441 6 0.989076 0.809972 0.120848 -2 2 0 
7023 6 0.160392 0.772319 0.154036 4 -3 -4 
7201 6 0.262945 0.805297 0.106057 -5 -1 0 
8254 6 0.31327 0.817742 0.122562 0 5 2 
8825 6 0.637864 0.846768 0.131223 -4 3 2 
5983 6 0.755629 0.792354 0.129766 -3 1 -2 
6175 6 0.807907 0.797953 0.120675 -1 3 2 
6109 6 0.301641 0.878752 0.161275 -3 -2 -2 
8957 6 0.0132017 0.858502 0.15407 0 1 1 
8115 5 0.126682 0.871179 0.0596094 -3 0 -1 
5779 6 0.190246 0.86119 0.0985849 -2 2 0 
5747 5 0.0519119 0.887802 0.0939138 -2 -7 -4 
5101 5 0.766404 0.926667 0.103746 0 -1 -2 
8134 5 0.862448 0.894019 0.120321 -5 5 1 
5050 6 0.982109 0.912587 0.11869 -1 -3 -3 
8029 6 0.0739057 0.912825 0.11508 -1 3 2 
7896 6 0.227993 0.952869 0.137279 -1 -1 2 
7885 6 0.266104 0.91592 0.0911624 3 0 -4 
5037 6 0.51222 0.95132 0.107197 2 1 3 
7868 6 0.587468 0.937658 0.0924588 1 2 1 
5416 5 0.0187146 0.968809 0.0787363 3 -2 -1 
7589 6 0.496409 0.964081 0.119064 0 2 -1 
5962 6 0.870607 0.95127 0.0902744 1 -1 0 
8806 6 0.847791 0.0099577 0.135618 1 2 -2 
5238 6 0.833712 0.957994 0.131349 -3 2 -2 
6769 5 0.676232 0.0234707 0.131653 -2 2 3 
8205 6 0.885184 0.0725356 0.155015 -2 3 -4 
6704 5 0.639048 0.139046 0.171604 -1 -2 7 
7501 6 0.950878 0.111012 0.11316 -1 -6 1 
7520 6 0.121373 0.0851047 0.154935 -4 -2 -1 
8101 6 0.501037 0.0738052 0.141371 2 1 3 
5496 6 0.546245 0.070047 0.152016 2 -1 0 
5412 5 0.933079 0.117373 0.150825 2 -1 -1 
7137 5 0.321258 0.163795 0.175089 4 -1 1 
6554 6 0.337929 0.13675 0.165292 -1 5 0 
6536 6 0.314872 0.141877 0.146965 1 1 -3 
5212 5 0.0301002 0.204263 0.105337 -1 -2 3 
7093 5 0.0300431 0.211602 0.131035 0 7 5 
6539 6 0.469273 0.190961 0.15183 3 2 0 
7927 5 0.723823 0.148655 0.166655 3 9 -2 
6227 6 0.910166 0.194545 0.13103 -2 -3 -2 
7849 6 0.961567 0.182271 0.169874 2 1 2 
7748 5 0.790056 0.227452 0.0826682 2 -1 2 
7110 6 0.838066 0.269996 0.142113 0 -2 0 
7282 5 0.0518905 0.223874 0.201402 -3 2 -2 
6854 6 0.0884429 0.26893 0.117101 -2 -4 2 
8542 5 0.291879 0.257679 0.138419 -4 0 4 
7387 6 0.0024495 0.287681 0.112661 0 2 1 
8541 6 0.580521 0.279199 0.139885 1 1 -2 
7546 6 0.25846 0.34094 0.130629 -1 0 1 
7665 6 0.351844 0.326205 0.119433 3 6 -2 
5854 6 0.814116 0.299306 0.139623 0 2 -3 
8394 5 0.523054 0.345088 0.146551 1 0 2 
5360 5 0.861484 0.355036 0.150299 2 -2 -4 
8795 5 0.862456 0.324828 0.16577 -6 0 1 
6720 6 0.229271 0.357612 0.122554 1 -1 2 
5049 6 0.708156 0.425433 0.147429 0 -1 4 
5108 6 0.672756 0.438107 0.115122 1 -10 3 
5275 5 0.57578 0.48017 0.151715 2 -3 1 
8418 6 0.996678 0.536064 0.14819 0 1 -2 
6379 5 0.983873 0.511935 0.129728 0 1 -1 
7327 6 0.0234073 0.532295 0.166993 -7 -1 1 
7213 5 0.218632 0.53048 0.143151 3 -1 -6 
8779 6 0.86505 0.567815 0.117632 -1 -5 2 
8460 6 0.423066 0.569516 0.151733 5 2 3 
7176 5 0.53823 0.575303 0.135638 1 0 1 
7191 5 0.440529 0.635959 0.0981423 1 -4 -1 
8606 5 0.458261 0.613084 0.161977 2 -2 -1 
8009 5 0.866877 0.612886 0.141778 3 -5 2 
6459 5 0.444447 0.625119 0.144523 -1 3 3 
7342 6 0.897112 0.622658 0.175068 -5 2 0 
7417 6 0.0816288 0.625884 0.160916 0 1 0 
7979 6 0.308674 0.624538 0.18446 1 -6 4 
5165 5 0.184712 0.682217 0.161821 0 1 0 
7043 6 0.690738 0.692621 0.146769 -3 -3 -6 
7009 6 0.729651 0.70654 0.153808 2 -1 -1 
7453 5 0.810497 0.720813 0.178329 3 4 4 
5465 6 0.0595974 0.714865 0.126685 -3 2 4 
7156 5 0.984815 0.690794 0.119305 2 0 6 
5088 5 0.96631 0.748857 0.140292 -1 -1 2 
5460 5 0.278838 0.771247 0.143801 -2 2 -1 
7374 5 0.132074 0.785787 0.171136 -1 1 1 
6847 6 0.483448 0.737374 0.144782 0 -1 -3 
6081 5 0.694409 0.762404 0.1356 0 -2 2 
6358 5 0.506733 0.803523 0.140861 1 0 -2 
6502 6 0.741015 0.789118 0.163796 -2 -5 -3 
6077 5 0.339974 0.783794 0.165852 -1 -1 0 
5508 5 0.336228 0.816885 0.17962 0 1 3 
8348 5 0.345325 0.8212 0.124622 1 2 5 
6445 6 0.602549 0.834112 0.120762 1 3 2 
5390 5 0.468151 0.879967 0.133538 1 -2 -4 
5928 6 0.693274 0.873976 0.157904 1 -2 5 
8872 5 0.0678379 0.940856 0.115818 -2 0 0 
7539 6 0.224317 0.920507 0.156656 -1 -2 1 
7028 6 0.672099 0.901936 0.159254 -1 8 4 
6587 5 0.783028 0.939957 0.168805 1 2 -1 
5466 5 0.931424 0.912783 0.131963 1 -2 -1 
8757 6 0.0779303 0.978739 0.158576 1 -2 -4 
6840 5 0.183571 0.971332 0.100858 2 3 2 
6093 6 0.228989 0.973836 0.196591 -1 1 -2 
6632 5 0.277072 0.964535 0.145239 -2 0 0 
5323 5 0.165477 0.0123821 0.172676 0 2 -6 
8282 6 0.233369 0.995324 0.165493 -2 -2 -1 
5016 6 0.54204 0.00481719 0.213732 -2 -1 -3 
6766 5 0.558146 0.997362 0.150746 2 0 -1 
6411 5 0.437158 0.0492559 0.19808 5 -1 -2 
8229 5 0.661674 0.0484375 0.14299 0 3 -2 
7702 6 0.93469 0.0678476 0.224162 1 2 6 
6476 5 0.929499 0.0594988 0.131722 -1 1 2 
6158 6 0.0577574 0.0544495 0.169967 1 4 2 
5708 6 0.700457 0.0766793 0.21062 1 -6 0 
7121 5 0.123681 0.0597798 0.143721 -2 1 2 
7208 6 0.695682 0.0815356 0.18208 2 3 -2 
7874 5 0.567049 0.184304 0.163903 3 -6 6 
6478 5 0.474145 0.175508 0.221087 3 2 1 
7456 5 0.591011 0.162216 0.162083 4 0 -2 
5332 6 0.626595 0.148988 0.168131 -2 -2 -5 
6593 5 0.314832 0.184013 0.184981 -6 1 0 
5387 6 0.43396 0.184407 0.201574 3 3 -1 
7864 5 0.197799 0.228943 0.212962 0 -1 0 
6197 5 0.315295 0.209289 0.16157 1 1 0 
8159 6 0.45963 0.214599 0.190191 8 2 4 
5229 6 0.499877 0.197666 0.165726 -1 2 3 
6788 5 0.147484 0.25993 0.147892 2 5 -2 
5669 6 0.60164 0.274385 0.126892 1 0 -2 
6259 5 0.245347 0.272329 0.153596 2 5 1 
8362 6 0.470919 0.283792 0.159588 -5 1 4 
6973 6 0.825585 0.239269 0.150924 -2 -2 0 
8968 5 0.820705 0.280566 0.176108 -2 2 2 
7138 6 0.0742117 0.314574 0.18055 1 1 2 
6318 5 0.361956 0.35419 0.190875 0 -6 -4 
8728 6 0.990334 0.279475 0.173993 -3 -4 -4 
6212 5 0.0968168 0.350328 0.185036 -3 -1 -1 
6611 5 0.190917 0.347179 0.168393 -4 -1 2 
7643 6 0.303865 0.325444 0.161937 2 2 -2 
8477 5 0.317244 0.354872 0.172728 1 0 -2 
8611 5 0.356025 0.279728 0.176865 -6 2 1 
8807 6 0.0634552 0.371101 0.206956 -2 2 3 
8452 5 0.0556878 0.393533 0.196281 2 2 -1 
8041 5 0.229718 0.400825 0.176657 -2 -4 1 
5240 6 0.430946 0.410392 0.148602 -1 -2 3 
7881 6 0.423676 0.402303 0.151407 4 2 -2 
6065 6 0.661163 0.396816 0.16476 0 1 -6 
6573 5 0.159263 0.447805 0.172669 -1 -1 1 
7249 5 0.507785 0.472202 0.150936 -1 0 2 
8068 5 0.730166 0.446228 0.189664 2 3 -2 
6771 6 0.24726 0.424932 0.188005 -3 -2 5 
7711 6 0.45844 0.463252 0.179165 0 -2 0 
6422 6 0.823741 0.475779 0.202052 -4 -4 5 
6308 6 0.253086 0.52731 0.176427 0 0 -1 
5526 6 0.342782 0.519664 0.174972 1 5 -2 
5517 5 0.636629 0.533708 0.179099 0 -1 -1 
5762 6 0.1743 0.53656 0.186103 0 -1 2 
6512 5 0.234095 0.529803 0.170418 1 0 0 
5145 6 0.471878 0.60541 0.181208 1 3 -2 
7008 6 0.514931 0.595575 0.136573 2 4 -3 
7420 6 0.0289397 0.609211 0.13974 1 5 2 
8081 5 0.0456531 0.584112 0.140276 0 1 3 
6416 6 0.515631 0.615774 0.195348 -1 1 2 
5859 6 0.295445 0.670149 0.198131 5 -2 -2 
6982 5 0.0149235 0.73135 0.17894 -2 0 0 
8756 5 0.252994 0.719545 0.207254 -5 -3 1 
5283 5 0.441705 0.681364 0.191587 -2 -4 6 
5247 6 0.541077 0.683192 0.167656 -2 3 -3 
5649 6 0.371285 0.692659 0.160516 -3 -1 3 
8741 5 0.571182 0.752949 0.15498 0 0 4 
5270 6 0.0744095 0.755364 0.178795 -1 -4 4 
7842 6 0.778511 0.712223 0.190097 -2 -1 -1 
7774 6 0.986569 0.709441 0.170633 -1 3 -8 
6267 5 0.389404 0.796128 0.154437 -2 4 1 
7392 5 0.586302 0.761487 0.151923 -2 -1 3 
6386 6 0.678786 0.766658 0.153813 1 2 4 
6275 6 0.780397 0.816789 0.166658 -1 -4 2 
5591 6 0.889974 0.770371 0.203335 0 -2 -3 
8614 6 0.259833 0.796261 0.182788 4 4 6 
6895 6 0.801703 0.815249 0.154472 -5 0 -1 
7709 6 0.972724 0.802412 0.160032 -1 0 1 
7629 5 0.443181 0.83946 0.186523 2 -6 -2 
7791 6 0.110899 0.903874 0.193414 -3 -3 1 
6269 5 0.163916 0.93221 0.168285 3 -2 2 
8837 5 0.236636 0.885523 0.163519 -1 -9 -1 
8128 5 0.471917 0.949115 0.164489 5 0 3 
8499 6 0.77483 0.980434 0.14535 0 -1 0 
5091 5 0.872197 0.955271 0.196978 -1 6 3 
7738 5 0.109612 0.0100934 0.169872 0 -1 -2 
8143 6 0.320768 -0.00148863 0.183396 -1 -1 1 
6998 5 0.871532 0.0339791 0.209356 4 2 1 
8674 6 0.473256 0.997557 0.200813 0 6 2 
7544 6 0.968955 0.0670653 0.167422 0 0 2 
6800 5 0.01549 0.0662789 0.182393 -2 3 0 
8657 5 0.550495 0.0981288 0.191475 2 -2 -2 
6754 5 0.13948 0.091237 0.179351 -1 -2 -1 
7011 6 0.102596 0.133613 0.19082 1 1 -1 
5917 5 0.326906 0.166133 0.199744 -4 3 3 
6361 5 0.415232 0.143127 0.237531 -3 0 0 
5139 6 0.580219 0.185047 0.161513 3 -1 -2 
7309 5 0.165581 0.170899 0.180645 -2 2 -5 
6958 5 0.515074 0.184246 0.186348 2 3 -1 
8227 5 0.00884441 0.143363 0.220536 2 1 2 
8182 5 0.201292 0.218773 0.200616 1 1 -2 
6538 6 0.517453 0.234364 0.213068 1 1 0 
8556 6 0.797417 0.260039 0.203489 3 -2 -2 
8027 5 0.493674 0.270768 0.176038 2 0 2 
5581 5 0.699076 0.271421 0.20797 -1 2 -7 
6948 5 0.938558 0.215047 0.187528 -2 -2 -3 
7786 6 0.101936 0.284305 0.191334 -1 0 4 
5395 5 0.396606 0.264411 0.199112 2 0 2 
6427 6 0.102772 0.290727 0.194164 3 3 2 
6340 6 0.503886 0.31666 0.221183 0 1 4 
5065 6 0.665246 0.290751 0.16225 7 1 -1 
5535 5 0.677133 0.28468 0.200783 -1 0 1 
6882 6 0.923774 0.23931 0.198923 5 -2 0 
6821 6 0.643369 0.299483 0.187886 0 -4 3 
6103 6 0.167612 0.371754 0.216742 5 -1 1 
8235 6 0.617355 0.370372 0.213864 -1 -5 -3 
6634 6 0.85578 0.379437 0.233647 -3 -3 5 