ITEM: TIMESTEP
20000000
ITEM: NUMBER OF ATOMS
9000
ITEM: BOX BOUNDS pp pp pp
-75 75
-75 75
-75 75
ITEM: ATOMS id type xs ys zs ix iy iz 
5052 6 0.349218 0.0652401 0.987363 -1 -1 1 
8802 5 0.809893 0.0297438 0.0471839 0 0 -1 
6864 6 0.88649 0.0594593 0.0197446 3 1 1 
5338 6 0.0449564 0.0593915 0.0329804 -1 2 3 
8813 6 0.79675 0.128137 0.00682624 4 -4 -2 
7604 6 0.326288 0.154789 0.0262774 0 -3 5 
8903 5 0.729801 0.161207 0.00161829 1 6 4 
5229 5 0.988413 0.147803 0.991994 -3 -1 1 
7519 5 0.745839 0.151583 1.00004 4 -1 -1 
6817 5 0.0779074 0.177918 0.977331 5 -4 -1 
7658 5 0.267717 0.190227 0.016105 -3 1 1 
8856 6 0.899468 0.165274 0.00136153 -5 -1 6 
7694 6 0.388667 0.248661 0.0123276 1 1 2 
6971 6 0.404131 0.192138 0.0247388 -1 0 1 
6342 5 0.998486 0.244005 0.000552711 -2 4 0 
6364 5 0.948696 0.208618 0.030892 -5 1 3 
8118 6 0.875173 0.217081 0.0123414 0 -1 3 
8238 5 0.959569 0.257715 0.975083 -3 4 -5 
7088 5 0.0921866 0.213279 0.0398063 -7 0 2 
4732 1 0.174352 0.271191 0.0221677 0 0 1 
6521 6 0.222956 0.273612 0.0196847 3 2 2 
7452 5 0.0460285 0.27809 0.0228735 2 -3 0 
4701 1 0.131669 0.300062 0.0231678 0 0 1 
4711 1 0.148465 0.297365 0.0113536 0 0 1 
4712 1 0.148698 0.29163 0.0083388 0 0 1 
4714 1 0.155289 0.291829 0.00512612 0 0 1 
4708 1 0.142396 0.29351 0.0219136 0 0 1 
4710 1 0.148213 0.292573 0.0161254 0 0 1 
4703 1 0.135306 0.296871 0.0288196 0 0 1 
4731 1 0.180056 0.271645 0.0250436 0 0 1 
4733 1 0.17862 0.274548 0.0193537 0 0 1 
4713 1 0.154169 0.29244 0.0117765 0 0 1 
6250 5 0.161548 0.284591 0.0159064 1 -1 4 
4734 1 0.175154 0.271965 0.0145482 0 0 1 
4736 1 0.176293 0.279516 0.0161156 0 0 1 
4737 1 0.170471 0.282638 0.0150625 0 0 1 
4738 1 0.172018 0.278065 0.0100054 0 0 1 
5873 5 0.178737 0.278084 0.00437491 2 0 5 
4735 1 0.170929 0.275886 0.0176987 0 0 1 
4718 1 0.166066 0.287231 0.0098418 0 0 1 
4715 1 0.158804 0.296681 0.00707498 0 0 1 
4716 1 0.162154 0.291737 0.00514792 0 0 1 
4717 1 0.165006 0.293681 0.0102315 0 0 1 
4739 1 0.175505 0.283444 0.0106616 0 0 1 
4697 1 0.137909 0.30441 0.0134596 0 0 1 
4695 1 0.136547 0.304187 0.00569803 0 0 1 
4696 1 0.135771 0.308647 0.00982124 0 0 1 
4699 1 0.135585 0.306392 0.0208882 0 0 1 
4698 1 0.132132 0.306349 0.0157342 0 0 1 
4693 1 0.137458 0.306296 0.998402 0 0 0 
4694 1 0.139292 0.309544 0.00386206 0 0 1 
4691 1 0.132 0.309276 0.993951 0 0 0 
4704 1 0.13849 0.301754 0.0261758 0 0 1 
4706 1 0.145406 0.300187 0.0240948 0 0 1 
6778 5 0.140823 0.29477 0.011508 -1 1 0 
4705 1 0.142422 0.297482 0.0293039 0 0 1 
4707 1 0.148034 0.294671 0.0249693 0 0 1 
4709 1 0.144763 0.2977 0.0178108 0 0 1 
4702 1 0.131754 0.302258 0.028913 0 0 1 
4768 1 0.154735 0.310795 0.998898 0 0 0 
6577 5 0.142801 0.306375 0.00878666 -1 3 -3 
4765 1 0.151804 0.317144 0.995135 0 0 0 
4770 1 0.158125 0.31698 1.00005 0 0 0 
4767 1 0.149371 0.313808 1.00088 0 0 0 
6475 6 0.339247 0.289842 0.989069 0 -3 -1 
6756 6 0.900548 0.323088 0.975687 -3 3 -3 
4689 1 0.13436 0.315138 0.989131 0 0 0 
4692 1 0.133732 0.311028 0.999255 0 0 0 
4690 1 0.137645 0.311902 0.99361 0 0 0 
4688 1 0.139611 0.31817 0.989481 0 0 0 
4766 1 0.148458 0.311871 0.994375 0 0 0 
4687 1 0.138344 0.316728 0.983288 0 0 0 
4769 1 0.155778 0.313261 0.00478341 0 0 1 
4772 1 0.164094 0.321359 0.00211613 0 0 1 
4771 1 0.159002 0.319884 0.00545376 0 0 1 
4774 1 0.166127 0.321207 0.00914735 0 0 1 
5612 5 0.425027 0.296344 0.00908155 -4 -1 -2 
5262 5 0.0271204 0.347957 0.0235428 3 -2 -4 
8156 5 0.175685 0.366803 0.983233 1 0 1 
8261 5 0.24668 0.34399 0.0529566 0 -3 7 
6651 5 0.575489 0.34302 0.0124226 4 1 -1 
5428 6 0.424638 0.357834 0.0330189 -3 -1 -1 
6335 6 0.825873 0.343659 0.0122116 -1 -1 3 
5218 6 0.672105 0.409222 0.00133135 2 -2 -4 
6333 6 0.924611 0.388019 0.000360147 -1 -2 -1 
6032 6 0.91432 0.473932 0.0115929 -1 -4 0 
6462 6 0.070097 0.498467 0.0332205 0 -1 5 
6657 6 0.876495 0.504186 0.0168942 -5 -3 0 
5138 6 0.258147 0.507825 0.998063 -1 -2 2 
6600 6 0.374793 0.465541 1.0015 -1 2 1 
6913 5 0.138471 0.559906 0.0062954 -5 -2 2 
5912 5 0.602428 0.540884 0.0484384 -3 -4 -2 
6912 5 0.772435 0.551395 0.00472063 0 2 -7 
5877 6 0.757102 0.522076 0.997953 -2 -1 4 
5223 6 0.785951 0.554602 0.0184806 -2 2 3 
5948 5 0.569621 0.564552 0.985734 0 -3 -1 
6121 6 0.972645 0.57228 0.00630504 -3 5 1 
7554 5 0.31994 0.640997 0.0135302 -4 3 -2 
7851 5 0.534271 0.636471 0.994589 -2 -2 1 
8372 5 0.490126 0.66923 0.991863 -3 -2 2 
7044 6 0.515937 0.669119 0.0235092 -3 4 0 
7376 5 0.560894 0.696689 0.00960629 6 1 -2 
7352 5 0.216479 0.714182 0.980787 0 1 1 
8498 5 0.830983 0.713437 0.985045 2 3 0 
6337 5 0.872669 0.686863 0.0469506 -3 -3 3 
5736 6 -0.00152783 0.732251 0.0114207 -2 -5 1 
5811 5 0.172924 0.655761 0.042566 0 3 3 
5970 5 0.501106 0.699905 0.970994 -1 -7 6 
6520 6 0.051636 0.764577 0.00226231 -1 4 2 
7235 6 0.490653 0.756044 0.959325 -7 -3 5 
7853 5 0.428078 0.770231 0.985897 -3 3 -1 
5699 6 0.555564 0.738812 0.994182 2 -3 -3 
5522 6 0.985186 0.764162 0.967472 -3 -3 5 
6706 6 0.227456 0.770423 0.0381931 1 -2 1 
8137 6 0.445419 0.809653 0.0359367 0 -4 -4 
8157 5 0.712474 0.80752 0.0466415 -2 -6 -1 
6270 6 0.28331 0.830527 0.0234926 -3 2 -3 
6721 5 0.870805 0.838212 0.0204596 1 1 0 
8527 6 0.0930049 0.870643 0.993025 -6 -3 5 
7511 5 0.869488 0.891381 0.989265 -6 0 1 
8326 5 0.982479 0.847178 0.990102 -4 0 -1 
7580 6 0.414181 0.857048 0.997438 0 -5 3 
8430 6 0.93142 0.836457 0.0224884 1 -1 -5 
8946 6 0.884827 0.879541 0.00370761 0 6 1 
6766 6 0.271046 0.915193 0.0206586 -3 0 -1 
6557 6 0.827193 0.857889 0.0246589 4 4 -6 
5181 6 0.635983 0.944284 0.96858 0 -1 0 
8488 5 0.16729 0.963583 0.00397108 3 2 -1 
5549 5 0.508532 0.989973 0.069957 4 -2 -5 
6402 5 0.533906 0.0142393 0.0451657 -4 2 3 
6432 5 0.858942 0.000614093 0.0247772 -3 4 -2 
8880 6 0.925742 0.995704 0.981519 -5 0 0 
6303 5 0.667585 0.996366 0.0438895 -4 -4 3 
8881 6 0.588668 0.0670317 0.034325 -3 -3 -3 
5863 5 0.965739 0.100585 0.0336483 -1 4 3 
8223 5 0.884133 0.128913 0.0306823 -2 0 -2 
7871 6 0.126416 0.121378 0.0310001 -2 3 3 
8394 6 0.202593 0.13606 0.0171009 2 4 4 
7590 5 0.380348 0.158696 0.0446324 1 -4 1 
7927 5 0.482016 0.162815 0.00868848 -1 -5 3 
8109 5 0.48254 0.135865 0.00314672 3 -1 3 
7992 5 0.49318 0.161953 0.0355819 -1 -2 3 
5876 6 0.0275948 0.170321 0.053499 -3 0 3 
5838 5 0.721749 0.213027 0.028498 -2 5 0 
8847 6 0.488301 0.208382 0.0373687 -3 2 -3 
5021 5 0.55802 0.237256 0.994999 1 -4 0 
7205 5 0.584625 0.222142 0.0321841 -2 7 1 
7960 6 0.964215 0.210249 0.0338095 -4 -4 -7 
6271 5 0.285181 0.255668 0.998568 -4 5 1 
4721 1 0.166473 0.286752 0.0198498 0 0 1 
4719 1 0.170003 0.289886 0.0141596 0 0 1 
4727 1 0.169987 0.27598 0.0260073 0 0 1 
4728 1 0.171028 0.272787 0.0317264 0 0 1 
4729 1 0.176534 0.275292 0.0295937 0 0 1 
4725 1 0.170503 0.284094 0.0262916 0 0 1 
4726 1 0.168881 0.280057 0.0310125 0 0 1 
4730 1 0.175956 0.268776 0.0287137 0 0 1 
4720 1 0.164209 0.29134 0.0163374 0 0 1 
4724 1 0.164196 0.284611 0.0273726 0 0 1 
4722 1 0.161543 0.289657 0.0226937 0 0 1 
4723 1 0.166818 0.290448 0.0257742 0 0 1 
5043 5 0.0213347 0.313857 0.0456481 -2 3 2 
4700 1 0.129559 0.305824 0.0223073 0 0 1 
7549 6 0.695023 0.31556 0.00825662 -1 1 3 
8462 5 0.168802 0.333073 0.050244 -2 -1 -2 
4778 1 0.165279 0.33064 0.0168155 0 0 1 
4773 1 0.163108 0.326019 0.00676912 0 0 1 
4776 1 0.168124 0.323735 0.0164368 0 0 1 
4775 1 0.162595 0.324499 0.0131867 0 0 1 
4777 1 0.163285 0.325184 0.020331 0 0 1 
4779 1 0.16918 0.329568 0.0222047 0 0 1 
4781 1 0.174989 0.326204 0.0189913 0 0 1 
4780 1 0.172416 0.331803 0.0175394 0 0 1 
6693 5 0.169256 0.328241 0.0312246 0 -1 -2 
4783 1 0.174977 0.323812 0.0256062 0 0 1 
4788 1 0.181281 0.32844 0.041126 0 0 1 
4786 1 0.18032 0.323615 0.0354646 0 0 1 
4785 1 0.174844 0.324957 0.0330168 0 0 1 
4787 1 0.180117 0.330115 0.035032 0 0 1 
4789 1 0.186169 0.331805 0.0386004 0 0 1 
4782 1 0.17605 0.32984 0.0239563 0 0 1 
4784 1 0.179722 0.326844 0.0293173 0 0 1 
6911 6 0.706116 0.310596 0.0404528 -1 4 -3 
7613 6 0.97331 0.328687 0.0173397 2 -1 1 
5910 6 0.41889 0.372675 0.0214776 -6 5 4 
8732 6 0.016648 0.410197 0.0469588 -2 5 4 
8867 6 0.359981 0.462021 0.0477369 5 0 -1 
8817 5 0.93984 0.443857 0.0258472 4 -2 -2 
6191 5 0.373216 0.456761 0.102166 -5 1 1 
8112 5 0.682272 0.467363 0.0570597 4 -1 2 
8414 6 0.166278 0.472765 0.0571624 0 -3 -2 
6415 5 0.258543 0.465792 0.0134845 -1 4 1 
6422 6 0.266367 0.467794 0.0503171 0 2 4 
7189 6 0.433598 0.464128 0.0656115 -2 0 -4 
5086 6 0.831791 0.483916 0.0357004 4 0 1 
6806 6 0.12319 0.525511 0.0182607 -3 -1 -1 
7059 6 0.575946 0.510988 0.015405 3 -4 1 
8052 6 0.714315 0.497607 0.0239514 0 0 -2 
6886 6 0.832861 0.498545 0.0452826 1 1 2 
7345 6 0.00966506 0.568918 0.00713099 0 -2 3 
6269 5 0.0525494 0.506042 0.034101 -1 -5 0 
7949 5 0.349284 0.544443 0.0449891 0 1 -1 
8866 6 0.682797 0.567084 0.0484021 -4 -4 3 
7879 5 0.959935 0.577993 0.0209855 -2 3 4 
7838 6 0.941105 0.597427 0.0330953 -2 -3 4 
7099 6 0.470644 0.592077 0.0187363 0 2 0 
7191 6 0.827065 0.584833 0.0396382 2 0 1 
6459 6 0.113202 0.641675 0.0110249 -2 -1 0 
5244 6 0.501169 0.639571 0.0234921 2 2 3 
5124 6 0.727676 0.608561 0.0362984 1 3 4 
6136 5 0.927687 0.649534 0.0453294 -1 2 2 
5287 6 0.508581 0.663087 0.041998 2 -1 0 
5233 6 0.740277 0.663393 0.023985 -3 -3 2 
6851 6 0.367959 0.707461 0.0391484 -1 -2 2 
5228 6 0.502383 0.685365 0.0150327 -4 -2 3 
5914 6 0.50941 0.652899 0.00977651 7 -2 4 
6632 6 0.35129 0.645173 0.0419392 -1 -5 4 
7264 5 0.760869 0.717477 0.0320781 -2 -3 5 
5106 6 0.104289 0.778807 0.00690222 2 2 -1 
5536 5 0.352857 0.763263 0.0368788 -5 3 -1 
8408 5 0.690917 0.824849 0.058989 2 -5 3 
5127 6 0.780484 0.743886 0.0170286 -5 1 3 
6584 5 0.82253 0.79664 0.0157644 2 -3 2 
8072 6 0.241386 0.832155 0.0273319 -2 -1 -5 
6341 5 0.939437 0.802115 0.017322 -3 -2 1 
7412 5 0.395129 0.863652 0.00953869 -2 2 -1 
5510 5 0.86837 0.875925 0.0263833 -3 -2 0 
6996 6 0.107372 0.894294 0.0593321 3 -2 4 
6109 6 0.286316 0.86644 0.0260057 -3 -8 -1 
7349 5 0.831133 0.914765 0.0481746 -1 -1 4 
8739 5 0.477863 0.921726 0.0149937 0 -3 -1 
8770 6 0.291962 0.951721 0.0110442 -4 4 0 
6048 6 0.972874 0.969097 0.0309824 2 -3 1 
7808 6 0.749174 0.986278 0.010959 4 -2 -2 
7963 5 0.027518 0.0937111 0.0484664 0 1 6 
8392 6 0.0576943 0.0486988 0.059857 1 1 -5 
5755 6 0.189554 0.0684039 0.0621032 1 5 -3 
8246 6 0.332425 0.0586389 0.0554097 0 3 2 
7860 5 0.19353 0.063065 0.0907814 -1 5 1 
8915 5 0.623868 0.104518 0.0379797 3 -3 2 
6699 5 0.681745 0.058892 0.0679668 -1 0 -1 
6704 5 0.294083 0.090147 0.0672791 3 1 2 
8458 5 0.362885 0.0879212 0.0629074 3 0 -1 
8780 6 0.621766 0.072901 0.0645265 6 -1 0 
6266 5 0.676014 0.115511 0.0466257 -5 0 -2 
6950 6 0.791166 0.118209 0.0868588 3 -2 -2 
7729 5 0.30643 0.108167 0.0991189 2 -3 2 
7355 5 0.427311 0.139909 0.0339242 -6 2 -1 
5381 5 0.493522 0.133967 0.104941 -2 -4 0 
8397 6 0.662656 0.137479 0.0867806 0 -2 0 
6065 6 0.704014 0.106895 0.0457384 -1 -4 -2 
7497 6 0.119193 0.162461 0.0480607 3 5 -3 
7499 6 0.161116 0.126803 0.0502643 -1 -1 -5 
8795 6 0.368047 0.13884 0.00434726 1 1 -2 
8360 6 0.0323273 0.141553 0.0731728 4 2 3 
7621 5 0.828601 0.221052 0.051521 -2 -1 3 
6927 6 0.316657 0.261413 0.0588741 4 3 2 
5506 5 0.661408 0.25723 0.0666669 2 -2 3 
7799 5 0.847001 0.229345 0.0654776 -1 5 1 
6173 5 0.182675 0.222355 0.0474811 4 1 2 
8241 5 0.549496 0.211579 0.0785129 -1 -3 0 
8347 6 0.160426 0.294398 0.0458312 -1 1 -4 
5240 5 0.686894 0.272273 0.074281 0 -2 0 
8587 6 0.736756 0.265038 0.0620909 5 -3 -3 
8557 5 0.832641 0.272293 0.0440731 4 -2 -2 
7223 6 0.925896 0.315246 0.0520486 2 -3 3 
5082 5 0.112396 0.320751 0.0492846 4 5 8 
4800 1 0.168615 0.322604 0.0632932 0 0 1 
4801 1 0.161914 0.323735 0.0635408 0 0 1 
4799 1 0.166866 0.327315 0.0595079 0 0 1 
4802 1 0.164154 0.323983 0.06924 0 0 1 
4797 1 0.172895 0.327692 0.0544905 0 0 1 
4798 1 0.172717 0.328809 0.0608198 0 0 1 
4793 1 0.175098 0.33827 0.0454643 0 0 1 
4795 1 0.175899 0.33363 0.0502653 0 0 1 
4796 1 0.174443 0.33378 0.0563542 0 0 1 
4794 1 0.175291 0.339923 0.0515059 0 0 1 
4792 1 0.181184 0.33901 0.0472103 0 0 1 
4791 1 0.181064 0.336111 0.0413879 0 0 1 
4790 1 0.185627 0.333063 0.0450397 0 0 1 
7169 5 0.339962 0.346513 0.0759255 5 -7 6 
7688 6 0.702239 0.336537 0.033721 -5 -1 -4 
8434 5 0.464973 0.326657 0.081591 1 -2 0 
7009 6 0.708008 0.408834 0.0576244 3 -1 2 
6062 6 0.767457 0.339018 0.0829473 0 1 2 
6579 6 0.780053 0.367497 0.0602728 2 -5 0 
8171 6 0.00544004 0.388049 0.0416802 -1 -5 -4 
7675 5 0.560131 0.361058 0.0624933 2 1 -1 
5080 6 0.458333 0.411292 0.0807231 -7 5 1 
6083 6 0.493703 0.40065 0.0701255 -2 6 6 
6683 5 0.814112 0.426074 0.0834504 -1 -4 5 
5420 5 0.765447 0.425614 0.0498234 2 -2 -3 
8525 6 0.460382 0.445558 0.057896 2 5 0 
5884 5 0.903335 0.437423 0.0464031 4 3 5 
5995 5 0.00802689 0.44051 0.0448779 2 0 -4 
8552 5 0.970259 0.435962 0.0584742 2 2 -2 
5116 6 0.180106 0.475773 0.0645821 3 -1 -3 
5254 5 0.600627 0.464244 0.044622 1 -3 0 
8013 6 0.948059 0.491767 0.0508056 1 6 -6 
5423 5 0.872846 0.443066 0.107533 -6 -3 -2 
5353 6 0.873764 0.493544 0.046398 1 -1 2 
5559 5 0.982911 0.480027 0.0919931 -1 -2 -6 
8574 6 0.326327 0.522098 0.051166 -3 1 1 
5271 6 0.41893 0.54386 0.0314942 0 -5 5 
7792 6 0.408112 0.514275 0.0669594 2 -3 0 
5980 5 0.714042 0.541714 0.0407517 -2 0 6 
6729 5 0.196108 0.537627 0.0605117 -2 -5 1 
8538 6 0.512669 0.523529 0.0550769 0 -2 1 
8441 6 0.895976 0.585085 0.0138724 3 4 2 
6800 5 0.216098 0.581568 0.0515406 2 -1 -2 
5627 5 0.912207 0.570882 0.0351616 -1 3 1 
7087 6 0.344853 0.638322 0.0693414 0 1 1 
7372 6 0.485367 0.642312 0.0304909 0 -3 2 
7702 6 0.36141 0.712617 0.0264959 -2 2 2 
5786 5 0.56165 0.699909 0.0395185 -1 4 -6 
7001 6 0.83717 0.686123 0.0306913 -6 3 4 
6942 6 0.941139 0.684297 0.0347865 4 -1 3 
5300 5 0.0663757 0.689509 0.0405863 7 1 1 
8542 5 0.186913 0.751208 0.065422 -1 2 -3 
8921 6 0.319097 0.682623 0.0554327 3 -3 -1 
7073 5 0.544408 0.745433 0.0594712 -4 2 4 
5167 6 0.523202 0.70508 0.026266 2 -3 4 
6091 6 0.915823 0.777123 0.0484214 3 -5 1 
8617 5 0.42253 0.8464 0.0683033 -5 0 -4 
5055 5 0.851305 0.895268 0.0327663 1 3 -2 
7158 6 0.656018 0.925491 0.0572993 3 -2 -1 
6023 6 0.375923 0.925232 0.0908292 -3 -1 1 
6419 6 0.416051 0.991476 0.0145269 1 -5 5 
8160 5 0.545042 0.00741831 0.0690825 -1 0 2 
5062 5 0.791987 0.954149 0.0558423 -2 -3 -1 
8073 6 0.10791 0.00518556 0.0811528 -6 -3 0 
5133 6 0.872109 0.981613 0.0895683 -1 0 -2 
8872 6 0.945027 0.0293003 0.0701175 -4 5 -4 
8216 5 0.0675744 0.0309528 0.0326668 -1 1 4 
5595 6 0.0656441 0.116294 0.0897108 -3 -3 2 
8352 6 0.922014 0.0846163 0.0851168 -7 2 -1 
7703 6 0.0418006 0.0732591 0.0603279 -2 -1 -1 
6902 6 0.151784 0.0693415 0.100846 -2 1 5 
6791 6 0.4021 0.0620511 0.0518262 2 2 -5 
7218 6 0.983607 0.114211 0.0680327 0 -1 2 
7491 6 0.0491773 0.0897149 0.0718892 1 1 -2 
8991 6 0.969523 0.144043 0.0772619 -2 -2 0 
6464 6 0.871454 0.155961 0.0704473 2 2 0 
5713 5 0.345303 0.168223 0.0912179 7 6 0 
7486 6 0.0751908 0.174771 0.0735534 -1 3 3 
5351 6 0.0437942 0.200611 0.0844214 -2 4 5 
6148 5 0.350734 0.177414 0.104544 1 -2 -1 
6831 5 0.293041 0.227146 0.102769 -3 -3 7 
6080 6 0.396782 0.254021 0.0387862 -3 -2 1 
5028 6 0.426368 0.235753 0.0746847 -1 4 1 
5474 6 0.529551 0.253152 0.0772651 1 -4 3 
7618 6 0.610158 0.266236 0.0702259 0 -1 0 
6075 5 0.255986 0.253913 0.0941427 1 -2 3 
6355 6 0.335103 0.249217 0.11174 1 2 -3 
8907 5 0.0131684 0.287134 0.0837212 -1 4 2 
5601 6 0.226465 0.295459 0.100284 1 1 4 
4803 1 0.159231 0.319375 0.0686042 0 0 1 
4805 1 0.161144 0.314465 0.0736174 0 0 1 
4808 1 0.164513 0.311632 0.084801 0 0 1 
4809 1 0.163302 0.305948 0.087 0 0 1 
4810 1 0.157757 0.308265 0.0851827 0 0 1 
4811 1 0.157 0.305451 0.0914388 0 0 1 
4813 1 0.163794 0.306712 0.0948235 0 0 1 
4812 1 0.160417 0.310617 0.0912153 0 0 1 
4815 1 0.163282 0.306143 0.101897 0 0 1 
4814 1 0.160469 0.310914 0.0985469 0 0 1 
4807 1 0.161719 0.309384 0.0798925 0 0 1 
4804 1 0.16084 0.320556 0.0746773 0 0 1 
4806 1 0.160638 0.315825 0.0798626 0 0 1 
4835 1 0.163016 0.32985 0.092223 0 0 1 
4823 1 0.182452 0.322948 0.0992779 0 0 1 
5875 5 0.893129 0.350528 0.0976275 -6 -3 -3 
6808 5 0.309549 0.337762 0.0932317 1 2 -1 
5892 6 0.560998 0.416304 0.0884415 -3 5 7 
5656 5 0.866914 0.408008 0.0762863 2 -2 2 
8361 5 0.531786 0.431159 0.0146838 -1 -1 1 
8115 5 0.292466 0.471351 0.0901653 0 0 4 
8517 6 0.657812 0.452717 0.0671269 -1 -2 -1 
5990 5 0.688908 0.438637 0.0626092 -3 -2 -2 
5972 5 0.443058 0.464529 0.0411794 1 -1 2 
7250 6 0.548186 0.464662 0.0313382 0 1 0 
5633 6 0.617357 0.46542 0.080615 4 6 2 
5207 6 0.720539 0.470921 0.0481907 3 5 3 
6689 6 0.829883 0.50455 0.0831138 0 -6 -2 
5690 5 0.964936 0.518106 0.0775892 1 3 1 
6000 6 0.477035 0.521372 0.082652 3 -5 -4 
5498 5 0.718071 0.490997 0.0646166 2 0 2 
8659 5 0.154143 0.521065 0.0582001 8 -3 -3 
6444 5 0.728293 0.563868 0.0686873 1 -1 2 
8324 5 0.895059 0.555916 0.10562 1 -1 1 
7450 6 0.855061 0.554508 0.0696839 4 -3 0 
6816 6 0.276747 0.597353 0.0854799 0 -5 1 
5900 5 0.916014 0.616509 0.0933406 1 -3 2 
5085 5 0.141561 0.615408 0.078726 3 0 6 
6564 6 0.0248504 0.592669 0.0610118 -6 1 1 
7941 5 0.00376982 0.607343 0.0977271 -2 3 -1 
8786 6 0.164352 0.643644 0.0966112 -2 1 2 
7147 5 0.692223 0.594293 0.0807158 0 1 -1 
5849 5 0.859003 0.610646 0.108243 -4 6 2 
8684 5 0.052308 0.633093 0.107132 -5 -4 2 
7166 5 0.263272 0.649656 0.0810662 -1 1 -2 
8014 5 0.926081 0.650578 0.0803581 -2 0 2 
5743 6 0.485901 0.639143 0.0712656 -3 2 0 
8828 5 0.495831 0.687184 0.122964 1 1 4 
6973 6 0.583392 0.657334 0.0705502 1 -2 -1 
8804 5 0.777449 0.668359 0.0607771 1 0 3 
7411 5 0.999346 0.684948 0.0734851 -3 0 3 
5365 6 0.339654 0.708434 0.104392 -5 -1 -3 
6263 6 0.912884 0.750163 0.0546064 -1 0 1 
8288 5 0.359622 0.744101 0.0957234 -1 -7 -2 
7454 6 0.54754 0.770063 0.0761637 -1 -2 -1 
6487 5 0.735195 0.786488 0.0748599 0 -3 1 
5777 6 0.3017 0.734197 0.0647324 -1 -1 -2 
5068 5 0.310162 0.791784 0.0527539 5 -4 -5 
7553 5 0.644393 0.852125 0.0520676 -1 2 0 
6198 5 0.982987 0.923893 0.110704 -2 -6 -2 
6356 5 0.950711 0.881524 0.0716066 -4 -2 1 
8416 5 0.115691 0.887214 0.0670862 -4 -1 -2 
7038 5 0.337617 0.915305 0.120267 5 0 7 
7858 5 0.835567 0.926565 0.0403822 0 1 -2 
7584 5 0.107323 0.956232 0.0730899 0 2 -1 
5702 5 0.159047 0.9271 0.106799 -3 -1 2 
8957 5 0.0233802 0.983107 0.100541 5 0 0 
5410 5 0.335181 0.991285 0.0634824 -2 1 4 
8437 6 0.517112 0.0156693 0.107376 1 3 0 
7260 5 0.123842 0.0351744 0.106849 2 1 2 
6212 5 0.428773 0.0747809 0.139729 -2 3 2 
8891 6 0.0919428 0.0637644 0.0956411 -1 3 0 
5958 6 0.290488 0.0569786 0.0947459 -5 4 5 
7453 5 0.803581 0.136121 0.0719203 2 -3 6 
7698 5 0.110816 0.132581 0.0946779 4 1 3 
5036 5 0.175484 0.106897 0.10692 2 3 -2 
6781 5 0.25832 0.142446 0.0859039 -1 2 4 
8579 5 0.988423 0.118302 0.10422 0 5 -1 
8581 6 0.00662109 0.135091 0.0701176 3 2 -3 
5204 5 0.0647795 0.126491 0.139523 0 6 1 
7014 5 0.952751 0.142405 0.111482 -4 2 -1 
6768 5 0.691495 0.173271 0.150915 1 -1 0 
8953 5 0.744212 0.106157 0.109294 1 1 5 
6101 5 0.229063 0.147373 0.0965044 -3 1 5 
6277 5 0.977165 0.171252 0.101518 1 -2 -1 
6134 5 0.192695 0.207137 0.0909926 -1 -2 2 
7214 6 0.861648 0.20722 0.12187 -4 -2 2 
7393 5 0.508165 0.201996 0.104597 3 -1 3 
7045 6 0.562947 0.222373 0.108027 1 3 -3 
6026 6 0.945595 0.262311 0.103993 -4 -2 1 
8673 6 0.190894 0.292981 0.1317 3 2 0 
6540 5 0.609394 0.245963 0.120971 0 3 3 
7790 6 0.925565 0.264826 0.161298 -3 1 -1 
4816 1 0.166999 0.311125 0.101968 0 0 1 
4819 1 0.174333 0.310113 0.0976083 0 0 1 
4817 1 0.169818 0.305552 0.10152 0 0 1 
4818 1 0.173588 0.309948 0.104075 0 0 1 
4838 1 0.153354 0.324225 0.0972299 0 0 1 
4844 1 0.15201 0.333652 0.117159 0 0 1 
7814 5 0.130794 0.329571 0.111063 1 -4 3 
4847 1 0.149762 0.343243 0.111183 0 0 1 
4836 1 0.15817 0.325463 0.0924554 0 0 1 
4821 1 0.179732 0.315857 0.0968323 0 0 1 
4842 1 0.15277 0.329029 0.110904 0 0 1 
4840 1 0.151819 0.327207 0.104061 0 0 1 
6217 5 0.171989 0.31631 0.101234 3 -1 1 
8350 5 0.164974 0.321417 0.0944718 2 5 2 
4820 1 0.179392 0.311316 0.101425 0 0 1 
4834 1 0.162973 0.327642 0.0979627 0 0 1 
4833 1 0.168276 0.331091 0.096665 0 0 1 
4832 1 0.170031 0.325823 0.0997705 0 0 1 
4829 1 0.174525 0.331018 0.109741 0 0 1 
4830 1 0.172373 0.325861 0.106488 0 0 1 
4831 1 0.173849 0.33074 0.102164 0 0 1 
4828 1 0.178844 0.327164 0.106219 0 0 1 
4837 1 0.156611 0.329674 0.0968654 0 0 1 
4826 1 0.185722 0.327502 0.110001 0 0 1 
4824 1 0.185116 0.321978 0.104963 0 0 1 
4827 1 0.181598 0.332517 0.109054 0 0 1 
4825 1 0.185209 0.328313 0.103789 0 0 1 
4822 1 0.178959 0.318516 0.102556 0 0 1 
7248 6 0.908608 0.320592 0.111263 -6 -4 0 
4845 1 0.151597 0.335869 0.11075 0 0 1 
4841 1 0.157336 0.330615 0.10633 0 0 1 
4839 1 0.157458 0.324833 0.102248 0 0 1 
5898 5 0.65472 0.345972 0.0945931 2 3 0 
7721 5 0.0935778 0.395613 0.0942099 -1 2 4 
5059 6 0.425422 0.374093 0.106809 -1 -3 4 
8176 5 0.51958 0.446493 0.104727 4 -2 -4 
6031 6 0.37628 0.406554 0.123282 3 -2 -2 
7410 5 0.656602 0.419339 0.112133 -1 -3 4 
8578 5 0.820101 0.403106 0.0883488 3 1 0 
5683 6 0.688959 0.485182 0.0959407 0 -7 1 
5306 5 0.9973 0.523694 0.100012 -5 -2 0 
7408 6 0.0837823 0.517496 0.121183 8 9 -3 
7338 5 0.203303 0.542618 0.110798 -1 2 5 
6555 5 0.204726 0.528708 0.0893338 -3 1 -2 
5158 6 0.535829 0.537499 0.0668086 -1 2 -1 
5416 5 0.866415 0.513704 0.144426 -2 -4 5 
7171 6 0.0423184 0.582232 0.109014 -2 -4 3 
5611 6 0.284727 0.555531 0.0825926 0 -6 0 
5964 5 0.265255 0.590519 0.0890716 3 -3 -2 
6309 5 0.795421 0.506628 0.0813226 -1 0 1 
6574 6 0.536603 0.576854 0.0994213 0 0 -1 
8897 5 0.519558 0.570771 0.103718 6 1 -2 
6149 6 0.42157 0.642176 0.125522 -3 2 -7 
7071 6 0.112152 0.686408 0.0604034 2 -4 3 
7145 6 0.0506303 0.651948 0.0733017 3 4 1 
6725 5 0.836493 0.715074 0.110364 3 2 -6 
8870 6 0.860616 0.708866 0.104561 -1 0 1 
5936 6 0.158767 0.719291 0.121923 -1 4 1 
7576 5 0.467109 0.715106 0.112797 0 -2 3 
8429 6 0.487907 0.680735 0.102634 0 0 4 
7136 5 0.947576 0.708028 0.0708779 -1 -3 -1 
8731 6 0.0935061 0.734983 0.0939448 1 2 -2 
6433 6 0.5615 0.721311 0.0790525 1 2 5 
5569 5 0.678737 0.74217 0.145822 -1 -5 2 
5925 5 0.96057 0.767908 0.0809199 2 0 0 
7295 5 0.126294 0.745755 0.136366 3 -4 3 
7327 6 0.298005 0.755289 0.0887142 4 -7 2 
5070 6 0.365275 0.771286 0.0936581 -3 6 0 
5941 5 0.409939 0.774514 0.113434 -1 5 4 
5624 6 0.404053 0.849333 0.0797496 1 -2 0 
7159 5 0.529507 0.813361 0.10536 0 -2 2 
7822 6 0.953526 0.816693 0.113783 -1 4 1 
8744 6 0.802981 0.855631 0.119834 6 0 2 
7872 6 0.195026 0.921244 0.104404 1 -1 -3 
6807 5 0.482695 0.98564 0.10574 0 2 -1 
6045 5 0.828376 0.932332 0.0999189 -3 -2 3 
5131 6 0.315411 0.962209 0.0968973 6 -1 3 
8383 5 0.362377 0.978808 0.0886915 -1 4 5 
6124 6 0.636746 0.993919 0.124008 2 -1 2 
7550 6 0.781009 0.984704 0.126466 -2 5 -2 
5482 5 0.0251232 0.0114344 0.118764 -1 -5 2 
5929 6 0.0232231 0.031465 0.154416 -5 4 -4 
8015 5 0.942263 0.0658307 0.119496 -3 3 -1 
5329 6 0.191056 0.0681314 0.127527 1 5 -3 
7302 6 0.921525 0.0396937 0.119555 4 2 -2 
8712 5 0.126018 0.0471293 0.110741 2 2 -1 
8531 6 0.28659 0.0779873 0.0975886 -2 -3 -2 
7823 5 0.0373073 0.106826 0.107536 1 0 -2 
7606 6 0.690748 0.121966 0.127887 4 3 1 
5210 6 0.742801 0.124412 0.144383 -2 0 -2 
6602 6 0.816247 0.157192 0.143007 -2 1 -2 
7693 6 0.888444 0.103585 0.143995 -2 2 2 
5385 6 0.00156091 0.123356 0.112304 -1 4 -2 
6067 6 0.0205387 0.143096 0.0965153 1 1 -1 
7908 6 0.995902 0.172128 0.0738286 -7 3 1 
6468 6 0.0985725 0.198349 0.105287 1 1 -4 
6594 6 0.0274886 0.154561 0.154922 1 1 1 
7270 6 0.353698 0.144878 0.128823 -1 -3 4 
5053 6 0.522916 0.197251 0.101289 3 3 -4 
7669 5 0.955849 0.217728 0.147867 0 -2 4 
5933 5 0.164441 0.219532 0.134589 -6 -6 2 
5691 5 0.837943 0.195109 0.118408 1 -4 3 
8555 6 0.264679 0.253425 0.136952 1 2 -2 
8577 5 0.841849 0.227018 0.159427 -4 -3 1 
7648 6 0.297981 0.267896 0.122561 0 -3 1 
6842 6 0.00682948 0.278544 0.131121 2 0 -1 
5041 5 0.00833335 0.264589 0.176694 -5 -1 3 
5465 5 0.432239 0.272286 0.131674 -2 0 2 
4864 1 0.120732 0.314428 0.137693 0 0 1 
7418 5 0.12573 0.334848 0.128658 -2 5 6 
4858 1 0.129551 0.323959 0.131463 0 0 1 
4862 1 0.121847 0.319079 0.132488 0 0 1 
4860 1 0.121963 0.326162 0.13104 0 0 1 
4863 1 0.116034 0.315898 0.133915 0 0 1 
4861 1 0.117256 0.322165 0.129739 0 0 1 
5190 5 0.153691 0.29633 0.123632 1 3 2 
5667 6 0.143054 0.318457 0.114106 -4 -2 6 
4855 1 0.129484 0.33092 0.121875 0 0 1 
4856 1 0.131139 0.329955 0.128063 0 0 1 
4857 1 0.131944 0.324618 0.125129 0 0 1 
4854 1 0.135447 0.333757 0.123928 0 0 1 
4853 1 0.135497 0.332998 0.117236 0 0 1 
4852 1 0.14092 0.336055 0.118987 0 0 1 
4859 1 0.124866 0.322367 0.126807 0 0 1 
5991 5 0.145006 0.336444 0.111753 -4 1 -4 
4851 1 0.136674 0.339764 0.115895 0 0 1 
4846 1 0.154383 0.340245 0.114199 0 0 1 
4848 1 0.147812 0.341475 0.116807 0 0 1 
4850 1 0.140815 0.343704 0.11917 0 0 1 
4849 1 0.142509 0.342879 0.112973 0 0 1 
7113 5 0.255189 0.316903 0.0953849 -2 -2 3 
7942 5 0.298641 0.344654 0.134084 2 3 4 
5907 6 0.816348 0.340519 0.138088 -7 3 2 
4843 1 0.15738 0.332218 0.113533 0 0 1 
8492 6 0.337492 0.355981 0.124809 0 0 2 
8520 6 0.501174 0.347727 0.107897 -1 4 2 
8746 5 0.831442 0.335829 0.132036 -2 -5 4 
6490 5 0.464306 0.358623 0.114848 -1 1 -2 
6156 6 0.716502 0.384222 0.14974 0 -6 -1 
5889 5 0.394625 0.418862 0.143632 1 4 -1 
8544 5 0.846766 0.390126 0.129131 -4 -2 1 
8314 6 0.088434 0.423813 0.135988 3 -2 4 
7527 6 0.409065 0.432069 0.110091 0 0 -1 
6172 5 0.645121 0.403973 0.123873 2 1 3 
5855 6 0.675944 0.433449 0.114755 -3 -1 9 
8760 6 0.00739263 0.430515 0.145907 -3 1 -1 
7286 5 0.24514 0.456061 0.1522 -1 -1 2 
8074 5 0.57919 0.448339 0.0895426 -3 -2 2 
8505 6 0.0165806 0.461282 0.0986492 -3 -3 2 
5357 5 0.0674813 0.519608 0.104387 1 4 3 
8275 6 0.139047 0.512594 0.119505 -5 0 -2 
7328 5 0.155961 0.496221 0.178597 0 -3 -5 
7918 6 0.237515 0.490603 0.140003 2 -3 -4 
8093 6 0.630989 0.524306 0.114798 3 2 2 
5447 6 0.442401 0.556196 0.124364 3 0 2 
6391 6 0.810106 0.560668 0.111018 0 1 -1 
8816 6 0.331303 0.573556 0.127497 -5 -1 -1 
6166 5 0.322242 0.619939 0.167865 -3 -5 0 
7794 5 0.426912 0.589239 0.114587 1 0 6 
8704 5 0.754768 0.646702 0.122807 2 -4 0 
7245 5 0.154157 0.572318 0.144908 4 -1 -1 
6832 5 0.255386 0.563947 0.129283 1 2 0 
5348 6 0.946502 0.610771 0.108211 -4 -4 0 
6785 6 0.75201 0.635031 0.112509 -1 -1 0 
6486 5 0.959607 0.577242 0.15251 6 0 2 
7288 5 0.176812 0.645128 0.129893 -3 -4 -4 
5147 5 0.537169 0.648461 0.0997062 -2 2 1 
7184 5 0.463429 0.670114 0.110809 -2 0 6 
7332 5 0.562559 0.650613 0.1062 0 9 -3 
6581 6 0.900626 0.642346 0.123498 -4 -4 3 
6728 6 0.94536 0.65575 0.112538 1 -1 2 
5276 5 0.411657 0.700048 0.129353 3 -5 -1 
8944 6 0.569483 0.749889 0.0874889 2 0 -1 
8931 6 0.270826 0.799897 0.150554 1 -1 5 
6046 6 0.907831 0.787429 0.134697 -8 -3 -7 
7246 5 0.382221 0.78451 0.108518 -1 -1 1 
8007 6 0.847344 0.826913 0.0903245 -3 5 3 
5799 6 0.142947 0.837533 0.144053 -2 2 -1 
6248 6 0.201586 0.857153 0.114914 0 -4 3 
8284 6 0.256617 0.841519 0.103187 -2 -2 4 
7290 6 0.634946 0.861765 0.106407 1 0 -1 
6539 6 0.708252 0.828232 0.117556 2 -4 1 
6844 5 0.170805 0.932612 0.16402 3 2 -3 
7128 6 0.521112 0.879786 0.161084 -1 3 -3 
8045 5 0.812909 0.90118 0.133374 5 -1 -1 
5782 6 0.948702 0.901989 0.139938 3 3 -1 
7391 5 0.452664 0.942855 0.174269 -2 -2 -1 
6589 5 0.58599 0.927069 0.0962691 5 3 -1 
5354 5 0.660112 0.891501 0.137706 5 -8 2 
6696 6 0.874033 0.969477 0.128433 5 2 5 
7983 6 0.378317 0.968632 0.124721 0 -1 1 
8845 5 0.528672 0.994035 0.117547 4 -1 1 
8850 5 0.177347 0.982521 0.124177 0 -1 0 
6926 6 0.55536 0.997899 0.131144 -1 -2 3 
8062 5 0.702165 0.0279604 0.129536 2 -2 3 
8148 6 0.328383 0.0435996 0.139619 -1 2 0 
8260 5 0.373096 0.0720883 0.160802 -2 2 4 
5386 6 0.842358 0.0294247 0.142186 0 4 -1 
5814 5 0.0147879 0.0308821 0.128663 5 -1 -2 
7269 6 0.241569 0.0997926 0.152535 2 -1 1 
7784 6 0.300516 0.068676 0.133271 1 0 0 
7552 5 0.296858 0.0784662 0.125988 1 -1 6 
5422 5 0.887775 0.0635489 0.118634 0 2 3 
8580 5 0.904287 0.0950362 0.157078 -3 0 3 
7509 5 0.369119 0.0923591 0.136783 0 0 3 
6350 6 0.41063 0.0823051 0.144594 -2 2 -5 
7921 6 0.114103 0.119262 0.155256 -1 -1 2 
6966 5 0.277901 0.139427 0.14539 -2 1 1 
6493 5 0.928826 0.117275 0.149204 3 -2 1 
7731 6 0.346932 0.189136 0.140216 -2 -2 -3 
8044 6 0.0967358 0.23159 0.163849 0 -2 2 
4933 1 0.100233 0.246886 0.165227 0 0 1 
4929 1 0.108004 0.252945 0.157569 0 0 1 
4928 1 0.108022 0.254012 0.151384 0 0 1 
4926 1 0.108007 0.259684 0.156009 0 0 1 
5772 6 0.0197322 0.256274 0.114153 2 2 -2 
6014 6 0.985286 0.259301 0.138283 1 0 5 
4878 1 0.10952 0.286509 0.137029 0 0 1 
4877 1 0.104262 0.287209 0.140558 0 0 1 
4879 1 0.108489 0.281458 0.140965 0 0 1 
4880 1 0.109627 0.286638 0.144567 0 0 1 
4875 1 0.100611 0.293005 0.140065 0 0 1 
4876 1 0.1033 0.289686 0.135042 0 0 1 
4881 1 0.109251 0.280922 0.148323 0 0 1 
4882 1 0.115029 0.283584 0.148429 0 0 1 
4884 1 0.113191 0.282828 0.155181 0 0 1 
4883 1 0.110544 0.287407 0.15208 0 0 1 
4885 1 0.116097 0.288051 0.157021 0 0 1 
4886 1 0.1201 0.283466 0.158669 0 0 1 
7558 5 0.430569 0.276783 0.147376 2 1 -5 
6777 5 0.663831 0.286961 0.159239 2 -1 1 
4871 1 0.112764 0.300392 0.139621 0 0 1 
4870 1 0.110501 0.300107 0.133552 0 0 1 
4874 1 0.102954 0.297467 0.135809 0 0 1 
4872 1 0.106915 0.302535 0.139925 0 0 1 
4873 1 0.106656 0.296378 0.140765 0 0 1 
4869 1 0.112308 0.306269 0.134557 0 0 1 
4868 1 0.117649 0.303058 0.133999 0 0 1 
4867 1 0.118953 0.309064 0.13295 0 0 1 
4866 1 0.12199 0.307734 0.138862 0 0 1 
4865 1 0.115906 0.31034 0.139827 0 0 1 
7931 5 0.363693 0.306498 0.165813 -2 4 0 
5434 6 0.530819 0.338393 0.170959 2 0 -4 
8355 5 0.98122 0.256867 0.153776 -4 3 -1 
8389 6 0.0234451 0.334053 0.165182 1 -3 -2 
5189 6 0.108514 0.37785 0.106603 -3 5 1 
7649 6 0.147477 0.325736 0.128996 1 4 4 
6453 6 0.361611 0.38991 0.137548 0 2 -1 
8153 5 0.621683 0.352377 0.149876 1 0 5 
6118 5 0.910706 0.342371 0.123017 1 1 0 
7998 5 0.930708 0.386708 0.112161 2 1 6 
7994 5 0.929999 0.326362 0.169168 3 -6 4 
6003 6 0.683992 0.398263 0.187825 2 0 0 
7238 5 0.229802 0.452742 0.149092 -1 0 1 