ITEM: TIMESTEP
20000000
ITEM: NUMBER OF ATOMS
9000
ITEM: BOX BOUNDS pp pp pp
-75 75
-75 75
-75 75
ITEM: ATOMS id type xs ys zs ix iy iz 
7177 5 0.1116 0.0286345 0.00121032 3 1 -5 
6015 6 0.214216 0.982604 1.00071 -3 0 -3 
5510 5 0.296629 0.000794846 0.065688 -1 3 5 
5685 5 0.676092 0.00532694 0.0300015 3 -2 -1 
6052 6 0.792547 0.0236256 0.0547556 -4 2 0 
7385 6 0.15867 0.0223672 0.0217609 1 2 0 
7888 6 0.16096 0.0492475 0.987586 -7 -3 0 
6455 6 0.413608 0.0362246 0.0295223 2 -3 3 
7085 6 0.1406 0.128554 0.0193241 -1 3 1 
6808 5 0.262214 0.131628 0.0158803 4 2 -2 
6840 5 0.287351 0.114069 0.999466 1 1 1 
6561 6 0.224376 0.114512 0.983257 -2 2 -4 
6574 5 0.348759 0.0963515 0.995111 -2 1 1 
8179 6 0.488256 0.098136 0.000967982 2 5 -1 
5999 6 0.483516 0.141982 0.970589 2 4 -1 
5981 5 0.68342 0.0973105 0.0297248 -3 -4 0 
7046 5 0.00778191 0.203228 0.0343592 3 -4 1 
6161 6 0.273571 0.121071 0.0119969 1 -1 -3 
8010 6 0.294569 0.198969 0.0442627 -3 5 2 
6149 6 0.239315 0.139598 0.057166 -1 1 -3 
6594 5 0.328103 0.191339 0.0223651 4 -1 -2 
7588 5 0.4637 0.168756 0.994401 2 2 -5 
7090 5 0.635153 0.192442 0.986931 -3 4 -2 
7981 5 0.677221 0.234682 0.994647 -1 2 -6 
8959 6 0.308393 0.248947 0.00534403 3 0 1 
6771 6 0.345855 0.222178 0.990236 1 2 2 
8927 5 0.852685 0.21975 0.0173647 3 -1 -2 
5021 6 0.916295 0.248872 0.0140562 0 -3 5 
7513 6 0.925851 0.299088 0.0506944 1 2 -1 
5605 6 0.794693 0.245583 0.0340958 5 1 5 
8267 5 0.413927 0.307616 0.0117787 1 -5 -2 
5805 6 0.683294 0.274582 0.020331 -1 2 -2 
6345 6 0.739709 0.339479 0.0122457 2 3 1 
7547 5 0.947168 0.314089 0.993285 -4 0 0 
7246 5 0.138564 0.289669 0.00419542 2 0 1 
5784 6 0.176494 0.310068 0.983608 -1 -4 -5 
6585 5 0.457898 0.370685 0.0274631 0 -4 -2 
8188 6 0.955523 0.363045 0.0286786 2 2 0 
6591 5 0.225784 0.362613 -0.00213474 3 1 -1 
5396 6 0.879902 0.370361 0.012862 5 0 4 
8582 6 0.133222 0.395752 0.000418743 -2 -1 3 
8472 5 0.245714 0.34168 0.0172187 -4 0 -4 
7828 6 0.56077 0.382571 0.972254 0 0 1 
6218 5 0.871892 0.386568 0.0135251 -4 -1 2 
6644 5 0.174315 0.374204 0.0365949 0 -1 -2 
7381 5 0.339003 0.395465 0.0310141 1 5 1 
7831 5 0.74923 0.363914 0.0235121 -4 -3 5 
5658 6 0.011827 0.393146 0.00444226 -1 2 -3 
6498 6 0.0649161 0.390824 0.0200488 -2 0 4 
6122 6 0.288638 0.431325 0.0207622 -1 -2 -1 
7835 6 0.529182 0.444769 0.982261 -4 0 0 
5443 5 0.415838 0.412047 0.000466376 3 1 -1 
5064 6 0.515711 0.425253 0.995555 3 5 0 
5604 6 0.0107973 0.459709 0.0097871 -5 2 -2 
6316 5 0.0232335 0.489879 -0.00170123 -7 0 -2 
6310 6 0.207293 0.511094 0.0146494 2 -2 5 
5478 6 0.224325 0.459274 0.00151479 -1 2 -2 
8630 6 0.611097 0.49135 0.991595 -1 1 0 
6199 5 0.34593 0.462601 0.988386 -3 6 -2 
5216 5 0.452333 0.470502 0.00816813 -4 3 0 
6357 6 0.501393 0.532609 0.00570311 3 -2 0 
7650 5 0.893149 0.544123 -0.00109112 0 4 0 
5458 5 0.538277 0.532408 0.983177 8 -2 -1 
7791 5 0.401979 0.580975 0.0235881 -1 1 4 
6254 6 0.404537 0.514585 0.043938 0 -5 -1 
8716 5 0.12553 0.580856 0.00408909 5 0 0 
5394 5 0.238735 0.584591 0.00750375 -7 2 -2 
6959 6 0.668084 0.562235 0.989832 -2 -5 -3 
8018 6 0.372993 0.673246 0.013254 -7 4 -2 
5344 5 0.540758 0.647163 0.0466246 -3 -5 3 
6930 5 0.0646823 0.693087 0.048956 3 0 3 
7142 6 0.346869 0.647714 0.988039 1 3 0 
5369 6 0.885895 0.69638 0.010919 0 1 -1 
7056 5 0.973885 0.713776 0.00831922 -1 4 -2 
8241 5 0.178326 0.70284 0.0162097 -1 0 -2 
8038 6 0.314361 0.77747 1.00084 3 0 1 
5168 6 0.513685 0.7282 0.0304473 4 1 2 
5787 6 0.749443 0.741607 0.0163231 -3 -2 2 
7576 5 0.04327 0.70069 0.0350534 -1 2 -2 
7985 6 0.215434 0.738804 0.00380008 -5 -1 -4 
8608 6 0.780906 0.750213 0.0317603 -4 6 -1 
6411 6 0.974419 0.746228 0.974457 4 3 4 
7875 5 0.0990163 0.904891 0.965713 1 1 -1 
8554 6 0.18841 0.845618 0.998615 0 -2 1 
8763 6 0.109654 0.898343 0.9824 1 1 0 
7829 6 0.266985 0.885029 0.0370808 -4 1 0 
5616 5 0.472117 0.864826 0.0280523 4 -1 -4 
7294 6 0.199191 0.928663 0.0378156 0 -2 3 
5415 6 0.586336 0.890411 0.0614212 4 -1 2 
7849 6 0.64577 0.959847 0.0386789 -3 1 -2 
6809 6 0.976926 0.892234 0.0241793 1 -2 2 
7553 6 0.408549 0.983639 0.0122187 5 3 3 
7318 6 0.67204 0.953964 0.0169594 -1 4 2 
8854 5 0.73471 0.951039 0.973161 -4 2 0 
8782 6 0.97433 0.958609 0.00620785 -2 -3 -1 
6839 6 0.260989 0.974915 0.0111542 3 -7 5 
8106 6 0.0667219 0.0217796 0.059473 2 3 1 
6906 5 0.379677 0.993392 0.0758976 0 -1 0 
5487 6 0.342511 0.00541775 0.0395815 -1 0 1 
8920 6 0.19602 0.0339654 0.0291272 -1 3 0 
8845 5 0.229265 0.0775433 0.032758 4 1 1 
5161 5 0.930393 0.0787943 0.0373984 -3 3 -3 
8912 6 0.135545 0.108335 0.0302099 -10 3 2 
5670 6 0.312162 0.110461 0.978246 3 2 -4 
7397 6 0.756302 0.111433 0.0455301 1 4 0 
7539 6 0.737076 0.11504 0.0459848 -1 3 2 
7189 6 0.0516974 0.138046 0.0190912 4 3 -5 
8265 6 0.973629 0.0974192 0.0230617 0 3 2 
5497 6 0.379455 0.154625 0.0279714 3 1 -2 
5954 6 0.721295 0.101505 0.0396291 0 -1 1 
5776 5 0.935481 0.127002 0.0499992 -1 5 -2 
8334 5 0.224363 0.184109 0.0316815 0 1 3 
8758 5 0.489313 0.143234 0.0493492 2 -3 -1 
8606 6 0.727298 0.147752 0.0913246 -1 -3 3 
7789 6 0.319823 0.218965 0.0888216 4 0 4 
5123 6 0.530995 0.228841 0.0341711 3 -4 1 
5589 6 0.981726 0.232294 0.0487817 -2 0 1 
8933 5 0.509468 0.231926 0.0033516 -2 -2 1 
7712 6 0.0213343 0.255979 0.024571 -1 -1 -1 
7105 5 0.853492 0.245909 0.00643226 0 0 0 
6399 6 0.862558 0.260486 0.0170071 -2 -6 0 
8891 6 0.0452642 0.251386 0.00656276 -1 0 5 
6037 6 0.567217 0.247142 0.0308473 4 -1 -5 
5576 6 0.917012 0.258247 0.041949 2 1 7 
8428 6 0.974069 0.302879 0.0402233 0 0 3 
6607 6 0.0906973 0.302528 0.0459784 5 3 1 
6300 5 0.133117 0.300362 0.0423489 5 -10 0 
6315 5 0.804589 0.311611 0.0318231 1 0 -2 
5918 6 0.898222 0.350418 0.0165085 2 1 2 
5550 6 0.155225 0.325885 0.0600087 2 -3 0 
5518 6 0.557934 0.341157 0.018429 5 0 -1 
7500 6 0.847456 0.295294 0.102768 1 -3 0 
5237 6 0.945901 0.326277 0.0128107 0 0 -2 
7913 5 0.332237 0.327345 0.0123213 -2 2 -3 
6485 5 0.700118 0.353882 0.0292674 -6 3 0 
8440 6 0.346502 0.376826 0.0242633 1 5 3 
7144 5 0.400623 0.388291 0.989488 -4 -3 -5 
6179 6 0.807427 0.398752 0.063401 -3 0 -1 
5063 5 0.132194 0.446226 0.0329077 2 0 -3 
8344 5 0.286395 0.443032 0.0759974 1 -1 -1 
5279 5 0.279332 0.450874 0.0894241 5 -1 4 
6376 5 0.350419 0.463447 0.0613663 -5 -2 -1 
6255 6 0.324045 0.49231 0.0552403 -1 0 -3 
8002 5 0.606167 0.566756 0.0514207 -2 -3 3 
6420 5 0.315611 0.502836 0.0185067 -2 2 0 
8750 5 0.526853 0.534458 0.0520694 0 -2 6 
5505 5 0.221372 0.622498 0.0109424 0 3 -2 
8129 5 0.609842 0.585671 0.996066 3 -1 0 
5679 6 0.0568569 0.680235 0.0182441 -1 -4 -2 
7466 5 0.19211 0.670162 0.0773822 5 3 1 
6240 6 0.507291 0.679212 0.0512274 -1 5 -1 
5222 5 0.556181 0.676387 0.0599772 2 3 0 
5166 6 0.811208 0.699332 0.0405586 -1 -2 1 
7017 5 0.920288 0.669 0.0376485 -2 -1 3 
6706 6 0.413931 0.680388 0.0495724 -1 -1 -1 
6302 5 0.25899 0.712448 0.0464331 1 -2 5 
6372 6 0.554818 0.719116 0.0175425 1 2 -2 
8637 5 0.706639 0.736487 0.0560731 4 -2 1 
8896 6 0.311052 0.798516 0.0538008 0 0 3 
5720 6 0.283613 0.791567 0.0422099 -1 0 -4 
5309 6 0.453392 0.79917 0.0526247 0 0 -5 
6789 5 0.515144 0.853644 0.0255351 1 -3 5 
8570 5 0.970085 0.865432 0.043133 4 1 1 
6478 6 0.187116 0.840258 0.0265201 -1 0 3 
7161 5 0.232017 0.858667 0.0502281 1 1 3 
8415 6 0.14236 0.860988 0.00481732 2 -2 -4 
5356 6 0.177066 0.858818 0.0141616 3 -2 1 
7987 6 0.220221 0.908232 0.0462841 0 2 2 
6609 5 0.725656 0.914379 0.0478926 -4 -1 0 
7872 6 0.217705 0.906934 0.0349492 -4 -6 0 
7681 6 0.0184479 0.987486 0.0321997 0 0 -2 
8242 6 0.274741 0.972077 0.0542189 0 2 -1 
6696 6 0.278233 0.942798 0.0463028 1 -5 2 
7277 6 0.328311 0.960871 0.0228903 4 -6 0 
6852 6 0.598346 0.983486 5.21407e-05 2 4 0 
8509 6 0.695053 0.954484 0.0715142 1 -3 -1 
8328 6 0.130875 0.960221 0.0196996 -3 -1 3 
6487 6 0.440786 0.976356 0.0160595 1 1 2 
6217 6 0.442947 0.0124277 0.0221683 0 3 -2 
5409 6 0.584733 0.987335 0.0681835 1 3 3 
5491 6 0.589638 0.992643 0.0441489 2 -3 -4 
6139 6 0.806908 0.0123316 0.0456717 -1 5 0 
8412 5 0.57159 0.0169139 0.0457172 1 1 0 
5788 6 0.989495 0.0439479 0.0572141 0 2 -3 
8369 6 0.0396477 0.0241583 0.0686357 -3 3 0 
5798 5 0.337906 0.0345171 0.0679592 1 -3 -5 
7770 6 0.61504 0.044089 0.0863907 -1 0 -1 
5609 5 0.20142 0.0412764 0.111901 3 0 1 
8453 5 0.777131 0.0678849 0.0969932 0 4 1 
7811 5 0.359575 0.115206 0.0633803 4 -1 3 
6370 5 0.550191 0.112169 0.0410443 -5 -1 0 
6705 5 0.917121 0.0659113 0.0485588 0 1 -3 
5392 6 0.646908 0.161333 0.0681157 -4 3 -1 
7731 5 0.920975 0.155563 0.0546472 4 -2 0 
7964 6 0.265993 0.183682 0.0407092 1 -1 -1 
8640 5 0.037518 0.233402 0.0642283 0 -4 -5 
6566 5 0.357078 0.213366 0.0530833 -2 2 -4 
5940 5 0.598219 0.223505 0.041489 0 2 -2 
8347 5 0.673504 0.237349 0.0729446 -3 -6 -2 
6938 5 0.780356 0.275849 0.0327021 3 1 1 
6843 5 0.574454 0.245471 0.0670836 -4 1 1 
8482 6 0.888082 0.329189 0.0912667 0 0 0 
7001 6 0.0886343 0.254709 0.0729772 -1 1 2 
8684 5 0.303624 0.326347 0.0630328 6 3 3 
6748 5 0.442843 0.299723 0.049237 0 -1 -2 
7627 6 0.5008 0.309837 0.0508414 5 -1 0 
7241 5 0.813759 0.347999 0.0477153 -4 -2 -3 
8036 6 0.030738 0.303719 0.0600943 -4 3 -4 
6041 6 0.282685 0.319054 0.0517216 -2 -3 -3 
5741 5 0.102347 0.348056 0.0543896 4 3 2 
5821 6 0.116483 0.386833 0.0615715 3 -1 2 
5501 6 0.361402 0.392197 0.0700107 0 -3 4 
6206 5 0.49006 0.356118 0.0647395 -1 -1 0 
5606 6 0.643166 0.406349 0.0961261 -3 2 4 
6293 5 0.93309 0.414997 0.042059 1 -2 -1 
8497 5 0.758665 0.4704 0.0393257 0 -2 0 
7406 6 0.825047 0.447139 0.0306569 -3 0 0 
8327 6 0.456066 0.498684 0.0762142 1 -5 -4 
7127 6 0.538449 0.453018 0.0370384 -2 -2 0 
6850 6 0.68472 0.455633 0.0583003 -4 -2 -1 
7854 6 0.82577 0.442842 0.0605493 -6 2 1 
7172 5 0.591781 0.515258 0.0839527 -1 -1 -4 
7903 5 0.852846 0.511528 0.0689817 1 2 1 
5971 5 0.43515 0.523103 0.0771922 -3 1 -1 
8263 5 0.677859 0.545363 0.0508583 1 -1 -1 
8625 5 0.0973627 0.575673 0.0401323 1 -2 2 
8837 5 0.877321 0.529107 0.0986194 3 -4 2 
8535 6 0.378292 0.570949 0.0500399 3 1 3 
6428 6 0.392791 0.566445 0.0435395 -1 -4 3 
8110 5 0.0169055 0.593124 0.0296528 0 1 -1 
7344 5 0.768621 0.586043 0.0191719 0 1 4 
6506 6 0.747114 0.6116 0.0310847 -1 -3 -1 
6150 6 0.162931 0.629767 0.0620087 4 6 0 
5453 6 0.517303 0.65595 0.0496151 2 -1 0 
8444 6 0.666659 0.60085 0.023947 -3 2 1 
6335 6 0.938537 0.633867 0.0573019 1 2 -1 
7186 5 0.13483 0.746765 0.0888204 0 -2 4 
6920 5 0.0788289 0.733035 0.0916445 3 4 -5 
5650 6 0.566485 0.725089 0.0550097 2 -6 1 
7133 5 0.561882 0.763279 0.0602046 -2 3 -1 
6384 5 0.404736 0.757268 0.0363922 5 -3 2 
6724 5 0.244633 0.825401 0.0772741 -2 -5 3 
5835 6 0.137295 0.844488 0.0135448 0 -1 1 
5362 6 0.204596 0.871276 0.0690336 -2 0 -3 
8260 6 0.0776865 0.869055 0.0826833 -3 -5 6 
6703 6 0.650712 0.884354 0.0690143 -4 2 0 
6655 5 0.656657 0.925904 0.0637189 3 0 2 
8382 6 0.351893 0.973267 0.0729434 -5 0 -1 
8151 6 0.464499 0.0457842 0.0771197 2 0 -3 
5864 5 0.505387 0.0853459 0.0926062 1 2 -3 
8178 6 0.72178 0.0367963 0.0875687 0 -1 -1 
8735 6 0.0206634 0.0846328 0.112396 -1 2 2 
8458 6 0.0658971 0.113804 0.0767808 5 1 3 
6403 6 0.0657826 0.0996426 0.09731 3 -2 3 
8881 6 0.494424 0.17494 0.0914597 1 -6 1 
7477 5 0.105449 0.147259 0.0969079 -3 -1 -2 
5407 6 0.327543 0.179294 0.0799746 3 0 0 
7495 6 0.513546 0.173077 0.0912983 -1 2 -3 
8381 5 0.647904 0.203249 0.0955694 -2 3 -1 
8368 6 0.114073 0.194672 0.0831776 -2 -1 1 
6684 6 0.245058 0.209522 0.0980861 8 -1 2 
7708 5 0.0228331 0.221076 0.0851835 -1 -4 1 
7587 5 0.219079 0.219494 0.0923101 1 2 2 
7141 6 0.169442 0.263224 0.0816367 -1 2 5 
7187 5 0.153617 0.234199 0.102724 4 4 1 
6733 6 0.383136 0.267832 0.109715 -3 3 -5 
7052 6 0.908424 0.245611 0.1044 2 7 4 
8678 6 0.630634 0.28344 0.0746764 4 0 3 
8017 6 0.108555 0.29887 0.0449973 1 6 0 
8194 5 0.513837 0.308153 0.0646644 -3 0 0 
8351 6 0.762999 0.293732 0.0683548 4 0 -1 
6188 6 0.293669 0.332831 0.0769784 1 -3 1 
6278 6 0.0515306 0.320301 0.0839008 1 0 3 
5571 5 0.110545 0.370387 0.0715816 1 1 -4 
5888 5 0.186867 0.39684 0.0828956 4 -2 1 
6463 6 0.399947 0.386941 0.0891593 0 0 -4 
5012 6 0.453559 0.401367 0.0810165 -3 -4 -2 
6663 6 0.665259 0.411962 0.0549461 3 0 -2 
5118 5 0.877707 0.416012 0.0580796 4 3 -1 
6727 5 0.292863 0.447522 0.100353 -4 -3 0 
6174 6 0.799254 0.447234 0.0582787 -4 -2 0 
6944 5 0.203549 0.558908 0.0203724 -1 0 1 
6003 5 0.649214 0.553996 0.0483158 -3 -1 2 
6776 6 0.154827 0.593572 0.0994683 -2 -1 1 
8181 6 0.278978 0.59046 0.0904106 3 0 -2 
5831 5 0.774867 0.616742 0.0847966 -3 1 0 
8537 6 0.231969 0.58133 0.0601549 1 -4 6 
7136 6 0.269153 0.636621 0.100516 4 -3 2 
5196 5 0.67064 0.649666 0.0984354 1 0 -3 
7007 6 0.633709 0.681509 0.111261 -4 -1 -3 
8362 6 0.782824 0.739578 0.131731 -4 0 -4 
6195 5 0.891575 0.677985 0.104234 5 -1 -2 
8348 6 0.0437779 0.742297 0.0648391 2 -1 -9 
5439 5 0.50022 0.737421 0.103022 2 -1 3 
5205 5 0.591434 0.752607 0.0540609 -1 3 4 
7580 5 0.659457 0.748499 0.106803 -1 3 -3 
7276 6 0.709984 0.731571 0.0138106 4 -2 8 
6864 6 0.99055 0.788082 0.0821794 4 0 -3 
8951 5 0.88429 0.782019 0.0849315 -3 -3 0 
7525 5 0.151704 0.825661 0.087145 1 7 -4 
5077 5 0.24699 0.851016 0.0699349 -4 -4 -1 
5377 5 0.933608 0.789661 0.0614551 -1 1 1 
5381 6 0.373047 0.851801 0.0828129 0 -3 1 
6489 5 0.904909 0.840337 0.0874185 -6 -1 -1 
6901 6 0.231312 0.903153 0.0859589 1 -1 1 
5186 5 0.447197 0.874357 0.083506 0 3 1 
8233 5 0.885681 0.960798 0.101912 -5 -8 -3 
5975 6 0.974931 0.992711 0.0555742 4 0 -2 
5448 6 0.978271 0.965915 0.082629 -6 -3 3 
8388 5 0.195462 0.0048538 0.0882907 -4 0 2 
6111 5 0.563283 0.984266 0.0480529 4 -2 6 
8214 6 0.669259 1.00166 0.104462 2 4 3 
7225 6 0.843816 0.996592 0.0970028 7 -2 -2 
7329 6 0.195925 0.0056241 0.079035 -5 0 2 
8061 6 0.0313063 0.0202182 0.123643 2 -2 1 
8596 6 0.241889 0.00624287 0.136644 -2 2 6 
5899 6 0.680653 0.0247385 0.110295 -2 -3 4 
7769 5 0.906468 0.0164528 0.111234 0 1 0 
5894 5 0.150263 0.0420876 0.0636747 -1 2 2 
5486 6 0.191012 0.0507309 0.12331 1 0 -7 
8595 5 0.0162725 0.0452669 0.124879 1 -3 -2 
5035 6 0.172185 0.127333 0.120755 -1 5 4 
7947 5 0.852773 0.0865825 0.120748 -3 -1 2 
5526 6 0.946363 0.142037 0.097104 1 1 -2 
6245 5 0.0178441 0.0959561 0.118872 4 2 -3 
8858 5 0.172657 0.123165 0.112263 4 2 1 
5994 6 0.736954 0.130862 0.094288 -2 -3 1 
5372 6 0.506654 0.152856 0.0823458 2 -4 0 
8163 6 0.721747 0.134627 0.122353 -4 1 2 
5978 6 0.0894045 0.222262 0.0803471 3 -4 -1 
7692 5 0.834937 0.204218 0.0652811 0 10 -2 
7978 6 0.461233 0.241354 0.0957112 -3 0 -4 
7917 6 0.898094 0.267812 0.113385 -6 6 -7 
8658 6 0.239097 0.268301 0.0960884 2 -3 1 
8778 6 0.158535 0.305325 0.128236 -3 1 1 
7266 6 0.227332 0.32843 0.125292 2 1 1 
6114 6 0.00668446 0.34174 0.141161 -1 5 0 
7832 5 0.197239 0.349124 0.0575002 1 6 -2 
8215 5 0.221234 0.380107 0.0701222 0 2 -3 
8410 6 0.514864 0.395677 0.120653 -2 3 -3 
5032 6 0.542878 0.396147 0.0890956 7 1 -3 
6796 6 0.545112 0.387191 0.0961554 -1 0 -4 
7207 6 0.883415 0.382056 0.0888257 -2 -5 -2 
7316 5 0.972584 0.356836 0.0921802 1 -2 0 
5241 5 0.163196 0.400173 0.141066 1 -5 7 
5695 6 0.44297 0.407869 0.130453 4 1 1 
7666 6 0.428381 0.45143 0.0776304 1 3 1 
6466 6 0.103707 0.504314 0.108664 0 -5 1 
6193 6 0.276192 0.47046 0.123726 -1 0 -4 
8469 6 0.00930286 0.502833 0.119633 -1 4 5 
5763 5 0.217981 0.482259 0.0843287 -1 0 3 
6258 6 0.256268 0.485505 0.09606 -3 -1 4 
5642 6 0.240542 0.484074 0.141725 8 -4 1 
8259 6 0.243523 0.521056 0.118505 4 1 3 
7911 5 0.814799 0.456574 0.0799747 0 2 4 
6212 6 0.872181 0.462409 0.0715468 2 1 -2 
6611 6 0.136482 0.524487 0.115003 -5 -3 5 
5286 6 0.451726 0.479578 0.0997772 0 -3 0 
8073 5 0.714468 0.54141 0.111254 -4 -1 -3 
7445 5 0.678148 0.53293 0.0393344 1 5 0 
8987 6 0.183204 0.571327 0.0975804 -3 1 5 
8954 6 0.636479 0.599829 0.100738 -1 5 -1 
7353 6 0.944742 0.609288 0.099139 0 -3 4 
8590 6 0.986069 0.599541 0.112428 4 4 0 
5527 6 0.394565 0.665159 0.0843233 -2 3 3 
7081 6 0.35735 0.647561 0.117857 -1 -5 0 
6592 6 0.414993 0.647783 0.125547 -1 3 -1 
8585 6 0.65177 0.631924 0.095369 1 4 5 
6537 6 0.0160075 0.643777 0.10159 -4 -2 6 
5745 6 0.402689 0.667578 0.124309 4 7 -2 
7737 5 0.969523 0.677743 0.0927493 -4 -1 0 
6694 5 0.206024 0.704884 0.119693 -1 2 0 
5249 6 0.249242 0.683029 0.135795 6 -6 3 
8272 5 0.291848 0.677223 0.123015 0 0 3 
8147 6 0.894308 0.693749 0.117903 3 4 2 
8001 5 1.00071 0.748589 0.0838539 0 6 3 
8936 6 0.428992 0.770018 0.120396 -2 0 4 
5522 6 0.163876 0.749008 0.109462 1 0 0 
7579 6 0.349601 0.768372 0.104222 -1 0 4 
6194 6 0.599952 0.790087 0.0930154 1 -1 1 
5980 5 0.668511 0.775662 0.121868 -5 2 -3 
7351 6 0.360838 0.828975 0.100044 -3 3 3 
8306 6 0.539629 0.775413 0.0854894 -3 -4 1 
8882 6 0.329927 0.83653 0.112184 -1 1 3 
7702 6 0.953164 0.810318 0.108384 -1 0 3 
7705 6 0.672529 0.839477 0.107832 -1 0 -2 
7790 6 0.951722 0.8231 0.0883675 -2 2 2 
5866 5 0.958448 0.843264 0.111353 1 3 -2 
8456 5 0.0343402 0.895668 0.10353 -1 0 -5 
7751 5 0.314941 0.84946 0.123057 -3 0 2 
6394 6 0.425568 0.878235 0.125673 4 -1 -3 
8698 5 0.104119 0.871903 0.123791 0 3 0 
6513 6 0.692036 0.840616 0.113746 1 1 2 
7120 6 0.860076 0.885258 0.0962554 -1 -2 5 
8500 5 0.557523 0.921337 0.0862399 0 -1 0 
8103 5 0.230168 0.966136 0.141498 -1 1 2 
8031 5 0.702744 0.942376 0.101232 2 1 4 
8985 6 0.367078 0.959369 0.0946091 2 0 0 
5719 6 0.580185 0.993925 0.110102 -1 2 -3 
7000 5 0.743804 0.967629 0.112822 1 2 4 
8542 6 0.0765727 0.0161876 0.145386 -1 3 0 
6541 5 0.31034 0.0349906 0.122966 0 -2 0 
8538 6 0.866591 0.0597496 0.0865812 -1 -3 -6 
6078 6 0.61822 0.0676419 0.146969 -2 2 -1 
6530 6 0.647807 0.0693986 0.125131 -5 -1 -2 
6533 6 0.998701 0.112386 0.165089 -2 -2 2 
5121 5 0.16669 0.122794 0.105232 6 3 4 
8236 5 0.179737 0.113412 0.170245 -3 1 1 
5521 5 0.364544 0.171388 0.15974 -1 -4 -4 
8867 5 0.625802 0.119403 0.124112 -1 0 2 
5957 5 0.0551058 0.206905 0.101186 6 1 1 
8739 5 0.667841 0.16949 0.189637 1 4 0 
8293 6 0.887702 0.170831 0.130475 2 -1 7 
7021 6 0.0939712 0.193596 0.0573062 -2 -3 4 
7352 6 0.741277 0.200157 0.156278 4 4 -1 
7766 6 0.830694 0.221753 0.112814 -3 5 -2 
8616 6 0.197787 0.219583 0.131046 -2 7 5 
7426 6 0.480628 0.211573 0.123795 1 1 1 
5220 6 0.550981 0.213019 0.104329 1 0 -5 
5496 6 0.485009 0.247281 0.114453 -6 -2 -1 
7325 5 0.685281 0.256288 0.119679 1 4 -2 
7550 6 0.818038 0.254892 0.112878 -1 2 0 
6838 6 0.929729 0.220291 0.100102 -7 -4 0 
5535 5 0.389443 0.296953 0.130543 2 -2 0 
6040 5 0.734094 0.269089 0.125687 -5 5 4 
7167 6 0.870679 0.251931 0.0858135 -3 1 2 
7263 5 0.346352 0.249326 0.135484 -1 -1 1 
6249 6 0.42169 0.281579 0.140221 -3 1 -7 
6239 5 0.556191 0.320865 0.109939 -4 -1 0 
6894 6 0.645132 0.274895 0.125299 2 -2 -1 
8636 6 0.191213 0.332086 0.123755 0 -3 2 
5034 6 0.938541 0.332059 0.128807 -2 1 0 
5466 5 0.394562 0.336473 0.128524 0 -1 4 
7458 6 0.88285 0.362196 0.13494 1 3 -1 
7696 6 0.701971 0.399008 0.156659 1 3 1 
5015 5 0.458296 0.442181 0.10527 0 2 4 
7095 6 0.620439 0.471829 0.106758 3 -8 -1 
6821 6 0.381561 0.450348 0.109779 1 -1 -2 
7890 5 0.529835 0.445453 0.125747 2 -1 -1 
8767 5 0.084283 0.485052 0.173943 -6 1 3 
6588 5 0.5354 0.491993 0.114569 0 -3 0 
5404 5 0.334899 0.450224 0.131591 7 -3 -3 
6076 6 0.280029 0.504026 0.132648 1 1 -1 
6215 6 0.947068 0.526899 0.159268 -1 -3 0 
6767 5 0.816458 0.603307 0.12085 5 1 -1 
6481 5 0.3668 0.610801 0.134694 6 1 1 
7300 5 0.455638 0.571584 0.115781 -3 0 4 
7602 6 0.873762 0.590095 0.132166 6 -3 4 
5876 6 0.290455 0.61077 0.10643 -2 -3 2 
5250 6 0.348192 0.63282 0.110223 -3 5 3 
5148 6 0.920567 0.633253 0.166461 1 -2 5 
8906 6 0.923412 0.603812 0.0947604 -2 2 5 
8604 5 0.235825 0.669168 0.137619 4 -1 -3 
8196 5 0.334904 0.679164 0.128069 1 1 0 
5303 6 0.806182 0.680414 0.143971 0 5 -4 
8696 5 0.64924 0.654146 0.128831 3 2 -2 
5036 5 0.463632 0.722282 0.119599 0 2 0 
6176 6 0.086308 0.735776 0.131513 -2 5 -1 
7796 5 0.218147 0.753751 0.121677 -3 3 -1 
5338 6 0.804336 0.769002 0.0937806 2 -5 -2 
6008 6 0.866582 0.746407 0.11247 0 -3 4 
8208 5 0.518451 0.805733 0.0973391 1 1 0 
5058 6 0.883529 0.765794 0.153811 6 0 2 
7269 5 0.0190849 0.818911 0.119791 -1 0 -1 
7106 5 0.509361 0.811831 0.159642 -5 -7 2 
8649 6 0.574951 0.793418 0.120346 -4 0 -1 
6827 5 0.541805 0.812222 0.129143 2 -3 6 
7531 5 0.995025 0.842226 0.139589 -3 -7 -1 
6782 6 0.0288281 0.842649 0.136321 3 1 5 
5645 5 0.0546789 0.882598 0.107432 1 -6 -3 
6261 6 0.785734 0.864355 0.122781 -1 1 -1 
8363 6 0.575139 0.859666 0.104948 2 0 1 
6986 6 0.681021 0.831148 0.121016 -1 5 4 
5265 5 0.0920517 0.908254 0.147434 -2 -3 -6 
8765 6 0.537508 0.897142 0.152353 0 -1 -3 
7571 6 0.571045 0.903484 0.139309 0 1 -3 
7636 6 0.97828 0.89244 0.142806 -1 1 -2 
6915 6 0.792634 0.944702 0.164519 5 6 0 
6802 6 0.836397 0.955578 0.0871343 2 2 4 
5211 5 0.64897 0.984226 0.163301 -2 -2 0 
7216 6 0.92355 0.00756392 0.106098 0 3 -1 
8008 5 0.599246 0.0702857 0.117786 1 3 6 
6244 6 0.761088 0.0939652 0.129417 2 1 4 
6491 6 0.844475 0.108971 0.137015 3 -3 5 
7384 6 0.932888 0.0496827 0.148507 1 2 -5 
8494 5 0.161084 0.102153 0.142903 2 2 -4 
6671 5 0.35003 0.104996 0.145118 -2 -1 2 
6097 5 0.232545 0.13875 0.128489 3 0 -2 
5218 6 0.937386 0.117398 0.149536 2 1 -3 
8450 5 0.598366 0.161744 0.153442 -1 -5 0 
6171 6 0.135248 0.171205 0.126024 0 -3 -4 
7599 5 0.263862 0.209598 0.170113 -4 -5 0 
8141 6 0.745925 0.194044 0.110775 5 0 0 
8115 6 0.724452 0.207597 0.173788 0 -4 2 
7008 6 0.400216 0.189494 0.157262 1 10 0 
7355 6 0.515375 0.217185 0.179225 -2 -3 -1 
5740 6 0.555708 0.217724 0.15106 2 2 1 
6454 5 0.819348 0.254809 0.09035 1 -2 0 
7679 6 0.318939 0.282132 0.173086 -2 1 4 
8383 5 0.491985 0.239526 0.177346 -1 0 3 
6536 5 0.656701 0.234699 0.149456 -1 -2 -5 
7114 5 0.861655 0.277918 0.157354 0 2 -2 
5484 6 0.144147 0.318653 0.149141 1 -1 3 
5838 6 0.184999 0.330927 0.176522 3 -4 4 
6714 6 0.464519 0.309572 0.128715 -1 3 3 
6103 6 0.778392 0.296268 0.162582 -1 -1 0 
7775 5 0.946735 0.306722 0.177203 -3 1 -3 
6100 5 0.682443 0.342777 0.134511 1 3 -1 
8574 6 0.696922 0.310234 0.203599 -2 1 -3 
8499 5 0.680718 0.354102 0.107017 0 0 2 
5177 5 0.128988 0.371459 0.179897 3 -5 3 
7330 6 0.342052 0.414747 0.167948 -1 1 3 
7421 6 0.0456392 0.423767 0.173794 -4 0 6 
8269 6 0.233286 0.449102 0.1443 1 2 1 
5482 6 0.520458 0.44637 0.130973 -3 4 3 
5602 6 0.80353 0.45439 0.101825 -3 9 4 
5301 5 0.892955 0.477644 0.139249 2 0 -3 
7655 6 0.103267 0.480859 0.147289 2 0 2 
6869 5 0.589122 0.47762 0.160361 -1 -1 6 
6062 6 0.374116 0.480064 0.142992 0 -5 2 
5706 6 0.702317 0.464928 0.128759 -2 -5 -2 
6716 5 0.834094 0.505259 0.114227 -1 1 2 
5520 6 0.502609 0.498152 0.0786904 4 -1 -2 
7476 5 0.0348633 0.520046 0.122224 2 -5 6 
8343 5 0.364457 0.53147 0.120385 4 -1 3 
7138 5 0.504601 0.54513 0.166639 0 -2 1 
8673 5 0.913946 0.530376 0.167522 -4 -1 2 
6365 5 0.395685 0.570228 0.144498 -2 -2 0 
5607 6 0.662831 0.557075 0.159485 -3 -2 -3 
5052 6 0.854313 0.595572 0.147586 -2 -7 -5 
5559 6 0.0394103 0.559385 0.144834 -1 1 -2 
7529 6 0.4873 0.548012 0.174192 -3 -3 2 
5375 6 0.537809 0.564809 0.145009 3 1 5 
5681 5 0.20934 0.605613 0.164501 2 -1 -2 
5987 5 0.413036 0.621408 0.165792 -1 1 2 
8145 5 0.554755 0.600424 0.141707 0 -3 4 
6631 5 0.702267 0.622515 0.141177 1 2 -4 
8690 6 0.185423 0.661042 0.166276 -1 -3 3 
5939 5 0.610806 0.678816 0.15039 2 0 1 
6529 6 0.79293 0.662618 0.13026 -5 3 2 
8350 6 0.854569 0.691626 0.15653 1 0 -1 
8429 5 0.738226 0.674745 0.108519 3 -4 2 
8679 6 0.802259 0.670723 0.157696 0 2 -4 
8316 6 0.938193 0.681456 0.165187 -1 -3 1 
5858 6 0.326583 0.716373 0.158187 -1 -3 -2 
6867 6 0.341354 0.765642 0.148245 1 -1 3 
5352 6 0.606481 0.706179 0.127793 -4 2 -3 
6501 5 0.175072 0.757735 0.182267 4 0 -5 
5635 5 0.146132 0.755971 0.135783 -5 0 2 
6620 5 0.486536 0.731397 0.140855 0 -6 -2 
6642 6 0.187832 0.766231 0.145849 3 -1 1 
7638 5 0.37514 0.806431 0.155495 0 5 2 
7135 6 0.395843 0.758168 0.137091 -2 1 2 
8090 5 0.68374 0.76703 0.139485 -3 -1 -2 
5562 6 0.681562 0.78881 0.154612 0 2 -1 
5455 5 0.120161 0.768055 0.138524 5 -2 0 
6267 5 0.328787 0.825024 0.167512 2 1 2 
8069 5 0.684338 0.848548 0.160992 -1 -2 3 
7179 5 0.504474 0.875386 0.122824 3 -6 -2 
7929 5 0.695416 0.831687 0.164561 -1 1 1 
8130 5 0.00760706 0.871302 0.12294 -3 0 2 
8240 6 0.0356503 0.91102 0.135362 1 1 3 
7504 6 0.811698 0.89109 0.156703 -3 -1 5 
6794 5 0.914554 0.923474 0.12653 2 -2 6 
8266 6 0.177852 0.950899 0.134796 -3 0 5 
8244 6 0.111985 0.981316 0.150148 1 4 2 
7812 5 0.60668 0.922816 0.162767 0 0 1 
6539 5 0.770446 0.958022 0.148106 -1 0 -2 
7616 5 0.0366058 0.00631478 0.164633 0 4 -1 
6208 6 0.564255 0.991966 0.129054 -1 -5 4 
8108 5 0.932753 0.982647 0.166136 -1 -1 0 
8843 6 0.464668 0.0435512 0.167355 -4 2 3 
5544 6 0.493143 0.0317309 0.156323 -5 1 -3 
7658 6 0.240091 0.0737135 0.166749 -3 0 -3 
6126 5 0.29138 0.0822764 0.148595 2 1 0 
7524 5 0.63969 0.0889656 0.185054 2 -4 5 
5664 6 0.239449 0.133679 0.210727 -1 2 -1 
5431 5 0.490982 0.115741 0.170134 1 4 2 
8890 5 0.0616878 0.11101 0.159531 1 -1 -3 
5151 5 0.972945 0.089661 0.193501 -3 -1 -1 
7861 6 0.743958 0.142315 0.152603 1 -1 0 
8943 6 0.881003 0.176496 0.172243 3 4 -1 
6803 5 0.336837 0.177945 0.184459 4 4 -5 
7418 6 0.0430019 0.238437 0.155688 0 2 0 
5071 5 0.189637 0.186159 0.155753 -4 2 -1 
8086 6 0.471976 0.17555 0.162058 0 -1 -1 
5708 5 0.746585 0.242265 0.168699 -2 2 3 
8564 5 0.654221 0.29319 0.165648 2 -1 1 
5882 6 0.88412 0.285984 0.203899 -2 -3 2 
6912 5 0.63871 0.276038 0.181495 4 -3 2 
5757 6 0.650788 0.288562 0.177965 1 -3 0 
6540 5 0.965171 0.300005 0.167081 -3 1 -2 
7940 5 0.0388452 0.260813 0.149426 -2 6 3 
8981 5 0.277935 0.307272 0.139079 -1 3 -4 
8919 5 0.483013 0.272348 0.159401 0 2 -2 
8339 5 0.818289 0.298201 0.187589 3 3 0 
7023 6 0.141446 0.308335 0.160529 -3 0 -2 
8329 6 0.432107 0.390815 0.158925 -1 -4 -3 
6243 5 0.703696 0.307685 0.138424 -1 -1 1 
5529 6 0.694241 0.339198 0.174803 -3 2 -3 
8426 6 0.78713 0.364144 0.152945 3 1 -2 
8138 5 0.368778 0.36357 0.155675 2 -2 3 
5840 5 0.368519 0.380779 0.134688 -1 4 0 
5790 5 0.503426 0.359509 0.161205 -2 -1 -1 
6427 5 0.607972 0.36517 0.16152 -4 2 -2 
7858 6 0.869984 0.398426 0.137131 0 -2 -6 
5008 6 0.0249098 0.384557 0.146607 2 2 3 
5488 6 0.0817007 0.407806 0.178591 0 -1 -3 
6178 5 0.777634 0.425865 0.170502 5 -1 5 
7057 5 0.835251 0.409611 0.158161 -1 -2 1 
7041 6 0.106595 0.414449 0.191545 -1 0 3 
8185 6 0.132659 0.420085 0.158083 1 -2 -3 
8437 5 0.99944 0.452342 0.18946 4 -1 0 
5087 6 0.666629 0.496037 0.188442 -3 5 -6 
6018 5 0.0281301 0.523425 0.13549 4 1 -6 
7642 6 0.505868 0.471591 0.161976 -2 1 -2 
5915 6 0.369931 0.567611 0.157335 0 -3 1 
5665 6 0.362233 0.586768 0.176706 2 -1 0 
5631 6 0.658161 0.635039 0.170368 -4 -4 3 
7388 6 0.113769 0.573433 0.160607 1 5 -4 
5342 5 0.509328 0.580484 0.182167 0 -1 -5 
5796 6 0.712127 0.582307 0.178014 -4 2 0 
7745 6 0.00519599 0.668796 0.161961 1 1 2 
7262 5 0.438407 0.698334 0.143371 1 -3 2 
7560 6 0.164678 0.735782 0.180151 -5 -6 -3 
5198 5 0.489775 0.704558 0.198827 -2 1 3 
8012 5 0.257454 0.723053 0.199077 2 -1 -8 
6640 6 0.653341 0.738387 0.159631 0 1 4 
8740 6 0.0642037 0.777149 0.197673 3 1 -1 
5441 5 0.284649 0.805775 0.178255 1 2 -5 
6805 5 0.690274 0.799491 0.172935 -2 6 0 
6975 6 0.871863 0.799884 0.207748 1 2 2 
6085 5 0.94544 0.759213 0.202968 0 -4 3 
8322 5 0.0882006 0.813241 0.196542 -1 3 3 
8682 6 0.495181 0.791255 0.159751 -2 1 4 
5322 5 0.843145 0.835017 0.134954 3 0 4 
7270 5 0.233414 0.839888 0.151198 5 -2 -2 
6979 5 0.492366 0.885908 0.185586 -1 0 2 
5963 6 0.746616 0.8949 0.17871 -2 -2 1 
6810 6 0.184933 0.928646 0.191516 3 1 1 
6281 6 0.5209 0.920952 0.137792 -3 -2 0 
6667 6 0.818209 0.917881 0.137106 -2 -1 0 
5696 6 0.478144 0.961505 0.193938 2 -1 -2 
6887 5 0.54685 0.972637 0.168812 3 0 -1 
5800 6 0.688348 0.925189 0.220346 0 -1 -1 
6167 6 0.0433952 0.982131 0.144102 -1 -1 1 
5988 6 0.785805 0.972086 0.180164 2 -2 6 
7757 5 0.234955 0.997276 0.201673 6 -5 -2 
7349 6 0.287532 0.959168 0.166744 -4 -3 1 
5666 6 0.462252 0.966502 0.191512 1 -1 0 
8285 6 0.227782 0.00808465 0.190568 6 3 1 
7375 5 0.299824 0.0120609 0.212045 4 -2 -4 
5297 5 0.0534004 0.0288191 0.190111 -2 1 -3 
5274 5 0.0168982 0.0887731 0.203212 0 2 -2 
7015 5 0.957472 0.0625612 0.166715 2 -2 6 
6516 6 0.910578 0.0728607 0.223846 -2 -1 -1 
7193 6 0.610647 0.140211 0.167152 -5 -5 -1 
7612 6 0.804857 0.138352 0.165312 -5 0 1 
5025 6 0.764196 0.174955 0.214241 2 6 -2 
6949 5 0.832095 0.199021 0.196732 -2 1 -3 
8203 6 0.857897 0.233922 0.206357 -4 -4 -3 
5932 5 0.61094 0.229969 0.179604 1 -1 -5 
6113 5 0.0125989 0.274819 0.172598 2 -5 1 
8142 6 0.125112 0.283547 0.209171 -1 -1 0 
6834 5 0.731266 0.270618 0.187785 1 0 -1 
8355 5 0.783203 0.270181 0.191798 -4 -1 0 
7006 6 0.757962 0.32808 0.209731 0 -4 0 
7180 5 0.863297 0.374546 0.194222 0 4 -2 
5655 5 0.872 0.362545 0.169467 2 -2 0 
7101 6 0.926235 0.341299 0.21918 1 1 -2 
6032 5 0.283403 0.395469 0.21355 2 -1 5 
7856 6 0.460677 0.431005 0.226039 1 -3 1 
6943 6 0.192917 0.414095 0.213758 -2 -2 -1 
5463 5 0.681904 0.476743 0.23844 -1 -4 1 
7170 5 0.747441 0.430666 0.214588 -2 4 1 
7684 5 0.173334 0.462495 0.165521 4 4 -1 
8246 5 0.489683 0.44549 0.227348 -2 6 0 
7346 5 0.484507 0.418227 0.198417 1 -1 -7 
6505 6 0.523987 0.432533 0.208874 2 -4 3 
5026 6 0.427376 0.498864 0.211843 2 1 0 
6921 6 0.723107 0.49804 0.201638 -5 -2 -2 
7583 5 0.913333 0.493954 0.15856 -1 3 0 
7092 5 0.0434612 0.50722 0.226452 0 -5 4 
6587 6 0.0995526 0.516599 0.182464 1 2 1 
5030 6 0.816021 0.542214 0.200469 7 0 1 
6632 6 0.624373 0.575813 0.203703 -1 1 -1 
6688 6 0.831356 0.553472 0.162616 0 3 -3 
5923 6 0.172338 0.577696 0.169797 1 3 -2 
6601 6 0.37393 0.560554 0.19025 4 2 2 
5365 5 0.314489 0.554875 0.187305 3 -2 -2 
6426 6 0.476576 0.632534 0.202926 -3 2 4 
8892 6 0.712492 0.575415 0.171938 3 -4 -4 
7444 6 0.191615 0.593742 0.191304 -5 -6 1 
8416 6 0.678692 0.614465 0.19931 -1 5 0 
7395 5 0.76234 0.595577 0.181326 -3 -1 -2 
5829 6 -0.0003502 0.630847 0.202371 3 3 1 
6412 6 0.934213 0.622508 0.197879 2 0 -3 
6830 5 0.00681259 0.647438 0.223558 1 -1 -3 
8024 5 0.172015 0.710237 0.194179 1 -4 -1 
6546 6 0.721011 0.69812 0.17404 -2 -4 -1 