ITEM: TIMESTEP
20000000
ITEM: NUMBER OF ATOMS
9000
ITEM: BOX BOUNDS pp pp pp
-75 75
-75 75
-75 75
ITEM: ATOMS id type xs ys zs ix iy iz 
8680 5 0.704493 0.00150751 0.0177137 -6 -4 1 
8427 6 0.191502 0.0356364 0.0284662 -1 1 6 
8231 5 0.253969 0.0524108 0.9864 -2 -3 -1 
6599 6 0.337566 0.0294824 0.979096 8 3 -6 
5756 6 0.894322 0.0431683 0.046222 -1 0 -2 
8721 6 0.0599886 0.110489 0.0091125 1 1 -2 
7262 6 0.122217 0.11553 0.00334401 3 2 -2 
5555 6 0.397675 0.0866828 0.99435 1 -1 0 
8875 6 0.486769 0.0853418 0.987103 2 2 0 
5088 5 0.466195 0.141201 0.0245528 5 -3 2 
6147 6 0.523637 0.15685 0.0264942 1 -2 -7 
7816 5 0.797298 0.118998 0.992781 2 -3 -1 
7960 5 0.774613 0.162457 0.0273443 -7 1 -7 
6685 6 0.143213 0.192337 0.00443387 0 -1 2 
7751 6 0.206994 0.231824 0.0545781 -3 -2 2 
6992 5 0.213467 0.212273 0.99383 -1 -2 -2 
7441 5 0.767189 0.240162 0.0320053 -1 -2 -3 
7270 6 0.887636 0.24657 0.0468256 4 1 5 
8410 6 0.901853 0.249418 0.981133 -4 2 3 
8237 5 0.287088 0.250364 0.979899 -2 1 5 
6934 5 0.812894 0.222403 0.0559241 -5 0 -3 
7252 6 0.22682 0.335225 0.0229862 -5 -2 -5 
7187 5 0.956653 0.311852 0.998257 0 4 -3 
7175 6 0.81671 0.330526 -0.000279643 1 0 0 
6047 5 0.889121 0.362409 0.0507201 -4 3 3 
7293 6 0.171357 0.420052 0.0236738 -4 1 1 
6874 5 0.543892 0.356996 0.0333278 2 -3 3 
7090 5 0.309116 0.382638 0.00805552 2 -1 1 
6836 5 0.240123 0.439511 0.0108299 -3 3 0 
8307 6 0.0534853 0.445742 0.038591 -5 5 -1 
7304 5 0.148803 0.452284 0.039684 -3 -4 -1 
5688 5 0.642112 0.431845 0.0206667 2 1 -1 
7239 5 0.059866 0.449994 0.0357095 0 3 3 
8452 6 0.717525 0.452966 0.0171378 1 1 -4 
5849 6 0.979492 0.458073 0.00193928 -1 -4 1 
8997 6 0.0636032 0.509407 0.0403793 3 -4 0 
7177 6 0.113043 0.472818 0.992937 -2 3 2 
5432 6 0.157526 0.492722 0.00786675 -1 -2 -3 
5165 6 0.667584 0.486585 0.993685 6 -1 -3 
5728 5 0.574483 0.511999 0.025246 5 -5 0 
5900 5 0.624512 0.52394 0.0219889 -3 -1 2 
5510 5 0.578673 0.516913 -0.00212897 -1 -4 4 
8935 6 0.989818 0.538848 0.993302 -3 1 -2 
6414 5 0.13613 0.569035 0.0487703 3 0 0 
6706 6 0.0385562 0.581237 0.033035 -7 -1 2 
5033 6 0.541678 0.597273 0.00670895 -1 -1 2 
7032 6 0.2857 0.629009 0.0124913 3 -2 -3 
8720 5 0.675894 0.635331 0.0430104 -2 2 -4 
7324 5 0.0436667 0.64238 0.0378254 0 -2 -2 
8926 6 0.497019 0.64445 0.0347629 0 0 1 
5386 6 0.817625 0.663831 0.0354888 -3 -2 4 
7480 5 0.316843 0.694153 0.00751598 5 1 5 
7879 5 0.39219 0.698675 0.00211011 -3 -4 5 
6092 5 0.900309 0.700691 0.973217 3 -3 -4 
7160 6 0.252308 0.737379 0.0165736 -4 -5 -3 
8252 5 0.185981 0.748944 0.0387318 -1 0 0 
5981 6 0.418666 0.814843 0.0203546 -1 5 -3 
8353 5 0.505718 0.767148 0.0397395 -2 0 6 
5776 6 0.0072933 0.750795 0.0203703 -2 -3 -2 
6605 5 0.43559 0.815181 0.00212659 0 7 3 
6959 6 0.564109 0.755555 0.0168701 0 -2 3 
6381 6 0.773161 0.771452 0.00576921 -3 -5 -1 
8464 6 0.189498 0.839767 0.0314879 -3 4 0 
8511 5 0.594807 0.857136 0.987314 -1 -5 0 
6524 6 0.648809 0.810003 0.0120482 1 0 2 
7266 5 0.170969 0.841639 0.0169347 1 2 -2 
8960 5 0.655247 0.861475 0.0291139 2 -1 4 
5574 5 0.045747 0.873613 0.988614 -1 1 0 
7230 5 0.250533 0.867685 0.00836723 -2 -5 3 
7863 5 0.490002 0.900042 0.0131052 -3 2 1 
6733 6 0.732126 0.875632 0.955328 0 -1 5 
5548 6 0.156632 0.911904 0.0361558 -3 0 0 
8562 6 0.7767 0.926301 0.0189305 0 1 1 
5779 5 0.0806884 0.895598 0.995547 0 1 -6 
5916 6 0.280576 0.936131 0.0116309 7 2 -3 
6571 6 0.759387 0.891428 0.00985069 4 0 2 
8703 5 0.133142 0.944122 0.0335548 -1 -3 1 
8523 5 0.683178 0.995163 0.985714 2 0 -1 
5310 6 0.669616 0.971959 0.0192607 -1 4 -4 
6775 6 0.0362113 0.00213321 0.0476618 1 3 -1 
8987 6 0.125282 0.99231 0.0213702 -4 -1 3 
7800 5 0.434279 0.0375259 0.0465786 5 3 2 
5370 6 0.719223 0.0551474 0.971754 0 -3 0 
5441 5 0.514981 0.0788547 0.0183634 -6 1 -1 
6969 6 0.982725 0.0884517 -0.00132459 -5 0 0 
8323 5 0.316407 0.124216 0.0148151 0 1 -4 
8855 6 0.854987 0.0823633 0.0322054 -2 -2 0 
6181 6 0.146001 0.0802061 0.0157791 -3 -2 3 
6759 5 0.566915 0.113943 0.0103446 1 0 0 
5416 5 0.942676 0.152128 0.0231831 -2 -1 2 
5044 5 0.378194 0.162105 0.0442083 -1 -1 -1 
5568 5 0.230737 0.178899 0.0286329 -7 4 0 
5853 5 0.345698 0.151762 0.0531375 2 -2 -2 
7652 6 0.396613 0.169169 0.0394049 -4 -2 2 
8958 6 0.510472 0.194283 0.0549593 -1 0 1 
6995 6 0.406071 0.196575 0.0488793 3 1 -2 
5214 5 0.178166 0.211431 0.0124788 4 3 0 
8113 5 0.272074 0.204751 0.063018 8 -4 -1 
7865 6 0.31904 0.186675 0.0526538 1 -2 -3 
8339 5 0.561769 0.239509 0.0598236 -4 -5 2 
6834 5 0.750744 0.217756 0.0301581 -6 3 7 
8247 5 0.174101 0.214884 0.0432675 0 -5 0 
6767 6 0.823873 0.207289 0.0216439 1 -2 1 
6232 6 0.0900208 0.299286 0.0453218 0 0 6 
5474 5 0.269066 0.22703 0.0360077 1 1 6 
8348 5 0.224679 0.313265 0.0104986 2 -3 -5 
8568 5 0.583655 0.315883 0.018323 1 2 1 
5718 6 0.125222 0.31061 0.0507277 4 -6 -4 
8166 5 0.996155 0.338374 0.0630636 -5 2 3 
8093 6 0.215186 0.352178 0.0544369 2 -1 -4 
7545 5 0.0752149 0.296683 0.0380077 4 4 -1 
6854 6 0.369483 0.33082 0.01949 0 4 3 
6024 5 0.834929 0.363649 0.0619389 -4 -3 2 
5872 5 0.215533 0.374089 0.0522217 5 -5 -1 
8865 6 0.575197 0.404766 0.0367884 -1 -3 4 
8951 5 0.773832 0.403779 0.0231544 0 -2 4 
7297 5 0.88311 0.418459 0.0270252 2 -1 5 
8300 5 0.90062 0.375509 0.00986325 -7 4 3 
7064 5 0.237786 0.41621 0.0493775 -2 -3 4 
5763 5 0.429826 0.432746 0.0378274 -1 -2 3 
5805 5 0.562325 0.396959 0.0504706 -3 2 2 
5654 5 0.528372 0.43612 0.983693 -1 0 -4 
6579 5 0.526013 0.431551 0.0388627 1 2 -4 
5955 5 0.713871 0.445011 0.0314163 2 4 -3 
7771 6 0.788341 0.448529 0.058371 4 5 -4 
9000 5 0.317118 0.466649 0.0067544 2 3 -2 
7707 5 0.489452 0.457132 0.069244 3 0 -1 
7791 6 0.518144 0.463764 0.00781918 2 -4 1 
5380 6 0.751828 0.483325 0.0412648 -3 -2 -2 
8898 5 0.852243 0.424364 0.0334196 0 -3 -3 
6760 6 0.267678 0.487403 0.0250517 -2 3 0 
8844 5 0.429307 0.516782 0.0869779 -1 3 -4 
5453 5 0.908489 0.506747 0.0792007 6 -1 3 
6609 5 0.920259 0.538554 0.998677 0 1 3 
8910 5 0.656107 0.541877 0.0730205 3 -1 0 
7091 6 0.584916 0.534771 0.0423942 -5 2 2 
7874 5 0.975438 0.549543 0.0403166 3 0 3 
5608 6 0.122784 0.602015 0.045351 -2 -2 4 
7307 6 0.0268882 0.588719 0.048504 -1 -5 1 
6808 6 0.680875 0.623995 0.0462331 -3 0 0 
6443 5 0.753204 0.637189 0.0420198 -2 0 2 
5495 5 0.809978 0.600068 0.0754471 -1 -2 3 
6895 6 0.256545 0.624692 0.0627936 0 7 -3 
7425 6 0.911424 0.659504 0.0501524 -3 3 3 
5650 6 0.0435549 0.69551 0.0451443 -6 4 3 
6600 6 0.715352 0.724546 0.0253734 -1 -2 -1 
6898 5 0.896799 0.705785 0.0435528 1 0 -3 
6318 5 0.307973 0.71477 0.0531146 -1 3 1 
6963 6 0.336163 0.792498 0.00218047 1 0 -3 
8660 6 0.631691 0.739796 0.0145777 -5 2 -4 
7466 5 0.361924 0.75873 0.0171926 2 3 -3 
8625 6 0.418509 0.771682 0.0316111 2 0 -3 
8724 5 0.234232 0.786073 0.0500478 -2 -3 2 
8556 6 0.0223255 0.815428 0.0271424 3 -2 1 
8785 5 0.0842624 0.828898 0.0383788 3 1 0 
6138 5 0.312229 0.870369 0.048504 2 3 -3 
5557 6 0.348693 0.835995 1.00317 -2 9 -1 
8945 6 0.456348 0.90465 0.0390089 -3 -1 3 
5952 6 0.311993 0.885441 -0.00332482 -2 -1 -1 
6536 6 0.0198294 0.905305 0.0172581 6 -1 0 
5480 6 0.315552 0.953036 0.0300169 -3 -3 0 
5202 5 0.344545 0.891668 0.00851982 3 1 4 
5800 5 0.996777 0.928032 0.0225185 1 0 -1 
8384 5 0.00256339 0.937014 0.0493369 -1 2 -5 
8095 5 0.794969 0.938494 0.0448383 1 2 1 
8178 5 0.777525 0.894635 0.0531999 -2 -2 -2 
8019 5 0.871675 0.95611 0.0556314 0 1 0 
8779 6 0.0852864 0.0246851 0.0688453 -4 1 -3 
7045 6 0.152898 0.00661996 0.0766588 -5 -1 2 
5489 6 0.487477 0.0347567 0.078889 -3 3 -2 
7912 6 0.783999 0.00853278 0.0437384 -1 3 -2 
8060 6 0.737425 0.08803 0.0662635 2 -1 0 
7424 6 0.491915 0.145564 0.0739109 -4 -5 0 
7910 5 0.946275 0.0882306 0.0325981 -7 8 -4 
5029 5 0.182258 0.106577 0.0747368 0 6 -2 
7234 6 0.291747 0.111962 0.0580183 -1 -1 -1 
7301 5 0.346308 0.150824 0.040179 -2 3 0 
8613 5 0.960629 0.126844 0.0917142 0 -1 -2 
6390 5 0.356366 0.154368 0.0476355 2 1 -1 
6479 6 0.45859 0.1569 0.0840226 2 -4 1 
8541 6 0.536465 0.206424 0.0668749 -1 2 -4 
6905 5 0.991095 0.314791 0.0630889 -1 0 -2 
5612 6 0.529466 0.266207 0.0695666 -1 2 0 
6365 5 0.624444 0.252212 0.0198433 3 3 -1 
8282 5 0.840774 0.282002 0.028595 5 -2 -3 
6866 5 0.400235 0.341995 0.0648818 -1 -4 0 
8857 5 0.619397 0.33991 0.0413395 -2 2 5 
6644 5 0.847013 0.361571 0.0744247 1 0 1 
6282 6 0.0762845 0.302807 0.0471075 0 -1 -1 
7212 6 0.556104 0.365824 0.0428466 2 -3 5 
8069 6 0.936083 0.375601 0.0829248 1 1 -2 
8646 6 0.250298 0.363124 0.0146025 -2 -4 -4 
5298 6 0.0273872 0.440089 0.0768856 -6 -3 0 
8354 6 0.713977 0.433141 0.0461211 -2 1 6 
7900 6 0.266204 0.465331 0.0472 -1 0 2 
8188 5 0.519065 0.459995 0.0382223 4 5 5 
6741 5 0.442298 0.526855 0.0482146 1 -1 3 
8040 5 0.127413 0.536348 0.0643485 -3 1 5 
6940 5 0.296431 0.545077 0.0559671 -1 -4 2 
6594 5 0.837602 0.5587 0.0377792 -1 2 5 
7581 6 0.047959 0.5659 0.0727953 -1 0 -4 
7395 5 0.410829 0.579366 0.00565689 -1 2 3 
5232 5 0.0771207 0.602799 0.108605 -2 5 7 
8510 6 0.13035 0.639582 0.0306316 -1 2 4 
8814 5 0.237086 0.648025 0.0569705 -2 1 1 
6475 6 0.435473 0.625422 0.0701573 -1 -2 2 
7249 6 0.74337 0.595999 0.070098 1 -4 -2 
5666 6 0.260781 0.608692 0.0721237 0 -2 4 
6465 6 0.635972 0.649303 0.0758011 6 0 5 
5105 6 0.782617 0.631525 0.0737142 0 -4 0 
5764 6 0.0737848 0.669964 0.0396605 0 -2 1 
8533 6 0.879692 0.693082 0.0729718 -2 0 0 
5810 5 0.344972 0.704308 0.054484 -2 2 -2 
6950 5 0.793039 0.657041 0.110264 1 0 2 
6187 5 0.192166 0.715488 0.0376729 -5 7 -1 
6249 5 0.545139 0.732589 0.0858598 -1 -4 3 
8537 6 0.140986 0.71607 0.0412754 1 -1 1 
6204 5 0.972544 0.746314 0.0445478 -5 1 6 
7485 6 0.728569 0.776529 0.0317802 0 1 6 
7479 5 0.733607 0.764336 0.0889137 -1 1 0 
6178 5 0.741915 0.748704 0.0352765 0 -2 5 
6643 6 0.392715 0.761104 0.0745133 1 -2 6 
6746 5 0.502422 0.775742 0.0552334 -2 1 -1 
5197 6 0.223359 0.834963 0.0799999 -2 0 4 
7539 5 0.320613 0.802349 0.0533606 1 3 4 
5831 5 0.246963 0.825172 0.0731153 -1 0 1 
6652 6 0.56851 0.85642 0.0185247 4 -2 1 
5336 5 0.723375 0.858691 0.082984 0 -1 1 
7842 6 0.0957299 0.888317 0.0601148 2 2 0 
7755 5 0.528315 0.921204 0.0697776 0 0 0 
6205 5 0.879599 0.844645 0.0598178 -1 -8 2 
6121 5 0.0501994 0.875949 0.0354098 2 -2 -5 
8497 6 0.154838 0.913814 0.0611499 2 -1 -2 
5888 6 0.581929 0.880708 0.0835677 -4 3 -5 
5850 5 0.766403 0.890073 0.0502825 -1 2 -4 
8233 5 0.839616 0.919473 0.0907102 -2 -3 1 
8064 6 0.916787 0.875198 0.0379225 1 -4 -1 
7129 5 0.700381 0.919344 0.0647685 0 0 0 
8825 6 0.91949 0.884208 0.0696642 0 1 5 
8468 6 0.0329934 0.952547 0.0836292 4 -1 -2 
5005 6 0.340094 0.925067 0.0923033 4 2 -2 
8196 5 0.395014 0.947226 0.0210854 2 -1 -3 
5614 5 0.32143 0.990695 0.0824878 2 0 -3 
7029 6 0.341302 0.0101317 0.0573816 -1 2 3 
7902 6 0.941092 0.97867 0.0726108 -1 1 -4 
7926 5 0.501099 0.016813 0.087334 -2 0 4 
5871 5 0.64192 0.0435576 0.0610949 9 5 1 
6490 6 0.688179 0.102883 0.0852401 2 4 -1 
6875 5 0.947242 0.0602766 0.0886009 -2 6 4 
6947 5 0.772189 0.0502454 0.0476902 3 0 -2 
5706 6 0.417289 0.113507 0.0727721 0 -3 0 
8084 5 0.672784 0.10212 0.0495063 3 1 1 
6630 6 0.99036 0.112052 0.0930195 -2 1 1 
5577 6 0.885221 0.125968 0.0878946 -1 2 1 
5308 5 0.259797 0.145903 0.0886951 2 -3 2 
8944 6 0.39067 0.140841 0.0168077 -2 -3 1 
5968 6 0.882378 0.143206 0.0685922 -4 8 -1 
6084 6 0.0829307 0.128859 0.0425373 0 5 -1 
6672 5 0.835271 0.140978 0.0806014 3 1 4 
6283 5 0.917826 0.199085 0.0735511 -5 -1 3 
7216 6 0.232313 0.220353 0.0747908 -1 2 1 
6949 5 0.6701 0.224468 0.0836908 2 6 2 
7685 5 0.975535 0.243417 0.0578109 -1 4 1 
7750 5 0.103267 0.228095 0.065196 3 -5 1 
6752 6 0.47017 0.313625 0.0610124 -2 0 5 
6383 6 0.198227 0.334577 0.0736296 2 4 2 
7268 6 0.670674 0.298399 0.0192745 2 0 -2 
5465 6 0.953039 0.28717 0.0841848 -3 2 4 
5024 5 0.139665 0.324892 0.104072 0 3 0 
6287 6 0.409539 0.333334 0.1083 -2 2 4 
8318 6 0.616885 0.309459 0.073076 0 1 1 
7959 5 0.730488 0.36981 0.0881311 -1 5 0 
7580 6 0.839578 0.368981 0.113148 -2 -6 -1 
6387 6 0.969631 0.333674 0.0794528 -1 2 -1 
7327 6 0.228521 0.379322 0.0901215 2 0 1 
7650 5 0.512067 0.344357 0.101641 1 3 7 
5588 5 0.856495 0.378147 0.0842051 0 3 -2 
5528 6 0.900114 0.323169 0.0930913 -1 0 0 
8839 5 0.572363 0.328922 0.0536367 4 1 -1 
6835 6 0.906176 0.437071 0.0721482 1 0 6 
5081 6 0.938608 0.427758 0.081184 -3 1 0 
6026 5 0.393337 0.467086 0.0835056 -1 4 -2 
5582 5 0.361203 0.457758 0.0723379 0 9 0 
8053 6 0.347463 0.492557 0.07901 3 3 -4 
7170 5 0.587059 0.451599 0.0690498 3 -3 -1 
5290 5 -0.00116317 0.505999 0.0487221 1 1 -1 
8037 6 0.0667534 0.532078 0.0926138 1 2 -3 
5559 5 0.37254 0.562535 0.0905114 0 4 -2 
6793 5 0.672883 0.570838 0.0786864 1 -1 1 
5181 6 0.809186 0.596101 0.0903863 2 -3 10 
5300 6 0.0163806 0.632232 0.11857 -5 -1 2 
7661 5 0.00425554 0.624522 0.0627166 5 -3 0 
8517 5 0.561966 0.621684 0.10323 5 4 2 
7684 5 0.796554 0.587794 0.0681534 -2 -1 -1 
6115 6 0.862158 0.630488 0.0973058 -2 0 1 
5729 5 0.965604 0.646836 0.125602 0 -2 2 
6371 5 0.382599 0.63002 0.0660231 0 -2 -1 
7611 5 0.358651 0.65449 0.0836401 -4 1 -1 
6268 5 0.830447 0.680659 0.0859592 -3 3 2 
6966 5 0.0839119 0.694291 0.0629013 -1 -3 2 
8366 6 0.192706 0.721688 0.0824069 4 -2 0 
8992 6 0.162603 0.751009 0.0755272 2 -2 4 
6945 5 0.745909 0.758334 0.0571325 3 -2 -1 
7044 5 0.739418 0.755084 0.0864989 0 0 3 
7839 6 0.0736991 0.760365 0.100039 -3 -6 2 
6657 6 0.451919 0.828154 0.108603 -3 -4 -2 
6481 5 0.730489 0.786179 0.082686 -4 -4 -2 
8408 5 0.712238 0.844464 0.0937418 1 -8 -4 
5859 6 0.71117 0.85025 0.059187 -3 4 3 
5487 5 0.945787 0.910092 0.0670427 -1 -3 -2 
5241 5 0.977196 0.848712 0.0965882 -3 -6 -4 
8026 5 0.207459 0.875129 0.0714242 -3 1 7 
8808 6 0.402603 0.852358 0.0510802 0 2 1 
8609 6 0.523121 0.868927 0.0954983 2 -4 -2 
5760 5 0.223039 0.915117 0.0895394 0 -3 3 
8401 5 0.651795 0.936503 0.0897719 -2 3 -4 
7723 5 0.651404 -0.000522807 0.0780452 4 2 -1 
8793 6 0.746098 0.0129376 0.0813109 -3 8 1 
8261 6 0.621871 0.994104 0.08783 -2 4 -2 
6582 5 0.857333 0.0174876 0.0844842 3 1 -1 
7758 5 0.94927 0.0271719 0.0902366 2 8 1 
6967 6 0.14373 0.0523074 0.104688 -1 -4 1 
5159 5 0.463889 0.996821 0.0169934 3 4 -3 
5881 6 0.720409 0.0550516 0.0805159 -4 0 0 
5777 6 0.182288 0.0398194 0.0856478 -6 -2 0 
8931 5 0.374082 0.167538 0.0961577 3 2 -3 
5486 6 0.312888 0.133333 0.101035 -1 -3 -3 
7858 5 0.0249224 0.166149 0.148773 4 3 0 
8823 6 0.907217 0.162065 0.152928 -2 -2 0 
7338 6 0.143257 0.153526 0.12496 -1 -3 0 
7914 6 0.112113 0.186266 0.0895195 0 -3 -2 
5645 6 0.156779 0.177372 0.124074 1 -4 -6 
8065 6 0.535647 0.186721 0.103206 4 4 0 
6226 5 0.952311 0.153554 0.0542912 1 -3 1 
7455 5 0.440057 0.237749 0.0743092 -2 -1 -1 
6131 6 0.752017 0.249958 0.0908913 -2 2 0 
6161 6 0.792943 0.231765 0.10706 -2 -1 3 
6537 5 0.940628 0.230673 0.0959392 -1 -2 1 
7682 5 0.603617 0.291629 0.103688 1 -1 0 
7700 5 0.604852 0.311994 0.110461 0 -3 -2 
5549 5 0.791429 0.312296 0.103969 2 -1 -3 
6678 6 0.212834 0.304296 0.136935 1 3 -2 
8477 5 0.321329 0.292895 0.100727 1 -1 -4 
6674 6 0.407962 0.32722 0.0704588 -3 1 2 
7240 5 0.584851 0.336844 0.129645 4 -1 3 
7987 6 0.153386 0.382464 0.131201 0 4 0 
7753 6 0.820525 0.330281 0.0929563 -2 -3 0 
6096 6 0.121922 0.367509 0.0909056 -3 2 1 
6495 5 0.749323 0.412664 0.0643313 -4 4 3 
8248 5 0.413288 0.448279 0.107977 -1 -5 0 
8224 5 0.0483758 0.469521 0.116123 1 -3 -4 
7651 6 0.230037 0.482468 0.100169 1 2 1 
6897 6 0.293227 0.409923 0.122961 6 1 -2 
5188 6 0.280491 0.438169 0.113291 2 -2 -2 
7342 6 0.405377 0.469421 0.134661 3 -8 2 
8152 6 0.319409 0.506428 0.100464 0 -1 1 
5014 6 0.471142 0.478417 0.124291 -4 2 1 
6043 6 0.0347562 0.483401 0.0962112 0 -1 1 
6795 5 0.587659 0.505354 0.0617534 0 -1 2 
6444 6 0.724785 0.533288 0.0643334 -1 -2 -5 
8777 6 0.842696 0.529998 0.0932423 -1 1 -1 
7864 6 0.24491 0.54498 0.0938295 -2 -4 7 
7814 6 0.888233 0.589365 0.1081 2 3 -3 
7866 6 0.530763 0.610519 0.0801375 -3 -4 4 
7905 5 0.754284 0.623613 0.0912714 1 -1 1 
5051 6 0.174362 0.640695 0.083049 -1 -1 -2 
8871 5 0.530217 0.646228 0.119318 -2 2 0 
5689 6 0.559781 0.664825 0.087915 -3 -2 6 
8106 5 0.968019 0.645759 0.0807665 0 2 1 
8977 5 0.797057 0.665027 0.120276 -3 4 2 
6073 5 0.621912 0.712087 0.104731 -5 -3 1 
6417 6 0.291345 0.732614 0.118957 3 0 2 
8697 6 0.469852 0.76206 0.110075 0 0 -1 
8238 6 0.570698 0.748389 0.1161 -3 -1 2 
7351 5 0.122408 0.808741 0.131064 2 -1 1 
6883 5 0.266215 0.823007 0.134198 0 1 2 
6587 5 0.307981 0.782158 0.126325 1 -3 1 
5855 6 0.50987 0.780691 0.101563 1 -3 1 
5962 6 0.612672 0.808727 0.104732 -3 -3 2 
8115 6 0.0548036 0.792562 0.0535494 2 0 -1 
5315 6 0.399204 0.85038 0.102864 8 2 0 
6456 5 0.438826 0.824911 0.0998522 0 -7 -1 
7597 5 0.521127 0.839923 0.123951 3 -4 -3 
5944 5 0.884303 0.820801 0.0629936 -2 0 2 
8633 6 0.497679 0.848433 0.0685339 3 2 4 
8288 6 0.550058 0.820081 0.0765303 7 3 2 
5208 6 0.189528 0.882581 0.128434 -3 3 1 
7907 5 0.626093 0.928267 0.0694876 -3 3 5 
8213 6 0.76013 0.932206 0.110638 2 -5 0 
6661 5 0.883688 0.952525 0.142701 1 1 -2 
6765 5 0.256357 0.927987 0.057619 0 -1 1 
8212 6 0.581099 0.962168 0.109014 -2 0 1 
6333 6 0.307099 0.00930563 0.0764563 0 3 -1 
6099 5 0.446623 0.950712 0.0913916 1 -1 4 
8878 6 0.573544 0.00396052 0.111852 4 4 -2 
7691 6 0.503094 0.99692 0.0805833 1 1 -1 
6034 5 0.579117 0.972596 0.0693454 4 3 0 
7754 6 0.0510838 0.973871 0.144213 -1 -2 -3 
8200 5 0.811498 0.043088 0.0981077 -3 -3 3 
8219 6 0.0443797 0.104563 0.157497 -3 4 2 
6761 5 0.875835 0.0744091 0.142093 1 4 -6 
8635 6 0.524417 0.104918 0.157791 -2 -2 -9 
6236 5 0.655038 0.104206 0.154697 1 -1 5 
7071 6 0.897588 0.129703 0.0978437 -1 2 0 
5923 5 0.893176 0.0783662 0.158616 -3 0 -2 
6641 6 0.163173 0.106164 0.125716 -2 0 2 
5975 6 0.219788 0.164027 0.12205 0 1 -3 
5842 6 0.787377 0.111718 0.152815 4 2 2 
6888 5 0.151928 0.149846 0.128769 0 -1 1 
7046 6 0.257909 0.167879 0.151386 1 0 2 
5464 6 0.398651 0.174259 0.166251 2 -2 -2 
8048 5 0.822972 0.133696 0.0892081 4 3 3 
5473 5 0.304598 0.17177 0.114058 4 -1 -3 
7683 6 0.337303 0.186833 0.163193 -1 3 -1 
7536 6 0.303828 0.218149 0.129756 -1 0 2 
5172 6 0.413749 0.188226 0.112927 -2 1 1 
5874 6 0.789313 0.17774 0.159786 0 3 0 
8319 5 0.907324 0.198472 0.165526 3 3 1 
7460 6 0.354282 0.200482 0.125873 -1 -1 0 
7274 6 0.0684358 0.235086 0.144024 5 3 -4 
5738 6 0.033973 0.214139 0.113898 -1 0 -4 
5339 6 0.203747 0.212965 0.147269 3 3 -2 
8226 5 0.266177 0.232824 0.15218 5 1 2 
5882 5 0.449262 0.287107 0.120638 4 0 2 
8269 5 0.533199 0.247116 0.154267 -1 5 0 
6956 6 0.916312 0.309587 0.139132 5 -2 1 
5560 6 0.899189 0.30113 0.102096 -1 -2 -3 
6704 6 0.945049 0.341069 0.141802 2 2 3 
8771 5 0.924278 0.376856 0.127451 1 4 -6 
8052 6 0.93579 0.387289 0.127615 -1 4 2 
5943 6 0.210633 0.390603 0.138291 -4 4 3 
8847 6 0.538009 0.394231 0.141633 0 -2 -2 
8297 6 0.0571446 0.47341 0.132317 -1 2 -2 
6751 6 0.728737 0.367468 0.118187 -1 -2 1 
7887 5 0.868342 0.390112 0.0923901 0 1 -2 
6407 5 0.136026 0.455619 0.147473 1 1 0 
6113 5 0.609255 0.462181 0.116656 2 2 3 
7411 5 0.134856 0.465225 0.12494 0 1 -2 
8344 6 0.222598 0.453499 0.13952 4 -1 5 
8277 5 0.934085 0.519751 0.0919825 1 -1 1 
6250 5 0.034913 0.504405 0.105732 0 6 2 
7396 5 0.531349 0.494785 0.12499 -1 2 -1 
7915 6 0.565108 0.477385 0.107098 -2 0 2 
8915 5 0.823763 0.502624 0.168635 -8 0 -1 
5055 5 0.884847 0.490873 0.0830828 1 1 2 
7520 5 0.271837 0.557715 0.126031 5 -1 3 
5174 6 0.80538 0.523611 0.117101 4 0 4 
8911 6 0.085129 0.524354 0.115363 0 1 3 
7366 5 1 0.523872 0.115561 -4 -3 1 
7253 6 0.0686327 0.571941 0.110253 -3 1 4 
5903 6 0.137654 0.543575 0.126843 -3 4 2 
5039 6 0.588324 0.522274 0.076512 -2 5 1 
7392 6 0.94938 0.513705 0.130385 -3 2 2 
8927 6 0.225475 0.546445 0.129533 7 0 3 
8642 6 0.299975 0.545679 0.162513 -4 5 -1 
7363 6 0.370423 0.554343 0.0692256 1 2 4 
5108 6 0.496505 0.580944 0.139976 4 -6 -2 
5237 6 0.746494 0.536502 0.0961234 1 0 4 
8094 5 0.634744 0.602481 0.118656 0 -1 -4 
7572 6 0.82099 0.584519 0.0722272 -1 1 2 
7622 6 0.0549373 0.608973 0.121348 4 -2 -3 
5558 6 0.473591 0.593039 0.141688 -1 -2 3 
6915 5 0.0995408 0.661265 0.131887 -4 -1 -2 
6504 6 0.441422 0.647791 0.148479 2 -2 3 
8717 5 0.378741 0.640825 0.129479 6 2 2 
7963 5 0.641031 0.677494 0.121158 5 0 1 
5924 6 0.127926 0.728334 0.161204 0 4 6 
5956 6 0.596119 0.695493 0.107679 2 0 5 
5107 6 0.80274 0.670095 0.141731 4 1 4 
5605 5 0.298017 0.717613 0.107994 -2 -2 4 
8316 6 0.698341 0.729364 0.11719 4 3 2 
7925 5 0.985974 0.726501 0.135194 0 0 2 
8851 5 0.0955964 0.725584 0.108683 -1 1 0 
5866 6 0.29369 0.789322 0.156026 -2 4 1 
8973 6 0.908096 0.791863 0.122309 -1 -1 3 
5297 6 0.302571 0.828747 0.124422 -3 8 3 
6499 5 0.331547 0.796168 0.115896 3 -1 5 
6545 6 0.272098 0.834056 0.150105 2 -3 2 
8782 6 0.341964 0.863786 0.0764103 -1 0 0 
7859 6 0.616202 0.883242 0.139745 1 0 0 
5661 6 0.672545 0.895006 0.132758 -2 -2 2 
5847 6 0.489374 0.905854 0.0869557 -5 2 -3 
6074 6 0.705189 0.953984 0.107859 -8 2 8 
8369 5 0.903002 0.916872 0.140678 3 1 -4 
7515 5 0.66694 0.0126995 0.126157 -2 1 2 
7137 5 0.866449 0.960491 0.0940891 0 -5 0 
7486 5 0.935043 0.00535802 0.137803 3 3 1 
5514 5 0.0907657 0.0304094 0.0838278 1 3 5 
8518 6 0.511798 0.0198514 0.173956 5 1 1 
7716 5 0.517142 0.0174377 0.150847 1 -4 2 
7763 6 0.589417 0.986523 0.150583 1 -3 2 
7334 6 0.945701 0.0175926 0.110586 1 -5 0 
8811 6 0.263288 0.019896 0.168825 4 0 3 
6976 6 0.888009 0.0159821 0.155531 1 0 4 
5662 6 0.648993 0.0704169 0.149996 -3 4 0 
8972 6 0.406896 0.0275236 0.150313 4 4 -2 
5242 5 0.677177 0.0458859 0.128176 0 -1 -3 
6360 5 0.751286 0.065832 0.154388 -2 0 0 
8312 5 0.158616 0.0824572 0.178852 -2 -1 1 
7349 6 0.274458 0.0822568 0.173774 2 -2 3 
5470 6 0.286419 0.127424 0.139555 1 5 1 
6075 6 0.563291 0.110173 0.168188 2 -3 -2 
5112 6 0.868474 0.186569 0.161071 4 3 2 
5438 6 0.602657 0.201644 0.151418 -1 1 1 
8267 6 0.0465065 0.212724 0.133998 -5 0 2 
8832 6 0.147358 0.235293 0.171825 -2 -2 3 
5769 6 0.276847 0.200976 0.130392 6 2 -3 
7882 5 0.329445 0.202501 0.130406 -2 -6 -2 
7412 6 0.320706 0.235111 0.159729 4 1 -1 
6586 5 0.467938 0.293428 0.171121 -1 -5 6 
7134 5 0.339454 0.287904 0.150255 -2 5 -4 
5195 5 0.735184 0.292356 0.143423 3 1 -1 
5626 6 0.442627 0.324693 0.152183 1 1 2 
8453 6 0.660272 0.27342 0.130894 1 0 5 
8713 5 0.109955 0.319906 0.167834 -1 -3 0 
7180 6 0.977949 0.360134 0.14254 -2 6 0 
6955 6 0.710785 0.358006 0.113124 -6 1 4 
6422 5 0.770795 0.368041 0.165109 -3 0 -1 
6830 6 0.17105 0.423389 0.121984 -2 5 -5 
5351 6 0.29221 0.383813 0.129963 -2 -6 3 
5404 5 0.345519 0.415418 0.158899 1 3 -1 
7764 6 0.456515 0.413488 0.133236 2 4 -3 
8618 5 0.724761 0.414607 0.157747 -1 -3 -2 
7559 5 0.222579 0.433247 0.134527 -2 0 -3 
8341 6 0.717513 0.453459 0.139517 0 1 -3 
8067 5 0.656449 0.398434 0.147869 2 0 5 
6584 5 0.357157 0.496992 0.17065 -2 1 -3 
6276 5 0.159514 0.498286 0.135689 -1 0 -9 
5457 5 0.20035 0.525881 0.140561 1 -1 2 
6666 6 0.956832 0.501735 0.149307 -1 3 5 
8726 6 0.191878 0.53522 0.14946 -1 -4 -4 
8955 5 0.400883 0.520785 0.135061 -1 -1 3 
8075 5 0.713769 0.543944 0.157498 -2 2 1 
5163 6 0.116982 0.597258 0.143379 -5 -2 -2 
6725 5 0.252605 0.551867 0.128487 2 2 -2 
5433 5 0.187464 0.644587 0.100262 2 -3 -1 
5862 5 0.953229 0.656906 0.167535 0 -6 -5 
6837 6 0.0218081 0.700192 0.147286 3 4 -3 
6120 5 0.0276434 0.648208 0.149716 -1 -1 2 
6269 5 0.0692393 0.661204 0.158169 0 7 -1 
5375 6 0.517574 0.661307 0.145032 3 3 1 
6214 6 0.679827 0.608561 0.136824 5 -3 0 
5969 6 0.616904 0.720323 0.180595 3 1 -1 
7020 6 0.816418 0.704804 0.159774 1 1 -1 
5716 6 0.0958231 0.701101 0.110051 0 1 -3 
8919 5 0.469867 0.713361 0.152806 3 -1 -6 
8096 5 0.0774389 0.795096 0.159721 3 -3 -1 
7122 6 0.233757 0.749487 0.117385 5 -3 -6 
6078 6 0.113029 0.802295 0.140405 3 -2 1 
8709 5 0.115678 0.825557 0.176347 -5 -1 1 
8179 6 0.318079 0.771904 0.131837 -5 -3 1 
8600 6 0.356084 0.779456 0.131484 2 -5 -2 
5834 6 0.533373 0.792202 0.144011 1 1 -5 
8585 6 0.17725 0.819615 0.146816 -2 -2 -4 
6344 5 0.236421 0.768946 0.1646 3 2 7 
6650 5 0.644114 0.827824 0.125375 -2 7 1 
6325 6 0.707233 0.826483 0.15312 -5 -5 -7 
8538 5 0.90855 0.829226 0.15285 -3 1 2 
8657 6 0.748364 0.841463 0.155364 -3 -1 4 
7052 5 0.982128 0.906665 0.171864 1 -5 -4 
6197 6 0.580162 0.845925 0.140207 5 -4 3 
6593 6 0.728376 0.888388 0.143846 4 3 -1 
6856 6 0.743373 0.879422 0.123394 -4 -1 2 
6240 5 0.953954 0.899538 0.160957 -4 -3 3 
8826 6 0.0358253 0.953684 0.144836 2 3 4 
7982 6 0.41508 0.937699 0.137798 1 2 -2 
7038 6 0.700183 0.984308 0.180007 5 -2 -1 
5468 5 0.854574 0.973167 0.190086 -3 1 4 
6690 6 0.0134717 0.00305105 0.184894 3 -3 2 
5065 6 0.434205 0.961282 0.126213 2 -2 -6 
6655 6 0.85972 0.928913 0.122774 -3 1 -1 
5773 6 0.824846 0.0295721 0.167525 -2 -2 -4 
8545 6 0.163994 0.0441122 0.220154 2 0 1 
8702 5 0.705609 0.0593406 0.173862 -2 5 2 
8291 5 0.411629 0.0746391 0.175391 2 2 2 
8983 6 0.48616 0.121779 0.15173 2 4 0 
6346 5 0.59986 0.0443432 0.194783 0 5 1 
8664 5 0.0417806 0.101136 0.171196 4 1 1 
5974 6 0.133665 0.111528 0.143767 2 -3 -3 
6565 6 0.567288 0.0962993 0.162953 -3 3 7 
5657 6 0.760226 0.101898 0.15892 1 1 -4 
5972 6 0.808032 0.104082 0.153041 3 -5 0 
8739 6 0.726274 0.142791 0.211271 -1 4 -1 
8002 6 0.782684 0.17036 0.115525 -2 1 -1 
5034 5 0.811023 0.153488 0.141479 0 -4 -1 
6366 6 0.96572 0.129261 0.213315 1 1 4 
8376 6 0.262332 0.148873 0.16545 0 0 1 
7127 6 0.292445 0.191753 0.147591 0 -2 0 
5035 5 0.369631 0.229171 0.160459 -2 -3 -2 
7002 6 0.0941164 0.245114 0.169009 -2 -2 -3 
5690 6 0.107877 0.225086 0.160423 3 7 2 
6439 6 0.220337 0.259393 0.199923 -1 3 4 
8449 6 0.293775 0.268611 0.168196 2 1 -6 
5087 5 0.775306 0.257132 0.198501 -2 1 0 
8250 5 0.625331 0.260897 0.157551 -2 1 1 
7668 6 0.617414 0.358682 0.15718 -4 1 2 
5443 6 0.751997 0.342467 0.183929 -2 -2 -1 
7400 6 0.142629 0.412107 0.188346 -2 1 5 
5445 5 0.159323 0.398235 0.136563 1 -2 5 
6813 6 0.65765 0.388333 0.175806 1 2 3 
7185 5 0.310693 0.436004 0.178629 4 -4 -3 
6413 5 0.507481 0.433787 0.195476 -3 -6 4 
6640 6 0.0124883 0.445363 0.134424 1 0 5 
5565 6 0.790888 0.388525 0.16626 0 2 0 
7760 5 0.898684 0.44544 0.178851 1 -1 -2 
5932 6 0.208264 0.469076 0.168423 -7 -2 0 
6425 5 0.430136 0.487442 0.173089 3 -1 5 
6909 6 0.981925 0.492547 0.182146 0 -4 2 
7162 6 0.0624581 0.49027 0.182199 1 4 -2 
5460 5 0.0690302 0.54145 0.171279 -3 6 -1 
5725 5 0.48393 0.542223 0.186935 3 -1 0 
6530 6 0.15784 0.527771 0.163148 1 -1 5 
6755 6 0.160271 0.548239 0.155275 -2 -2 7 
5527 5 0.547712 0.552362 0.200944 2 -1 1 
6068 5 0.685447 0.500774 0.179122 0 0 3 
6925 6 0.0290266 0.588636 0.169482 -4 -2 -1 
7974 6 0.415904 0.569439 0.161874 1 0 1 
5117 6 0.352223 0.593945 0.193703 -3 4 -4 
7909 6 0.354827 0.583892 0.165902 4 -1 -3 
6209 6 0.459978 0.586517 0.190447 4 -1 0 
8054 6 0.573487 0.60364 0.121069 -4 -2 0 
7308 6 0.700136 0.613238 0.186699 -1 -3 1 
6228 6 0.248975 0.569066 0.184991 4 -5 3 
6825 6 0.525964 0.654098 0.181204 3 1 2 
8035 6 0.209146 0.733171 0.187935 -1 -1 3 
7427 6 0.816198 0.642135 0.192866 4 3 1 
8683 6 0.90274 0.696862 0.177668 -1 -1 -3 
6389 6 0.713847 0.705931 0.213037 -1 3 -1 
8948 6 0.787977 0.694758 0.186354 -4 4 0 
5278 6 0.858343 0.699033 0.105446 -6 -2 4 
7740 6 0.104155 0.717359 0.152725 1 6 1 
6260 5 0.707038 0.74153 0.160726 -1 -5 -5 
7503 5 0.143996 0.785181 0.172076 -2 0 2 
7194 6 0.202073 0.783122 0.173109 -5 -1 6 
7189 6 0.261515 0.759764 0.192703 3 1 2 
5837 5 0.734567 0.789903 0.124207 1 -1 0 
8893 6 0.288418 0.81475 0.126885 -2 -1 1 
6103 5 0.3206 0.868435 0.140809 1 -5 0 
5516 5 0.727982 0.806525 0.166284 0 -4 5 
5636 5 0.191183 0.850473 0.194074 3 6 1 
6245 6 0.376597 0.873624 0.140427 4 -3 5 
5938 6 0.762319 0.820391 0.18079 -2 -1 0 
6317 6 0.874208 0.815278 0.188481 -3 -3 -4 
8378 5 0.870232 0.796414 0.200169 1 -2 3 
5566 5 0.451348 0.828801 0.172357 1 -2 0 
5535 5 0.476445 0.959854 0.180086 0 -3 0 
7225 6 0.805476 0.92865 0.151432 -1 0 2 
7176 5 0.960324 0.957624 0.139645 3 0 -1 
7361 6 0.972967 0.944811 0.15708 2 -6 0 
7407 6 0.770343 0.951839 0.163133 4 4 -5 
6478 6 0.897451 0.959919 0.187184 3 2 5 
5162 6 0.0898116 0.990017 0.178715 -2 0 0 
8565 6 0.157153 0.952325 0.162562 -2 -3 2 
5323 5 0.869104 0.00860258 0.178673 3 4 0 
5883 6 0.443137 0.99566 0.223351 -1 -3 0 
5366 6 0.941656 0.0580863 0.191766 -4 3 1 
6941 5 0.00831593 0.0238627 0.184729 2 0 0 
7686 5 0.199201 0.0675017 0.193411 1 -2 5 
6127 5 0.767919 0.100885 0.184783 1 1 1 
5832 5 0.90174 0.116074 0.176116 -2 0 -1 
7576 6 0.99672 0.122467 0.201091 -2 0 5 
7202 6 0.85127 0.098655 0.217523 -5 3 1 
5461 6 0.179741 0.133079 0.213815 -1 -6 0 
7937 6 0.519738 0.119277 0.180732 3 -2 -10 
5499 6 0.64388 0.166221 0.196198 -1 2 0 
8314 5 0.708492 0.117462 0.184948 -1 -2 0 
8420 6 0.834867 0.187941 0.201943 -5 4 -2 
6330 5 0.322171 0.178968 0.215796 0 0 -1 
6430 6 0.355727 0.173467 0.222266 -1 -3 -2 
8643 5 0.639374 0.197146 0.200421 1 -1 -1 
7312 6 0.761532 0.192473 0.165057 0 3 7 
7019 5 0.203887 0.223568 0.19036 -2 -2 -2 
6377 5 0.549144 0.244509 0.210945 -2 5 -1 
5022 5 0.430323 0.280267 0.174481 -2 -1 2 
7144 6 0.601077 0.313996 0.185625 1 4 -4 
5593 6 0.0653718 0.328927 0.254655 -4 0 -3 
7770 5 0.365781 0.326066 0.207397 1 -1 3 
8891 6 0.935195 0.299848 0.19997 2 -2 2 
5287 5 0.97919 0.292379 0.168926 -1 -3 5 
7103 6 0.382831 0.333587 0.193783 4 -1 -4 
6933 6 0.0560555 0.352775 0.159933 1 3 -1 
8027 5 0.232243 0.367715 0.211099 7 3 1 
7499 6 0.265717 0.402786 0.219395 5 -7 0 
5204 5 0.709593 0.395195 0.166793 -3 5 -3 
6823 5 0.889296 0.396204 0.219891 -1 1 1 
8201 5 0.265202 0.395388 0.190563 4 -2 3 
7951 6 0.797606 0.448252 0.151901 0 -3 -2 
8787 5 0.270979 0.412303 0.180813 -3 -4 2 
7467 6 0.475742 0.524651 0.178118 2 -6 1 
7574 5 0.228154 0.498964 0.201828 2 -1 1 
7977 6 0.478627 0.493278 0.177037 3 -1 0 
7984 6 0.101333 0.537058 0.184644 1 1 -3 
7011 6 0.695424 0.585458 0.206865 -4 0 -1 
6339 6 0.793729 0.46338 0.188824 1 -1 -1 
7143 5 0.809828 0.508966 0.219103 0 -1 5 
5414 5 0.264738 0.603212 0.195046 1 1 -1 
7097 5 0.0190642 0.543131 0.166713 -2 -2 -3 
7752 6 0.0352289 0.596883 0.19503 -1 -2 -4 
8489 6 0.175337 0.608422 0.190311 1 0 -1 