ITEM: TIMESTEP
20000000
ITEM: NUMBER OF ATOMS
9000
ITEM: BOX BOUNDS pp pp pp
-75 75
-75 75
-75 75
ITEM: ATOMS id type xs ys zs ix iy iz 
8066 6 0.327686 1.00052 0.998628 -1 -1 -3 
8866 5 0.536536 0.0210961 0.0319753 3 3 -1 
7872 6 0.5701 0.0324145 0.0290421 0 -1 0 
6312 6 0.909155 0.0339225 0.0288579 -5 0 -1 
8368 5 0.281332 0.0345864 0.0142494 1 3 -1 
6828 5 0.458774 0.0726769 0.973757 -1 2 5 
5126 6 0.69268 0.0347104 0.0250971 -6 -2 0 
8541 5 0.651265 0.0551273 0.0232583 -4 5 4 
7722 5 0.914918 0.0629166 0.0287786 2 0 -2 
8421 5 0.266484 0.083146 0.994162 0 -7 -3 
7536 6 0.279092 0.105525 0.0261878 3 -1 -2 
5232 6 0.823944 0.143483 0.0100685 3 1 0 
8981 6 0.901874 0.13641 0.0362871 1 0 -5 
5077 6 0.262217 0.0957327 0.0222351 0 4 2 
6166 6 0.279242 0.190075 0.0235276 2 0 4 
5849 6 0.574327 0.145894 0.0426446 -1 2 3 
6214 6 0.76651 0.155367 0.0600421 4 -2 2 
5485 5 0.219838 0.182237 0.0109729 -2 -3 0 
5083 6 0.513957 0.189211 0.988911 0 -3 -2 
8872 5 0.600986 0.222814 0.00129235 -2 -3 2 
8581 6 0.853678 0.153125 0.025123 0 0 5 
6812 6 0.225447 0.248955 0.0144839 3 1 3 
8514 5 0.49258 0.225315 0.0126564 0 4 4 
6779 5 0.298643 0.265665 0.0248648 2 1 -1 
8569 5 0.851801 0.209477 0.0191264 -9 -2 -1 
7496 6 0.677833 0.278755 -0.000332238 -3 4 2 
5492 5 0.571814 0.295189 0.0174681 2 1 2 
8062 5 0.359564 0.330459 0.0360718 -4 6 2 
6507 5 0.415441 0.327058 0.0104935 3 2 3 
8564 5 0.640989 0.381104 0.017938 3 -3 -3 
6822 5 0.828927 0.341243 0.0295053 1 -5 3 
7939 5 0.0444662 0.418002 0.987585 3 -2 1 
7415 6 0.205305 0.413796 0.02491 3 0 3 
7387 5 0.340112 0.434774 0.984414 -1 -3 7 
8432 5 0.904122 0.416684 0.00643468 5 5 2 
6401 6 0.0112733 0.427857 0.970959 4 -3 -2 
6053 5 0.0492092 0.456514 0.0431854 3 4 -4 
5396 5 0.614329 0.433111 0.00521613 2 -1 5 
7919 6 0.117832 0.496884 0.0207397 1 0 2 
8023 6 0.601474 0.466068 0.00596211 -2 3 2 
6867 5 0.738319 0.47832 0.0769024 -3 3 2 
6115 5 0.0209924 0.462067 1.00256 -1 -1 -1 
7168 5 0.280172 0.526623 0.016198 -1 4 4 
5953 5 0.377373 0.538558 0.0113653 2 -4 1 
5120 5 0.535506 0.562321 0.043987 0 0 0 
7797 6 0.689686 0.542326 0.0262608 -4 -2 -2 
6231 5 0.0769074 0.572286 0.0181486 1 -3 -1 
7162 5 0.278757 0.600801 0.989226 2 3 -2 
6645 6 0.795358 0.57173 0.990748 -2 -1 -2 
5755 5 0.0820073 0.605136 -0.000210315 -1 -4 4 
5877 5 0.290979 0.619543 0.0514565 1 -1 7 
6789 6 0.595506 0.617663 0.00129752 -1 -6 3 
5622 5 0.988741 0.610767 0.017266 0 7 0 
6172 6 0.227478 0.64591 0.00568063 1 3 2 
8239 6 0.974444 0.646427 0.999946 -1 1 -2 
5967 5 0.639595 0.726714 0.0270347 1 -6 3 
6201 5 0.456132 0.669348 0.996931 3 -2 -1 
7448 5 0.645207 0.695649 0.0301871 4 -4 0 
5793 6 0.601531 0.719581 0.0161636 2 -2 0 
6952 5 0.881954 0.701146 0.00659402 -4 -1 1 
5954 6 0.846286 0.733868 0.0013822 -6 3 3 
8728 6 0.152525 0.720134 0.982571 -3 -2 0 
6960 5 0.222973 0.788238 0.00476194 3 -2 -1 
8433 6 0.234914 0.786504 0.995094 0 0 -1 
5815 6 0.111258 0.786235 0.0336332 1 -4 6 
5771 6 0.761717 0.790613 0.995033 2 1 -2 
8797 6 0.787174 0.791429 0.00672456 3 2 1 
7659 6 0.816136 0.834213 0.98985 4 1 -4 
7596 6 0.318119 0.794617 0.0250896 2 2 -2 
7165 6 0.272911 0.856441 0.0605528 -2 0 2 
6668 6 0.456864 0.814523 0.985951 2 0 -1 
8522 5 0.558823 0.880764 0.0553439 4 1 2 
8755 6 0.746188 0.861112 0.0148713 0 2 -1 
8909 6 0.843941 0.847833 0.0325525 0 4 1 
8457 5 0.138814 0.915484 0.00560848 2 3 -5 
5743 5 0.226961 0.911182 0.0297391 0 -1 -3 
7313 6 0.953685 0.911734 -0.00462129 1 -1 0 
6765 6 0.0332172 0.925247 0.0193685 0 -4 7 
8799 6 0.577328 0.889329 0.984832 2 -3 -6 
8106 5 0.792314 0.897987 0.0294954 -4 -2 4 
7812 6 0.81804 0.952735 0.0123135 2 1 5 
5137 5 0.111781 0.0165845 0.0299585 0 3 0 
5158 5 0.266211 0.993852 0.976273 2 1 2 
7175 6 0.451717 0.99854 0.993134 7 8 1 
7137 6 0.576277 0.993676 0.0287711 4 -6 -1 
6731 5 0.222094 0.0118344 0.0281932 4 1 0 
7860 6 0.736073 0.0192341 0.0797059 4 5 -3 
6187 6 0.837175 0.00614518 0.0252398 -5 2 -3 
8124 6 0.132511 0.0251129 0.0656295 2 3 -4 
7494 6 0.400674 0.0549521 0.0192603 5 2 -2 
8393 5 0.0886164 0.0782674 0.0726662 3 0 -4 
8079 5 0.211155 0.128541 0.052436 3 0 -1 
5544 5 0.527422 0.120888 0.0563974 2 -4 5 
8448 5 0.379158 0.120537 0.0313168 -1 0 0 
5068 6 0.408341 0.100763 0.0580423 -1 0 0 
6827 5 0.31534 0.154651 0.0224089 -1 -2 2 
8052 5 0.942232 0.154089 0.0413114 -5 -1 -2 
7916 5 0.210006 0.185214 0.0582543 0 7 -1 
7379 6 0.463955 0.16766 0.0422588 -1 0 1 
8383 6 0.617121 0.194934 0.0277639 3 -3 -1 
7744 5 0.593368 0.201877 0.00772643 -1 -3 -2 
5262 5 0.694423 0.268103 0.0650272 3 4 -3 
8698 5 0.255772 0.328445 0.0533864 1 -4 9 
7672 5 0.813004 0.278516 0.0586106 -2 4 0 
6146 6 0.939202 0.334378 0.0119593 5 0 -1 
8869 5 0.228843 0.327366 0.0341934 -2 1 2 
8998 6 0.268573 0.331383 0.0557971 0 5 -1 
6456 6 0.442586 0.35553 0.0356058 1 4 2 
8942 5 0.781661 0.344266 0.0687401 -1 0 6 
7028 6 0.978495 0.335928 0.986442 5 -6 -3 
6596 6 0.507991 0.357719 0.0031786 1 2 -2 
7457 6 0.543124 0.413523 0.060549 5 3 -3 
6662 5 0.640025 0.355155 0.0366662 -1 -2 7 
5600 6 0.777621 0.34992 0.041296 4 0 -1 
7223 6 0.754584 0.34338 0.0263175 -4 -4 3 
8607 5 0.554419 0.368081 0.0706735 0 -3 -6 
8410 5 0.716395 0.412044 0.0994199 -3 0 4 
8840 6 0.183616 0.367814 0.0126234 0 -2 -3 
5886 6 0.323781 0.420349 0.0447479 -1 -6 1 
6817 5 0.400934 0.436555 0.0477049 -1 -9 -1 
5450 6 0.495168 0.473416 0.0195193 -5 -1 -1 
6787 6 0.475691 0.442516 0.99866 0 4 0 
6871 6 0.788419 0.407321 0.0352915 -2 -3 6 
7956 6 0.254894 0.47386 0.0346085 4 2 3 
5615 6 0.754363 0.469085 0.0273424 2 2 -1 
7977 5 0.145149 0.536669 0.00407558 0 -1 1 
7871 6 0.108201 0.464198 0.0337662 4 5 4 
6721 6 0.290684 0.454678 0.0385503 2 -1 -2 
6558 6 0.697386 0.518407 0.0415465 -2 4 8 
8071 6 0.0376286 0.514278 0.00248477 0 -3 5 
7747 5 0.237911 0.49947 0.00684024 0 0 3 
6444 5 0.479967 0.504037 0.982661 -2 2 4 
5944 5 0.754989 0.494951 0.00751428 -1 -1 -5 
5016 6 0.796041 0.53248 0.0283288 1 -3 4 
6738 6 0.0183068 0.5531 0.00769258 3 -3 -6 
8944 6 0.176644 0.614331 1.00273 0 0 -4 
8953 6 0.69281 0.648947 0.0209907 -1 -4 -3 
6655 6 0.401413 0.585617 0.00306483 3 -5 6 
6740 6 0.945035 0.573215 0.0290098 -1 0 2 
6234 5 0.462585 0.600714 0.0221443 1 -1 -2 
8070 6 0.742178 0.612911 0.0337282 4 1 4 
5277 5 0.451167 0.594552 0.0344324 3 2 -3 
8918 6 0.457058 0.64442 0.0329159 -2 -3 -2 
8256 6 0.434424 0.640559 0.0391992 -4 3 -1 
7993 5 0.324235 0.72346 0.0152164 -2 2 0 
8068 5 0.444786 0.709293 0.0289268 2 -5 -2 
5792 6 0.915899 0.65963 0.00101882 -3 -4 -3 
6763 6 0.232758 0.74634 0.0109255 -1 -3 0 
8815 5 0.339083 0.685055 0.0676595 1 0 0 
7357 5 0.302079 0.719184 0.0518114 -5 1 3 
8730 6 0.889166 0.750482 0.0265518 -1 -4 -1 
6847 6 0.3293 0.747336 0.0226525 -2 0 -3 
8823 6 0.611547 0.753208 0.0836292 -1 -2 4 
5554 6 0.991047 0.76526 0.0915204 -1 -2 -2 
5171 6 0.159385 0.803677 0.0328717 -3 4 0 
8356 6 0.298379 0.816815 0.0273162 0 -4 0 
5563 6 0.569628 0.836281 0.0335353 -2 -1 3 
8264 5 0.156627 0.858675 0.0253016 1 2 8 
8189 6 0.341676 0.861612 0.0166696 3 -1 5 
7974 6 0.590235 0.868149 0.0325004 1 3 0 
6365 6 0.0344254 0.862223 1.00177 1 0 10 
7019 5 0.140549 0.896156 0.040097 -2 -4 2 
6346 6 0.669077 0.893956 0.00738218 0 0 5 
8935 6 0.508399 0.895425 0.0217254 1 2 -3 
5365 6 0.0142034 0.911303 0.032251 4 -1 0 
6669 6 0.0426254 0.922986 0.00213477 -2 -1 -3 
7928 6 0.201417 0.927113 0.0106599 3 3 1 
7908 6 0.927813 0.925365 0.040652 5 0 -5 
7009 6 0.0161888 0.919807 0.0337216 2 -3 2 
5840 5 0.201936 0.98176 0.0269968 0 2 2 
5156 6 0.732728 0.984403 0.0363856 5 -2 2 
5788 6 0.973468 0.957729 0.0555451 -2 -4 -7 
7398 5 0.542268 0.00599016 0.0267965 -3 4 6 
8705 5 0.610802 0.995568 0.0942404 0 0 9 
5173 5 0.653132 0.0119991 0.0319503 -3 4 1 
5065 5 0.992039 0.994982 0.0192626 -7 -3 -3 
8484 6 0.086871 0.0254161 0.0271256 4 2 3 
5415 5 0.447884 0.0311664 0.087595 2 -7 -8 
5220 6 0.140713 0.0554325 0.0585862 2 2 2 
8330 6 0.925327 0.0686448 0.0384104 -1 0 -3 
8438 6 0.970272 0.0554403 0.0756176 2 0 1 
5536 6 0.807121 0.0594124 0.0307541 -6 2 -2 
5626 5 0.531486 0.110717 0.0915282 -5 2 -2 
6050 6 0.538315 0.137607 0.0870788 2 4 2 
8117 6 0.929102 0.0907287 0.0967511 5 0 0 
7546 6 0.19664 0.110217 0.0485322 0 -5 -2 
7556 6 0.493133 0.103211 0.0731565 3 3 1 
5560 6 0.587809 0.137979 0.0261085 1 -2 0 
6538 5 0.191868 0.155613 0.0666116 5 -1 3 
6885 5 0.529417 0.188409 0.108111 4 2 0 
5097 6 0.532469 0.195652 0.00984729 2 7 -2 
5117 5 0.550768 0.195871 0.0310174 -2 1 6 
7353 6 0.612691 0.179027 0.0530742 2 4 -2 
8194 6 0.0999613 0.216974 0.0303823 2 -4 2 
7306 5 0.668732 0.186582 0.0388811 -4 0 1 
5966 5 0.00854774 0.289859 0.0875837 -2 2 -1 
6804 5 0.689253 0.234158 0.0402924 -1 1 0 
7497 5 0.703802 0.224751 0.0817288 -2 3 3 
8478 5 0.953698 0.191305 0.0569086 -2 -4 0 
8916 5 0.285465 0.242319 0.0397852 -1 -6 -2 
8682 6 0.263303 0.269266 0.0358458 0 0 3 
5637 5 0.476674 0.239329 0.0506062 1 -4 1 
8732 5 0.430439 0.241352 0.120949 -4 -1 4 
5302 5 0.17637 0.334511 0.0440843 8 -2 10 
6553 5 0.499421 0.269501 0.0557164 -2 -1 0 
8767 6 0.7994 0.249542 0.101125 6 1 5 
8814 6 0.110269 0.306952 0.0594062 0 4 0 
7539 6 0.236092 0.308268 0.0594253 2 2 3 
7420 6 0.635679 0.293345 0.0365022 0 -1 -4 
8120 5 0.885358 0.290241 0.0424768 -3 -2 1 
6062 5 0.204197 0.346473 0.0609533 2 3 -9 
8507 5 0.512259 0.294721 0.0586561 3 5 4 
5501 6 0.654071 0.339056 0.0345448 4 -1 0 
5222 6 0.716089 0.346093 0.0293667 -3 -2 2 
8225 6 0.182478 0.401124 0.0586854 3 3 1 
6384 5 0.340613 0.423957 0.0557505 -1 2 -2 
8742 5 0.742467 0.399765 0.0372826 -2 2 -2 
6838 6 0.241093 0.409115 0.0419692 -3 1 5 
6027 6 0.271954 0.405482 0.0526914 -3 -6 -2 
8624 5 0.421788 0.409278 0.0880238 2 2 3 
7024 5 0.465578 0.445039 0.0293916 -4 -4 3 
6877 6 0.602934 0.441103 0.0306085 0 -2 0 
8871 5 0.031317 0.454846 0.0914924 -2 -2 3 
6136 5 0.792045 0.435744 0.0595991 -3 -3 -1 
6293 6 0.362207 0.482274 0.0539335 1 1 -3 
6094 6 0.517154 0.502761 0.0702518 3 -3 0 
7947 5 0.966226 0.444164 0.0205536 -8 -1 -1 
5245 6 0.20991 0.560144 0.013547 1 -4 11 
5328 6 0.328634 0.529787 0.0503158 0 1 -1 
7991 5 0.57352 0.546039 0.087691 -2 4 1 
6972 5 0.813835 0.51628 0.0696575 -5 -3 5 
7754 6 0.82336 0.609542 0.0718159 -5 0 1 
7015 6 0.121228 0.580442 0.0666827 3 -3 1 
7709 5 0.569192 0.603323 0.0851153 -1 1 1 
7937 6 0.349086 0.634713 0.0426855 -4 0 -7 
5417 5 0.274932 0.658739 0.0738288 0 -4 -1 
6482 6 0.853701 0.666409 0.051684 3 -2 -5 
5829 6 0.595349 0.69511 0.0271962 8 2 -4 
6058 5 0.763352 0.667675 0.0601464 1 0 3 
7225 6 0.330385 0.775466 0.0498234 -4 -2 5 
6220 5 0.739745 0.78289 0.0560802 0 5 4 
5691 5 0.731284 0.761382 0.0640845 -4 7 4 
7197 6 0.815281 0.785676 0.0443684 1 0 1 
5690 6 0.124592 0.831081 0.0670748 3 -1 -2 
6418 5 0.982123 0.797249 0.0519209 -1 0 -1 
6692 6 0.611299 0.819175 0.0253406 0 1 1 
7985 5 0.66123 0.830068 0.0686958 1 0 3 
7240 6 0.217482 0.829204 0.0725779 -2 -1 3 
7179 6 0.207168 0.879238 0.0617652 0 5 3 
5399 6 0.565577 0.884037 0.0737796 3 0 -1 
8045 6 0.591878 0.856052 0.0496421 -3 1 -1 
5696 5 0.946064 0.907326 0.0786876 1 -2 -3 
7332 5 0.00944963 0.951923 0.0441186 4 1 0 
7101 5 0.19751 0.948379 0.0339122 0 1 4 
8395 6 0.563019 0.919146 -0.00023746 -2 -2 1 
6737 5 0.74384 0.939069 0.0755543 2 -6 -6 
7946 6 0.203748 0.984582 0.0803646 -1 6 -1 
5498 6 0.885886 0.992804 0.0510713 4 -3 -4 
7753 6 0.410334 0.993874 0.103702 6 -2 4 
6784 5 0.450717 0.000701983 0.0919745 -1 3 1 
7296 6 0.0526531 0.0456728 0.0720656 1 6 3 
8491 6 0.321304 0.0765484 0.0741758 1 0 -2 
5933 6 0.714768 0.0988426 0.0675415 -1 -4 3 
5975 5 0.780562 0.0141218 0.085196 2 0 -4 
7895 6 0.96454 0.0543037 0.0517986 -1 1 -4 
8496 6 0.94758 0.0551351 0.0561067 3 4 0 
7990 5 0.244825 0.0999542 0.0863576 -3 3 -4 
7803 6 0.397314 0.0933274 0.0865347 5 2 -2 
6355 5 0.39294 0.0690342 0.101476 3 2 2 
7237 5 0.701042 0.0582253 0.072627 3 -1 0 
6436 6 0.784965 0.1053 0.101077 0 -2 2 
8469 5 0.812563 0.0569176 0.103176 2 -3 5 
7869 5 0.0258245 0.0791543 0.0800652 1 -1 1 
6928 5 0.0901738 0.126091 0.130295 -3 -1 1 
5183 6 0.534272 0.122475 0.0896857 -2 2 0 
5791 6 0.680777 0.122588 0.0981964 -6 5 -2 
7490 6 0.318241 0.116682 0.0451333 -3 3 2 
8738 6 0.678579 0.117262 0.0479815 4 2 -5 
8100 5 0.909865 0.115961 0.100337 -5 -2 0 
5687 5 0.948182 0.122233 0.0652027 -3 5 2 
7838 6 0.0926571 0.146399 0.0637403 -4 -1 -4 
5607 6 0.118142 0.169562 0.0894225 3 2 -1 
5407 5 0.493649 0.115375 0.0173438 2 0 -2 
6210 6 0.693701 0.140033 0.0616298 2 1 -2 
5594 6 0.709036 0.143467 0.0894075 0 4 -3 
7892 6 0.869361 0.19495 0.103206 -3 0 -1 
5052 6 0.491138 0.160928 0.0907575 3 0 4 
5962 6 0.53933 0.198596 0.0241753 1 -1 -4 
5181 5 0.817857 0.169921 0.0821169 -6 -4 -2 
5928 6 0.467301 0.209636 0.0659424 6 1 0 
6275 6 0.549579 0.214564 0.0785256 1 0 7 
6588 6 0.100218 0.255261 0.0836555 -1 -2 4 
8004 6 0.141264 0.241941 0.0975082 0 4 2 
6617 5 0.408119 0.237692 0.113106 1 -2 6 
5427 6 0.766297 0.312725 0.0582349 1 3 0 
5443 6 0.53184 0.335595 0.0762352 2 -2 0 
6971 6 0.284949 0.39829 0.0939259 -2 -1 1 
8777 5 0.305266 0.387116 0.0881543 -1 -1 5 
7422 6 0.443701 0.357275 0.0998885 1 0 7 
6478 5 0.520703 0.427011 0.0822232 -2 -4 0 
6576 5 0.867298 0.415015 0.0610333 0 -1 -4 
7846 6 0.967956 0.365607 0.0776589 -1 -2 3 
8407 5 0.354251 0.40522 0.0972303 2 -2 2 
5786 5 0.468906 0.461092 0.0358797 1 0 -3 
5271 6 0.935407 0.447478 0.0200706 2 -5 5 
8276 5 0.919485 0.451068 0.0937141 0 2 1 
6306 6 0.403523 0.490481 0.109414 -1 -3 4 
6993 5 0.840535 0.499444 0.113173 1 -3 -5 
7498 5 0.902808 0.469442 0.0776921 2 2 2 
7463 5 0.273555 0.505366 0.115186 2 0 8 
7287 6 0.82755 0.49807 0.0834434 -1 -1 -3 
5013 6 0.910025 0.548073 0.0448006 0 -1 -3 
7923 6 0.144713 0.564802 0.0743637 0 -6 0 
6621 6 0.180556 0.580637 0.0309652 -4 -2 0 
5116 6 0.195803 0.606762 0.112207 -1 -1 -3 
8053 5 0.285701 0.598885 0.0769371 -3 -2 -2 
5949 5 0.255452 0.557198 0.0744811 1 3 3 
6075 6 0.0881891 0.620793 0.0525242 6 0 4 
6143 6 0.334955 0.567795 0.0458972 -3 1 1 
7541 6 0.701981 0.599262 0.0824426 -2 -6 0 
7188 6 0.976092 0.620771 0.0731194 -3 -3 -4 
5682 6 0.876635 0.618139 0.0456539 1 0 0 
7700 5 0.0847565 0.630286 0.0641326 4 -1 -2 
8867 5 0.494466 0.656558 0.0995441 4 4 -2 
7756 5 0.775304 0.621312 0.104045 -3 -2 6 
6023 6 0.917741 0.646852 0.110771 -1 -1 -1 
8910 5 0.218897 0.688072 0.0875768 -2 -3 1 
5133 5 0.401547 0.656044 0.0837891 6 -2 2 
7203 6 0.65595 0.65101 0.0948765 1 -3 -3 
8075 6 0.110912 0.688198 0.075724 4 3 0 
5514 6 0.957188 0.726366 0.0675191 -1 2 -1 
5206 5 0.973156 0.689097 0.0746327 -2 2 5 
7522 5 0.0695311 0.708741 0.0950252 0 6 -1 
7955 5 0.415612 0.707318 0.0481459 -4 -2 3 
6300 5 0.689499 0.723216 0.0375964 1 1 4 
7966 6 0.837795 0.711341 0.0791183 -1 -2 2 
6165 6 0.942934 0.779114 0.0628235 -1 -3 1 
8404 6 0.563125 0.77714 0.075663 -2 2 -1 
6889 6 0.601644 0.740549 0.10122 1 -2 4 
7746 6 0.947647 0.771923 0.0814642 -4 3 -1 
7692 6 0.353919 0.782327 0.0599331 0 -4 1 
5182 6 0.55099 0.790403 0.0920311 0 -3 1 
7301 6 0.758391 0.753925 0.0433413 0 -2 -1 
5259 6 0.872011 0.776176 0.0970563 3 -2 -1 
6125 6 0.310313 0.786955 0.087362 4 -6 -1 
8390 5 0.0537142 0.881968 0.128848 2 -3 1 
5344 5 0.807493 0.83212 0.057494 0 5 0 
6149 5 0.564979 0.942596 0.0760552 -5 5 1 
7427 6 0.841554 0.892443 0.0602748 -1 1 -2 
8594 6 0.240704 0.939999 0.0884005 4 -1 -4 
8415 5 0.430014 0.921791 0.0636966 2 0 0 
7442 5 0.795626 0.891361 0.0419912 -6 1 3 
7441 5 0.0739871 0.977842 0.0438534 2 -3 -3 
7181 6 0.961866 0.965402 0.0860804 -1 -3 2 
8072 6 0.869353 0.0210674 0.0854461 -3 4 1 
7434 5 0.799448 0.0130212 0.069031 1 -2 3 
6744 6 0.702385 0.0108137 0.106507 -1 -3 3 
6431 6 0.749478 0.0483769 0.0788667 -3 1 -1 
6081 6 0.869212 0.0282293 0.0986561 0 -5 2 
7622 5 0.902135 0.0539307 0.124293 -1 -2 -5 
7679 5 0.38006 0.0770213 0.0769663 0 4 3 
8521 5 0.542179 0.075715 0.115757 0 4 1 
7329 6 0.589136 0.147113 0.120381 -5 -1 2 
5673 6 0.344091 0.100072 0.108825 -1 0 2 
5585 5 0.339847 0.156689 0.102327 -5 2 2 
7847 5 0.40901 0.181564 0.0492519 0 -1 0 
5859 5 0.239193 0.154964 0.093733 1 2 -4 
8384 6 0.441411 0.177668 0.128007 0 0 -3 
6356 6 0.475809 0.163193 0.0988327 -2 2 2 
5069 5 0.0546076 0.182032 0.0695909 1 -1 1 
8174 5 0.502351 0.19705 0.110612 -2 0 -1 
5478 5 0.0848902 0.197945 0.113962 -1 -1 3 
5449 5 0.246951 0.176039 0.0547991 1 -1 -2 
7091 6 0.351036 0.225131 0.113581 -2 7 -5 
8389 5 0.684867 0.229338 0.124571 -4 1 -2 
5504 5 0.0208195 0.243245 0.0959539 4 1 -5 
7976 6 0.192703 0.246471 0.0907691 3 2 0 
6043 5 0.245186 0.229907 0.144442 -1 0 2 
8575 5 0.285702 0.233076 0.131724 0 0 -1 
7461 5 0.492933 0.244561 0.114493 -3 1 3 
6074 5 0.514393 0.196315 0.0956066 2 0 -4 
8222 5 0.0891576 0.31993 0.0803955 -2 0 0 
8031 5 0.69167 0.299392 0.0840603 2 3 -5 
7581 6 0.426288 0.307696 0.127905 0 2 5 
5880 5 0.190421 0.336944 0.111097 1 2 -2 
8762 6 0.44899 0.341936 0.0908467 -1 4 1 
7396 5 0.746958 0.412568 0.135181 -4 -2 -5 
6412 5 0.150535 0.388121 0.0917422 1 2 -1 
8285 6 0.45893 0.387704 0.0709697 2 -1 2 
6170 6 0.62183 0.393795 0.0982461 1 -2 2 
7876 6 0.519932 0.39318 0.112449 5 3 -2 
6745 6 0.570302 0.429663 0.0802441 -2 1 5 
7675 5 0.705587 0.415446 0.0761083 -1 -1 4 
8706 6 0.713475 0.457259 0.0653592 -1 1 0 
8943 6 0.609746 0.43592 0.0675373 0 2 -3 
6499 5 0.782807 0.43717 0.0853832 3 0 4 
7661 6 0.79786 0.469767 0.117609 -3 3 0 
8428 5 0.771393 0.449976 0.0465628 7 -2 5 
6903 5 0.862227 0.469076 0.0680894 -5 2 3 
7555 6 0.744676 0.513295 0.106408 3 -5 5 
7218 5 0.422724 0.543651 0.133811 2 3 2 
6175 6 0.751996 0.555601 0.120079 4 4 2 
5853 5 0.995106 0.571425 0.0896033 -2 4 -2 
7582 6 0.968299 0.570009 0.0848744 4 1 1 
6823 5 0.166973 0.597587 0.11758 0 1 2 
8151 5 0.426931 0.638628 0.104098 2 0 -2 
6542 6 0.385749 0.650123 0.11002 -1 -3 0 
8927 5 0.985028 0.63656 0.0500016 1 2 1 
5998 5 0.193874 0.679075 0.0927459 1 -1 4 
7236 5 0.231542 0.628614 0.0887842 2 5 -1 
7424 6 0.309953 0.662019 0.160595 5 5 -3 
6862 5 0.690218 0.674134 0.0754159 1 -5 -3 
7678 6 0.846825 0.66752 0.0966726 -2 0 0 
5873 6 0.314472 0.699227 0.124457 -4 0 -1 
6097 6 0.610484 0.672215 0.0852695 0 -3 4 
8662 6 0.817286 0.662176 0.084665 -1 -2 0 
5864 6 0.303634 0.754613 0.10372 -1 0 -1 
5323 6 0.291365 0.759922 0.0899673 0 5 -1 
5043 5 0.372579 0.682947 0.11123 -5 4 6 
5150 5 0.423933 0.731741 0.122902 0 -3 -1 
5439 6 0.198976 0.77896 0.0802295 1 -1 -5 
7950 6 0.321827 0.746653 0.107579 -2 2 3 
5033 6 0.493515 0.793919 0.0925827 3 -1 -2 
7884 5 0.0113656 0.791116 0.0756038 2 1 4 
6843 6 0.952003 0.767961 0.0936283 2 -2 -2 
8857 5 0.315198 0.791971 0.0849815 1 -4 4 
7312 6 0.332161 0.806331 0.0551309 -1 0 -1 
6894 5 0.395897 0.84369 0.0970532 2 3 0 
8020 6 0.704972 0.835675 0.128787 -4 -4 -4 
7190 5 0.740891 0.82574 0.108907 2 4 1 
5269 6 0.810901 0.861884 0.107029 -1 1 1 
8317 6 0.113046 0.859306 0.114862 -1 -5 2 
7300 5 0.0222071 0.873493 0.129188 -2 2 2 
7880 6 0.839055 0.876374 0.0792885 1 1 -3 
6675 6 0.844292 0.922975 0.0645181 -2 0 3 
8518 5 0.908841 0.950591 0.0947416 6 -1 -1 
7813 5 0.461707 0.896154 0.111823 1 2 3 
7062 6 0.206828 0.946134 0.109414 0 -5 -1 
5552 6 0.923993 0.937953 0.0917779 -4 0 2 
8007 5 0.341429 0.993594 0.107983 0 -3 1 
6056 5 0.378028 6.60905e-06 0.106326 -1 -3 3 
6060 5 0.0245226 0.968278 0.0887138 2 -3 5 
8958 6 0.518498 0.971634 0.136559 2 0 4 
7960 6 0.72291 0.00984194 0.116159 -3 2 2 
5885 5 0.0685128 0.02102 0.146395 5 -1 0 
7298 6 0.171747 0.00632599 0.120478 -2 -2 -2 
6034 6 0.644455 0.00067928 0.140596 3 1 1 
6266 5 0.222012 0.0233972 0.107104 -1 0 -1 
6920 5 0.381551 0.0749154 0.112324 -4 0 -1 
5715 6 0.727716 0.0627592 0.126249 1 -2 -2 
6301 5 0.778446 0.103095 0.144494 0 1 2 
8848 5 0.145914 0.104099 0.0911298 -1 1 4 
5959 5 0.151488 0.126884 0.120021 -6 3 1 
6999 6 0.511349 0.1285 0.120887 4 0 -1 
7341 6 0.924639 0.141283 0.120318 -2 -4 0 
5761 5 0.452601 0.162432 0.14856 4 -2 2 
7446 5 0.725464 0.193265 0.129111 -1 -3 -1 
5019 6 0.315503 0.21299 0.142925 0 -4 0 
6349 5 0.96075 0.225754 0.103866 0 2 0 
6806 5 0.195063 0.265789 0.114129 2 -2 1 
5411 6 0.854851 0.288614 0.11361 -2 -1 -4 
8255 5 0.211463 0.256952 0.122131 -2 5 3 
8650 6 0.413739 0.267399 0.143866 4 2 -2 
8793 6 0.413669 0.267208 0.132593 -2 -2 -1 
8718 5 -0.00503409 0.323009 0.112983 6 2 2 
6990 6 0.381601 0.353509 0.0878974 0 -2 -2 
6132 6 0.740442 0.332378 0.120639 -1 2 4 
8978 5 0.95768 0.365896 0.137712 1 -1 5 
5590 6 0.583179 0.393066 0.125628 -1 5 0 
6259 6 0.868215 0.359292 0.157353 1 -4 1 
8845 6 0.223932 0.377213 0.12832 0 3 -4 
8809 5 0.0796722 0.416471 0.125148 3 -2 -4 
6443 5 0.179171 0.418257 0.132107 -3 1 1 
6164 5 0.742368 0.40376 0.0912737 -3 1 0 
6385 5 0.23761 0.444664 0.132257 0 0 -3 
8312 5 0.701934 0.520289 0.131973 3 0 7 
7307 6 0.051501 0.594622 0.109768 0 0 -1 
8571 5 0.938336 0.557439 0.147794 -1 1 0 
6797 6 0.445836 0.568937 0.141801 -7 -6 -1 
7608 5 0.142945 0.598274 0.11371 8 3 2 
8922 6 0.0450834 0.689958 0.162178 -2 1 5 
8403 5 0.0910244 0.694153 0.0866752 1 -3 0 
6633 5 0.546254 0.714864 0.110839 -6 -4 -4 
7578 5 0.277869 0.765395 0.134812 -3 -1 -7 
8358 6 0.316364 0.797888 0.134522 -5 2 -1 
6573 6 0.75431 0.75567 0.160288 1 4 -1 
7331 6 0.939569 0.757438 0.13484 -4 -3 2 
5919 6 0.289165 0.776773 0.114159 2 2 4 
8366 5 0.0582856 0.82038 0.145889 1 0 3 
5462 6 0.468712 0.811799 0.180009 4 -3 2 
8715 6 0.972755 0.800215 0.118804 4 7 0 
8768 6 0.00735543 0.821572 0.108487 -1 -3 8 
7784 5 0.0723036 0.809813 0.115961 4 -1 5 
6048 5 0.790564 0.813836 0.129675 0 -4 -1 
6488 5 0.00282201 0.852203 0.13711 -3 1 3 
6140 6 0.573456 0.874998 0.0725312 2 -3 1 
6543 6 0.0812095 0.834257 0.166582 1 0 -4 
6119 5 0.0659199 0.919774 0.132765 2 2 -1 
5146 6 0.70899 0.91231 0.152533 -2 2 1 
5088 6 0.313703 0.92469 0.153639 0 0 -1 
8291 6 0.849215 0.918535 0.108748 -1 4 -2 
8974 6 0.142205 0.971409 0.125712 3 5 -1 
6548 6 0.154371 0.919683 0.131864 -3 -4 -8 
7600 5 0.226744 0.95503 0.112519 -5 0 -2 
6597 6 0.636862 0.918176 0.138038 2 -6 -5 
8131 6 0.826462 0.959161 0.123231 -3 3 -1 
6080 6 0.9234 0.976795 0.144253 -5 -6 1 
8447 6 0.0328958 0.956799 0.126712 2 -2 -1 
7570 6 0.15101 0.972652 0.100569 5 2 0 
8197 5 0.939455 0.936433 0.120538 2 -1 1 
8753 5 0.320837 0.0179483 0.110531 0 2 3 
7879 6 0.397646 0.998731 0.135205 2 -2 0 
6304 5 0.514252 0.95875 0.101738 0 4 -4 
6950 6 0.135987 0.0349017 0.12339 1 6 -2 
7195 6 0.148807 0.00493127 0.128257 1 6 -6 
5984 6 0.417237 0.000262631 0.138436 -1 -1 2 
8006 6 0.703735 0.0472925 0.0935246 -1 3 2 
5525 5 0.981334 0.0387752 0.153447 5 1 0 
7016 6 0.322796 0.0457377 0.154551 -1 3 3 
6547 6 0.368569 0.0389539 0.136015 0 2 5 
6222 6 0.542337 0.0724974 0.157064 -2 2 -1 
5952 5 0.0339233 0.065838 0.132026 4 -1 1 
8931 6 0.210772 0.0846159 0.183517 3 5 2 
6540 5 0.0771435 0.136007 0.123161 5 -2 -5 
6213 5 0.149313 0.107695 0.147055 2 2 -1 
8771 6 0.988771 0.124734 0.11423 -2 5 -7 
8074 5 0.202467 0.120047 0.109532 0 -3 3 
6405 6 0.38504 0.101671 0.145904 0 2 -5 
7748 6 0.695649 0.106159 0.120016 -5 3 2 
8190 6 0.578565 0.119677 0.147133 -3 1 6 
5472 5 0.99036 0.146705 0.119271 -4 2 1 
7987 6 0.673053 0.190712 0.173768 0 0 -2 
7768 6 0.197141 0.225428 0.13938 4 3 -2 
6754 5 0.240241 0.205172 0.167848 -1 3 4 
8902 5 0.296721 0.229066 0.145033 -1 1 -1 
6661 6 0.94167 0.273497 0.115356 -4 -1 2 
6040 6 0.541842 0.252002 0.134371 3 1 1 
5969 6 0.900891 0.272114 0.151424 -2 2 -2 
7647 6 0.596281 0.30232 0.17996 1 1 -1 
7866 5 0.923544 0.291168 0.145409 0 -2 3 
6491 6 0.977552 0.262575 0.134304 -2 7 2 
6519 5 0.882677 0.292758 0.18661 -1 1 2 
8463 6 0.0884281 0.358091 0.155945 0 2 4 
6679 5 0.454536 0.347906 0.167062 3 -4 0 
8377 6 0.647469 0.327022 0.142475 -1 -4 8 
8191 5 0.796503 0.336203 0.147653 -1 -1 -3 
7171 6 0.456625 0.387012 0.170768 3 -5 -6 
5811 6 0.927653 0.385252 0.155057 -7 4 -2 
5530 6 0.535081 0.442394 0.126646 4 0 6 
6262 5 0.428049 0.453143 0.143412 -1 -1 6 
7851 6 0.0871403 0.438253 0.0898361 2 0 1 
5495 5 0.405971 0.472656 0.133969 -1 2 -1 
8584 6 0.534088 0.49205 0.144883 -1 -1 -1 
5655 6 0.01662 0.454795 0.167158 3 -4 0 
7105 6 0.657275 0.524434 0.158441 -1 0 -3 
6945 6 0.924974 0.555291 0.158801 1 -2 4 
7808 6 0.98737 0.575632 0.120052 -1 -2 -3 
6567 6 0.977037 0.561943 0.106068 -1 0 4 
7395 6 0.461019 0.62606 0.139602 2 0 1 
7499 5 0.312914 0.605728 0.141906 2 0 -1 
7964 5 0.357268 0.570285 0.152953 1 -1 -4 
7230 5 0.466551 0.614385 0.158795 3 -2 -1 
6926 6 0.279471 0.605301 0.135663 -7 -4 -4 
6049 6 0.341925 0.624822 0.18105 -4 -1 -5 
5119 5 0.291015 0.591734 0.184464 1 -3 -3 
6708 6 0.443797 0.596679 0.158275 4 -4 4 
5888 6 0.58348 0.61084 0.118384 -3 -1 5 
8402 5 0.750143 0.652155 0.142318 4 -1 3 
5609 6 0.414622 0.639256 0.154796 -1 -5 2 
5359 5 0.113224 0.666901 0.164339 0 1 -3 
8818 5 0.599762 0.641281 0.133255 0 -2 2 
8494 6 0.301085 0.664834 0.166608 -1 2 -2 
8277 5 0.362272 0.696689 0.166581 0 -2 -3 
5387 5 0.353774 0.691649 0.150606 4 3 -4 
5721 5 0.606237 0.741904 0.155447 0 -10 0 
7517 6 0.283209 0.705653 0.143143 4 -5 0 
8417 5 0.431024 0.701394 0.156338 -5 2 0 
7913 5 0.878223 0.734285 0.159277 4 3 2 
8423 6 0.176357 0.699905 0.150772 4 2 -4 
7770 5 0.832628 0.73251 0.117711 -5 1 2 
8695 5 0.0707429 0.746697 0.12902 1 -2 0 
8281 5 0.314284 0.748529 0.158225 -1 -1 1 
6071 6 0.434692 0.824167 0.150733 0 -4 -6 
7279 5 0.815273 0.774539 0.147535 2 2 5 
6685 5 0.897141 0.787374 0.118121 1 1 2 
5561 6 0.524581 0.83217 0.152941 -1 1 -1 
8084 6 0.589177 0.838022 0.130188 -2 3 -1 
7036 6 0.741325 0.808833 0.127606 1 -3 -2 
7767 6 0.157566 0.828553 0.161211 -1 -8 -6 
7599 6 0.374393 0.846378 0.140524 2 -4 5 
6801 6 0.657991 0.879972 0.133068 2 -2 -3 
6105 5 0.686954 0.838284 0.143888 0 -4 0 
5834 5 0.562363 0.844066 0.126146 -1 -5 2 
6219 6 0.685717 0.922118 0.207045 9 2 -2 
8672 6 0.269701 0.941283 0.156422 -4 3 -2 
6995 5 0.478021 0.873592 0.144939 -3 0 -4 
5020 6 0.488789 0.939972 0.146858 -3 -8 1 
6959 6 0.598986 0.870085 0.114714 4 -1 4 
5831 6 0.680781 0.921545 0.131853 -2 2 1 
8394 6 0.834996 0.90678 0.136317 0 -2 1 
5642 5 0.00262433 0.924831 0.106621 1 3 7 
5937 5 0.238535 0.92982 0.162589 0 0 1 
8302 6 0.965553 0.972396 0.179078 -3 -2 3 
6826 6 0.146349 0.950511 0.133333 -3 -2 4 
6622 5 0.7511 0.989033 0.124235 1 6 2 
7414 5 0.127056 0.0275883 0.150275 1 0 -3 
8960 5 0.127555 0.956712 0.200813 4 0 -1 
8957 5 0.423273 0.0180032 0.193443 2 -3 -5 
5798 5 0.485998 0.033427 0.18671 -6 -3 1 
7889 6 0.549771 0.0753879 0.167054 -1 0 -3 
6778 6 0.781304 0.0756716 0.143267 -2 -3 6 
7853 6 0.935165 0.106525 0.155532 -1 1 1 
7898 5 0.00119483 0.101812 0.186879 -2 -1 -2 
7013 6 0.574726 0.123761 0.20573 -5 4 -2 
5510 5 0.914222 0.145049 0.177 -1 -5 -5 
6976 6 0.199343 0.181715 0.120808 3 0 3 
6612 6 0.461325 0.19225 0.209528 2 5 3 
5030 5 0.720652 0.21024 0.189932 -2 5 -2 
6407 5 0.890107 0.207096 0.134954 -2 2 0 
5289 6 0.660176 0.211348 0.188874 5 -5 0 
7038 5 0.707769 0.253364 0.181639 3 6 -4 
6363 6 0.821252 0.255959 0.182053 -4 0 -3 
7714 6 0.135869 0.298122 0.142256 1 0 0 
5106 6 0.362497 0.3042 0.153625 -1 -1 -1 
5267 6 0.689398 0.328834 0.204105 -1 5 1 
8527 6 0.674518 0.284843 0.184229 0 3 0 
5393 5 0.937557 0.285206 0.187133 1 1 1 
8137 5 0.182821 0.323649 0.187741 -5 1 4 
5912 5 0.676302 0.313374 0.119115 -5 8 -1 
7645 5 0.771809 0.310886 0.138843 0 -3 2 
6352 5 0.527223 0.337746 0.163515 -4 -1 -1 
8217 5 0.696866 0.316199 0.162797 3 1 4 
5932 5 0.882941 0.335182 0.174905 0 1 6 
7691 5 0.953106 0.335491 0.130405 -1 2 0 
7087 6 0.92281 0.381247 0.130352 -5 -1 -4 
5526 5 0.0163039 0.396963 0.202645 -2 3 0 
5428 5 0.399219 0.332864 0.171978 -2 -2 3 
5195 5 0.0343444 0.437561 0.150832 0 1 4 
8152 5 0.161497 0.396058 0.158934 6 -9 0 
8813 6 0.048438 0.428847 0.133708 1 -2 0 
5548 6 0.101836 0.444156 0.183127 2 6 0 
8228 6 0.129869 0.478296 0.165872 -2 -2 3 
7356 6 0.136525 0.489537 0.171595 -3 4 5 
5621 5 0.538495 0.447297 0.188221 6 -1 0 
7862 6 0.585373 0.451558 0.125159 -1 1 3 
7242 6 0.598612 0.458396 0.160505 -3 0 1 
8786 5 0.0783399 0.473993 0.193074 -1 4 -2 
8196 5 0.45069 0.441929 0.196654 -7 -1 3 
5032 5 0.679997 0.47732 0.183057 -1 -1 4 
5546 6 0.425084 0.543798 0.173464 -2 1 7 
5184 6 0.654522 0.516824 0.159668 0 2 1 
8139 6 0.953712 0.519653 0.124628 4 1 2 
8113 5 0.140374 0.547194 0.184606 -2 1 2 
7941 6 0.279947 0.555327 0.194993 1 2 -3 
8037 6 0.653192 0.55894 0.186192 0 2 -5 
6254 6 0.843774 0.532944 0.174518 -2 3 0 
5420 5 0.889018 0.513285 0.192244 4 2 -1 
5263 6 0.0540512 0.548912 0.156124 -1 1 -4 
6221 6 0.212901 0.571987 0.226062 -4 0 -4 
6253 5 0.529682 0.542199 0.160939 1 -1 1 
6698 6 0.0917715 0.579991 0.195533 1 3 0 
5437 5 0.343804 0.574496 0.153356 -1 -5 -1 
6252 5 0.862305 0.592421 0.195112 1 3 4 
5204 6 0.392922 0.648896 0.18651 0 3 2 
7335 5 0.96784 0.688698 0.14846 1 3 -1 
8147 5 0.0373431 0.727904 0.162501 -1 0 -1 
7544 5 0.162129 0.719066 0.169489 3 2 -1 
5454 6 0.0836805 0.734475 0.189183 -2 1 1 
8577 6 0.128783 0.747365 0.163683 1 -1 -1 
6012 6 0.539875 0.751706 0.197729 -4 -4 4 
6593 5 0.204412 0.803316 0.149707 -2 1 5 
6954 6 0.277867 0.762586 0.183494 -3 4 0 
6471 6 0.341458 0.787333 0.149083 -2 3 1 
7704 5 0.0964122 0.820202 0.198761 -1 -1 -2 
6427 5 0.397449 0.790051 0.17633 -1 -1 0 
5418 6 0.901714 0.773174 0.188286 1 -1 -1 
6460 6 0.653957 0.833152 0.221664 4 -4 1 
8142 5 0.753808 0.861577 0.185724 1 2 -3 
8780 6 0.0117652 0.853505 0.139352 -2 -3 0 
7481 5 0.201171 0.859394 0.165528 -2 3 -2 
6323 6 0.709217 0.884958 0.181028 2 -1 3 
7045 5 0.837195 0.84098 0.190922 0 1 2 
6729 6 0.850871 0.845831 0.161461 3 -2 1 
8833 6 0.108563 0.93338 0.135616 -1 -3 2 
6265 5 0.255879 0.944393 0.154392 -5 1 -2 
8752 5 0.533669 0.923006 0.170731 2 1 1 
8707 6 0.730654 0.978217 0.157248 0 -4 1 
8345 6 0.82771 0.998337 0.18147 -7 -4 -1 
8610 5 0.849903 0.0147064 0.162963 -1 2 4 
5598 6 0.578929 0.0181438 0.145474 3 1 -1 
5523 5 0.59653 0.0322602 0.196557 4 1 4 
8204 5 0.0322141 0.0240938 0.19291 0 1 -2 
7524 5 0.475735 0.0562335 0.224448 5 10 5 
5169 5 0.378511 0.0317543 0.188574 -5 5 1 
5894 6 0.678856 0.0605269 0.166324 1 -2 -1 
8929 6 0.843871 0.0205118 0.186983 1 1 0 
8329 5 0.15753 0.106934 0.180325 2 1 -6 