ITEM: TIMESTEP
20000000
ITEM: NUMBER OF ATOMS
9000
ITEM: BOX BOUNDS pp pp pp
-75 75
-75 75
-75 75
ITEM: ATOMS id type xs ys zs ix iy iz 
5039 5 0.636131 0.997824 0.985004 3 -1 0 
7449 6 0.16428 0.0293863 0.0359545 -2 -2 -3 
5177 6 0.518741 0.0183671 0.00313757 0 2 5 
5229 6 0.990205 0.000192437 0.0108341 7 0 5 
8913 5 0.899559 0.069052 0.972027 4 0 0 
5778 6 0.145017 0.0366865 0.99464 -2 -1 -9 
5469 5 0.488619 0.0621532 0.00447042 -2 6 3 
6232 5 0.127027 0.0959314 0.0377944 -2 3 4 
5788 5 0.369258 0.0903654 0.0191422 2 2 1 
7140 5 0.775161 0.121822 0.0236813 0 3 1 
5796 6 0.28393 0.137711 0.992702 0 -2 -2 
5591 5 0.29436 0.116843 0.0254256 0 0 1 
8044 5 0.512242 0.105156 0.0160809 2 -4 -2 
8052 6 0.620395 0.0968901 0.0426042 6 0 3 
7857 6 0.277676 0.124453 0.0222999 4 -2 2 
7504 6 0.379156 0.166436 0.0412625 2 0 -2 
5900 6 0.479328 0.170592 0.994932 2 3 -1 
7013 5 0.964841 0.121457 0.00377099 1 0 5 
6935 5 0.079851 0.168168 0.0317142 -2 0 5 
8262 5 0.906005 0.182856 0.0174678 0 1 1 
7749 5 0.626449 0.190145 0.000552493 1 -2 3 
8042 6 0.693543 0.195053 0.997521 5 -1 -3 
8428 6 0.526947 0.24272 0.00735263 -2 -2 -4 
6345 6 0.549958 0.220671 0.0253633 3 0 3 
7367 5 0.968904 0.23629 0.00465593 0 4 1 
6208 6 0.114367 0.237049 0.0437316 2 -1 -2 
7216 6 0.529519 0.26662 0.0244539 -3 -1 1 
8472 6 0.0678046 0.279519 0.0112165 3 -4 -1 
6117 6 0.112654 0.284071 0.0058496 0 2 -3 
7672 6 0.596125 0.251351 0.0142843 -2 2 0 
5318 6 0.432937 0.296831 0.00810143 3 1 -5 
8090 6 0.555487 0.316308 0.0174138 -2 2 -2 
6584 5 0.798655 0.282527 0.0276072 -1 1 0 
6767 5 0.101037 0.308999 0.0334716 -5 -4 -2 
6652 6 0.414952 0.332714 0.0156735 -1 1 1 
7892 6 0.0775319 0.391429 0.0102067 2 0 1 
5236 6 0.76624 0.400085 0.0306621 -4 -2 -1 
8290 6 0.943429 0.380452 -9.69986e-06 1 -2 3 
5488 6 0.12956 0.418354 0.0419664 1 -5 1 
5866 6 0.182122 0.36281 0.00132869 0 -1 1 
6125 5 0.515307 0.417014 0.0333329 -2 -1 1 
6007 5 0.691879 0.423966 0.953821 -2 -1 1 
8443 6 0.864143 0.388194 0.0330431 2 3 -1 
6321 6 0.966469 0.359687 0.0413122 0 1 2 
8899 6 0.139131 0.420802 0.0183339 0 -2 -1 
6249 6 0.133096 0.469284 0.0340691 2 4 -2 
5017 5 0.278913 0.430316 0.0472589 1 3 3 
6687 6 0.719931 0.410503 0.0137988 0 1 3 
7865 6 0.836885 0.47974 0.0249323 1 -2 -6 
7855 5 0.143643 0.481943 0.0310169 -1 1 6 
7363 5 0.91676 0.462325 0.0258324 -1 4 2 
5422 6 0.115676 0.483906 0.025375 -5 -4 -2 
6567 5 0.318529 0.496499 0.992704 0 -3 -1 
7257 6 0.812061 0.492586 0.0045095 5 -3 -3 
5817 6 0.138263 0.506205 0.0151016 -3 1 3 
7354 6 0.664511 0.552286 0.0179864 0 1 -1 
5271 6 0.812091 0.551766 0.979095 3 -2 -2 
6041 6 0.0808355 0.532669 0.0240873 2 -2 3 
8716 6 0.674281 0.556859 0.0111247 -5 5 2 
7196 6 0.982721 0.609591 0.0311673 -2 -2 1 
7784 5 0.0817742 0.618218 0.025676 -5 1 3 
6389 5 0.782536 0.639588 0.997738 3 -1 -2 
7292 6 0.250282 0.602464 0.0655956 -3 -3 7 
7540 5 0.837324 0.659407 0.0205397 -2 2 1 
6200 6 0.882 0.67505 0.0125087 0 -3 3 
5257 5 0.318987 0.654173 0.0066229 -3 3 1 
8884 6 0.320318 0.691399 0.000606171 1 0 5 
8281 6 0.273024 0.72127 0.0259589 1 4 2 
8866 6 0.415288 0.712978 0.0157582 5 3 2 
6186 6 0.567804 0.717568 0.00681596 0 5 2 
6616 5 0.212692 0.750421 0.0119778 -1 -4 1 
7360 6 0.106714 0.764306 0.0121083 6 1 -3 
5327 6 0.136969 0.732609 0.0271238 0 -5 -6 
7637 6 0.260737 0.726598 0.0145899 2 -2 -3 
5571 6 0.674748 0.789165 0.993998 1 1 2 
7689 5 0.977962 0.788238 0.0315271 1 0 0 
7455 5 0.998439 0.780845 0.0338139 -3 -2 2 
5149 5 0.0566809 0.787735 0.0306679 1 -1 5 
5274 5 0.733553 0.855867 0.0394587 1 1 -3 
5585 5 0.223071 0.846291 0.0204974 -3 -2 5 
7730 6 0.0818232 0.879139 0.985781 1 3 0 
8436 5 0.431956 0.877644 0.988954 -11 -6 0 
5173 6 0.819689 0.856018 0.0123742 1 2 1 
7183 5 0.239917 0.860351 0.0234283 0 -3 6 
8207 6 0.0544688 0.938856 0.99579 0 2 -1 
6784 6 0.267418 0.973029 0.969097 -4 -1 -1 
6639 6 0.355653 0.93791 0.0396191 -1 -2 6 
5842 5 0.395714 0.974801 0.951779 -2 -6 0 
6945 6 0.0248949 0.980935 0.0109786 -4 -4 1 
8134 6 0.30676 0.967499 0.0175007 4 -5 2 
6657 5 0.442336 0.973113 0.994402 -2 1 -1 
5199 6 0.438343 0.961252 0.00515985 1 0 -1 
5309 5 0.496713 0.943743 0.0132668 -1 -2 0 
6965 6 0.655244 0.97312 0.0489355 4 0 0 
7307 5 0.810679 0.946577 0.000263404 0 2 -6 
8097 6 0.208866 0.00187043 0.0330547 2 5 3 
5319 5 0.0324219 0.996927 0.0182943 -5 1 -2 
7712 6 0.956893 0.0337831 0.0333367 1 4 -1 
8854 6 0.590195 0.043538 0.025751 0 -3 0 
8333 6 0.920427 0.0155687 0.020877 -1 2 1 
5134 5 0.204784 0.0771821 0.00277228 1 3 3 
5375 5 0.82507 0.0726272 0.0257624 0 7 1 
5947 6 0.95607 0.0981116 0.0551001 -3 -2 -2 
8886 5 0.79552 0.113342 0.0629909 -2 -1 -4 
8959 5 0.381151 0.113432 0.0168287 4 1 -3 
7923 6 0.268149 0.141821 0.052386 -2 -3 -2 
8779 6 0.27447 0.169109 0.0329059 3 -2 2 
5932 5 0.44038 0.16834 0.064688 0 -3 8 
6953 6 0.781663 0.194637 0.0727263 0 5 -1 
8842 5 0.502172 0.182762 0.0275336 -4 0 -2 
7731 5 0.728683 0.201988 0.0191121 0 -1 -1 
5391 6 0.897933 0.245918 0.0445719 4 -2 -2 
7172 6 0.538617 0.274534 0.00484337 2 4 0 
7492 6 0.666641 0.22078 0.0168325 -1 -1 -1 
6040 6 0.167005 0.254127 0.017398 2 0 -2 
5378 5 0.0526561 0.31902 0.990157 1 0 -1 
6557 6 0.711909 0.283912 0.044798 3 1 -4 
8175 5 0.566126 0.311754 0.0432813 0 1 0 
5485 5 0.0275226 0.35083 0.0108898 3 -3 0 
6845 6 0.401257 0.371991 0.0354704 -4 -3 2 
5281 6 0.967426 0.353828 0.0196398 -1 1 3 
6487 5 0.25342 0.358292 0.0237148 0 5 2 
5603 5 0.58506 0.384987 0.0353807 -1 2 5 
6960 6 0.0938926 0.383981 0.0511842 -3 -2 3 
6927 6 0.701407 0.423558 0.0174468 -1 -9 -1 
7107 6 0.19335 0.444304 0.00627557 0 -1 0 
5558 5 0.186454 0.460439 0.0620694 2 -1 -2 
5746 6 0.912964 0.475964 0.994343 -2 -1 -3 
5317 6 0.145902 0.509523 0.0472191 -1 3 2 
6721 6 0.305834 0.48408 0.0221839 -2 2 -1 
8774 5 0.572771 0.491432 0.00991533 3 3 2 
5806 5 0.76032 0.501023 0.029544 0 -2 -8 
5583 6 0.107715 0.549438 0.0469782 1 0 2 
5346 5 0.381951 0.52711 0.050993 2 -3 3 
8733 5 0.442074 0.486398 0.0167423 -2 0 0 
7213 6 0.0363656 0.538108 0.0134316 3 -4 4 
5766 6 0.702536 0.559425 0.0188334 2 3 -3 
5655 6 0.336627 0.575654 0.0180428 -2 2 1 
8324 5 0.717305 0.625449 0.0528019 -4 -4 -5 
6892 6 0.764168 0.593505 0.00300215 0 -2 1 
8957 5 0.895274 0.580288 0.0210015 -5 -4 -3 
7523 6 0.386829 0.637653 0.0514638 -6 -2 5 
5800 6 0.681154 0.619156 0.0321388 1 1 -2 
8577 6 0.025999 0.655348 0.0821684 -2 4 2 
6609 6 0.584425 0.632766 0.0209358 1 2 0 
8387 6 0.289908 0.654922 0.0650234 -2 -3 2 
8506 5 0.727027 0.698175 0.0623018 -2 3 2 
5334 6 0.714786 0.737839 0.0281361 4 -5 -2 
6740 5 0.851306 0.779656 0.055245 -1 0 0 
5492 6 0.911883 0.726082 0.0366827 -2 -2 0 
6802 6 0.944894 0.710013 0.020733 0 0 -4 
8943 6 0.0506488 0.779099 0.00871895 1 -2 0 
5104 6 0.429876 0.735479 0.00950431 0 1 -2 
8588 6 0.406064 0.81985 0.0463127 2 -2 -4 
7240 5 0.665845 0.81245 0.0158194 0 -7 0 
8524 6 0.828768 0.747396 0.0300729 -3 4 3 
5095 6 0.0903149 0.82624 0.0203633 -2 0 6 
6565 6 0.388071 0.852124 0.0151924 -1 0 1 
8335 6 0.393945 0.895005 0.0275955 -1 -5 4 
7656 6 0.519483 0.893528 0.0560128 -1 2 -3 
5435 6 0.172184 0.895997 0.0605261 -3 2 -4 
7946 5 0.546547 0.909916 0.0501734 5 2 5 
8655 6 0.594384 0.902304 0.000799269 2 -7 3 
6224 6 0.249752 0.910286 0.996082 2 -6 -1 
8209 6 0.319385 0.87054 0.0715772 1 -3 -2 
8478 5 0.924001 0.937173 0.0654639 -3 1 -3 
7463 5 0.60256 0.954533 0.0446715 -5 -1 -1 
6778 6 0.123439 0.951724 0.00791142 -1 -1 -3 
5234 6 0.890734 0.947821 0.0182577 -1 1 0 
5924 6 0.229586 0.0308556 0.020919 4 3 -1 
5479 5 0.909557 0.0245252 0.0533543 -1 1 -4 
7271 6 0.485293 0.0342925 0.0436864 -6 1 1 
7780 6 0.841808 0.0366737 0.0402514 2 -3 -2 
6591 6 0.497475 0.0903805 0.0877864 1 -3 2 
7537 5 0.593824 0.0302441 0.0417909 0 3 6 
6468 6 0.357677 0.116082 0.0879797 5 4 1 
8912 6 0.79376 0.122603 0.086132 4 7 -5 
8887 6 0.846891 0.0875612 0.0817537 0 1 3 
6876 5 0.411464 0.0924539 0.088168 -1 0 6 
8666 5 0.609809 0.120877 0.0908436 1 -4 -1 
8491 5 0.88477 0.110066 0.0652689 4 1 3 
6370 5 0.88843 0.109727 0.0114287 1 0 -2 
5051 5 0.135543 0.126315 0.0349434 2 0 -3 
8788 6 0.245239 0.135766 0.0309342 -2 0 6 
7619 6 0.59836 0.125209 0.0780669 3 4 4 
5657 5 0.621818 0.147973 0.0409066 -2 1 -2 
5838 6 0.207053 0.170506 0.0352034 6 1 2 
7645 5 0.882669 0.213319 0.0242908 3 0 4 
8786 6 0.0153523 0.173927 0.0383393 5 2 -4 
6805 5 0.639583 0.194033 0.0194791 -6 0 2 
5082 6 0.826163 0.241587 0.0876774 -3 -2 -1 
7335 5 0.292678 0.251691 0.037706 6 -1 -1 
7815 5 0.301802 0.251456 0.0826173 -1 0 3 
5245 5 0.376277 0.22937 0.0615419 2 0 3 
5047 6 0.500375 0.269717 0.0661378 0 4 2 
8847 5 0.829115 0.270062 0.0193781 3 -1 -2 
8422 6 0.86773 0.272448 0.0646631 -4 2 1 
7345 6 0.938229 0.281972 0.057776 -1 0 -4 
7760 6 0.252288 0.300689 0.0882427 0 1 5 
5016 5 0.633061 0.285678 0.0737166 -1 0 -6 
5950 5 0.647563 0.301887 0.0788676 1 -1 1 
8990 6 0.146347 0.322307 0.0464555 -1 -1 0 
7263 6 0.844907 0.345742 0.059581 -2 -1 2 
5965 5 0.974138 0.343346 0.0641579 1 -5 -4 
6314 6 0.220506 0.344703 0.0481856 -1 3 1 
8348 6 0.780308 0.320032 0.0951262 -1 5 2 
6233 5 0.205696 0.430822 0.075245 3 -2 2 
5091 5 0.249666 0.377381 0.0737481 5 -2 1 
6340 5 0.362527 0.405765 0.033096 -5 -3 -4 
8521 5 0.312226 0.409153 0.0912813 3 -2 -1 
8718 6 0.585683 0.410071 0.0572618 -6 1 3 
7052 5 0.681136 0.380812 0.0759519 -2 5 -1 
5659 6 0.221346 0.425318 0.0369698 -1 1 0 
6969 6 0.568461 0.413497 0.066935 2 1 3 
7203 5 0.467848 0.430364 0.0627252 -3 -1 -3 
6392 6 0.610289 0.443295 0.0756004 6 3 1 
7818 6 0.877988 0.447715 0.0192779 -6 -1 -2 
8007 5 0.163738 0.474247 0.0599355 1 -2 1 
7426 5 0.744682 0.427311 0.0521023 -4 7 1 
8907 5 0.190425 0.457675 0.049757 -3 5 -1 
6866 5 0.953272 0.475468 0.0330142 4 -3 3 
5227 6 0.353593 0.477572 0.0853038 0 -1 3 
7440 6 0.597517 0.482446 0.0409257 1 5 -3 
5581 6 0.154253 0.562556 0.0148916 -2 4 -4 
7852 5 0.862742 0.518615 0.0687532 4 -4 -1 
7948 5 0.0521269 0.521058 0.0405864 -2 -5 -2 
5058 5 0.846783 0.576655 0.0717392 -1 -1 0 
7024 5 0.354634 0.58973 0.0765494 6 1 1 
5987 6 0.0153165 0.622932 0.0256038 2 0 3 
7831 6 0.623515 0.63401 0.0647658 -3 -3 -3 
6612 5 0.0975674 0.646014 0.0491412 5 -1 1 
7851 5 0.787441 0.656217 0.053463 2 1 -1 
5154 5 0.80875 0.633255 0.0753205 -2 0 0 
5439 5 0.0531279 0.644838 0.0523309 -6 -1 -4 
7908 5 0.396334 0.645401 0.0704961 -3 -1 3 
6887 6 0.252467 0.723879 0.0505009 -2 5 3 
7972 6 0.181928 0.668689 0.0231212 -4 0 2 
8441 6 0.920814 0.701412 0.0662109 -1 2 2 
7833 6 0.0276052 0.718736 0.0184245 -3 -6 -1 
6105 6 0.240875 0.76336 0.0938337 1 -3 3 
7886 5 0.659506 0.840646 0.0265817 -2 1 0 
8188 5 0.155873 0.801521 0.0396752 0 -4 3 
8902 5 0.422782 0.856982 0.0505647 1 1 -2 
5574 5 0.52101 0.842794 0.0563647 4 -1 -1 
7602 6 0.454949 0.871638 0.0820986 0 1 0 
8932 5 0.998304 0.898744 0.0813873 -1 2 5 
6382 5 0.797358 0.910817 0.0745351 1 -3 -2 
5445 6 0.759698 0.933125 0.0814378 0 -4 -2 
6854 6 0.37105 0.95448 0.0556098 3 3 3 
8850 6 0.636764 0.954942 0.0817159 2 -2 2 
7053 5 0.759472 0.935846 0.0456032 3 -5 5 
5263 5 0.272653 0.990051 0.0664517 4 -2 -4 
7796 6 0.737076 0.961634 0.0342141 0 4 3 
5667 6 0.033373 0.042853 0.0662381 -1 0 1 
5706 5 0.19528 0.990555 0.0882353 -3 1 0 
5087 5 0.860245 0.00705894 0.0502177 1 1 1 
7370 5 0.879961 0.00878848 0.108442 0 5 3 
7256 6 0.86185 0.991328 0.0780957 1 1 -4 
8014 6 0.347795 0.0454345 0.0924312 1 1 0 
6544 6 0.508313 0.0512957 0.0861763 -7 -1 -4 
5524 6 0.246148 0.0676496 0.0981749 -2 -6 4 
5301 5 0.96217 0.0878239 0.0763398 5 -1 3 
8689 5 0.909982 0.106899 0.0679841 -5 -2 -1 
6475 6 0.677602 0.114585 0.0970861 -4 -4 0 
7532 6 0.519619 0.154056 0.0653356 -1 4 7 
7355 5 0.186908 0.172938 0.123797 1 0 1 
7434 6 0.332867 0.142163 0.0736231 -1 1 0 
6578 6 0.56551 0.155125 0.0840407 -2 0 2 
5150 5 0.360996 0.16744 0.0646496 -4 9 1 
5472 6 0.474628 0.26181 0.0769448 -3 3 -1 
6297 6 0.379264 0.277413 0.0706855 -3 -4 0 
5484 5 0.653598 0.279649 0.0881707 3 5 -3 
7325 5 0.938063 0.248425 0.0794366 5 0 0 
8221 5 0.123432 0.284794 0.0624301 3 0 -3 
6140 5 0.61113 0.294627 0.133527 1 3 1 
7646 6 0.99554 0.307718 0.0859325 -1 1 7 
7501 6 0.495672 0.298173 0.0668887 1 3 4 
7101 6 0.707574 0.297562 0.0636128 2 7 -3 
6364 5 0.813749 0.301792 0.108418 2 -2 1 
6351 6 0.409831 0.34299 0.0643177 3 -3 2 
8815 6 0.708113 0.333988 0.0882402 -1 -1 0 
5166 6 0.0246767 0.343028 0.0638213 3 1 3 
8127 5 0.288385 0.343834 0.0851925 -5 2 6 
8784 5 0.533436 0.415814 0.0512491 -3 0 -1 
8804 6 0.444844 0.408861 0.0885338 2 1 -3 
7676 5 0.520155 0.388405 0.121531 -2 2 -1 
5928 6 0.597017 0.35659 0.0881281 -1 0 0 
7969 5 0.92677 0.387678 0.104839 3 0 0 
5133 6 0.167205 0.426652 0.0868072 -5 5 -2 
7744 6 0.846366 0.390982 0.0923104 -4 -7 -1 
5094 5 0.923619 0.393638 0.0815301 -1 -2 1 
8194 6 0.0191251 0.401645 0.125203 6 2 1 
6888 6 0.445527 0.411167 0.0624031 3 1 1 
6705 5 0.613306 0.38753 0.106581 -1 3 3 
6411 6 0.658262 0.410631 0.0580193 3 1 1 
7066 5 0.0174287 0.464547 0.11398 2 -4 -1 
8812 6 0.0700271 0.432096 0.0905109 2 2 -2 
7823 6 0.270415 0.412174 0.0708973 -1 2 3 
7201 6 0.786319 0.448522 0.0510633 1 -1 4 
7391 6 0.419242 0.451322 0.0977468 1 -2 1 
5021 6 0.455486 0.520788 0.0855782 -4 -2 3 
7012 5 0.700342 0.533489 0.0226286 1 0 0 
8711 5 0.916605 0.527458 0.0823748 0 -2 -2 
6054 6 0.219168 0.540776 0.0647675 -2 6 -9 
7966 6 0.248996 0.526861 0.106907 0 -6 -2 
7911 6 0.270262 0.570023 0.107608 5 1 2 
8167 6 0.771307 0.600942 0.104276 -1 0 1 
8810 6 0.303276 0.599072 0.0969061 -2 2 2 
5707 6 0.372593 0.587773 0.0597948 6 -2 -2 
6033 6 0.279113 0.627364 0.103614 -4 -1 -2 
8970 6 0.553255 0.667043 0.0436858 1 0 -2 
6626 6 0.593222 0.70236 0.0758822 -1 2 1 
6071 6 0.53591 0.660459 0.084485 -2 1 0 
8548 6 0.581798 0.68412 0.107144 5 -1 4 
5243 5 0.635319 0.667133 0.0853634 3 0 -2 
7711 5 0.784813 0.628527 0.093354 0 3 0 
6938 6 0.640082 0.68296 0.0513481 2 0 -2 
8673 6 0.350284 0.715191 0.0671288 0 -2 -1 
5521 5 0.688853 0.682163 0.0406126 -1 4 0 
6662 6 0.475007 0.739554 0.0725349 6 -1 -1 
7906 6 0.680351 0.729277 0.0868184 1 -4 3 
8360 5 0.933589 0.749583 0.0903844 -2 1 -2 
5572 6 0.319341 0.76801 0.112709 5 -2 1 
5011 5 0.736302 0.762746 0.0563323 -5 -1 0 
5340 6 0.376665 0.795924 0.0606625 -2 0 3 
6018 6 0.548578 0.770429 0.0730118 1 -3 2 
7570 6 0.768668 0.800598 0.051783 -3 -1 4 
8603 5 0.41526 0.781749 0.0622391 -2 1 -1 
5841 6 0.450622 0.843031 0.065124 5 -1 1 
7457 5 0.873452 0.799457 0.0663481 1 -3 1 
7312 6 0.146803 0.912921 0.100807 2 5 3 
8490 6 0.154387 0.931414 0.108627 2 0 3 
8650 5 0.554215 0.84009 0.102357 2 0 -2 
8079 5 0.829316 0.948406 0.073035 1 -2 2 
7039 6 0.844461 0.918806 0.0858303 -2 -3 0 
6258 6 0.873916 0.920086 0.0616509 -4 -2 2 
7841 5 0.115677 0.960327 0.0650966 6 -2 -4 
5430 6 0.461163 0.998421 0.0844845 3 -2 7 
6503 5 0.734004 0.977983 0.0830953 5 -1 -2 
5941 6 0.426829 0.956479 0.0924786 4 -1 -1 
7678 6 0.602593 0.0281969 0.114534 2 2 6 
7478 6 0.216769 0.0186753 0.12145 -1 2 3 
5132 5 0.783245 0.0282116 0.116427 -3 -3 -1 
6690 6 0.465111 0.0608136 0.108918 0 -2 3 
8727 5 0.886507 0.046917 0.0790546 -2 4 1 
8202 6 0.970188 0.0912916 0.10039 -4 -1 5 
7557 5 0.273816 0.108009 0.113513 4 -2 6 
5520 5 0.695994 0.0843334 0.0960391 -2 2 1 
5978 6 0.760208 0.122362 0.0877816 0 -1 0 
8433 6 0.498224 0.169835 0.0905553 2 -4 -1 
8789 5 0.544888 0.163721 0.0929603 2 4 8 
8345 6 0.129306 0.118798 0.139687 -4 5 0 
7566 6 0.185898 0.210757 0.0940787 2 4 3 
8636 6 0.249539 0.183893 0.120999 -2 2 2 
8724 6 0.664445 0.188245 0.087378 -3 -6 2 
8834 6 0.800246 0.213897 0.119458 4 0 2 
8300 6 0.109811 0.220265 0.0865899 8 1 2 
7460 6 0.43848 0.266403 0.074331 2 -4 -2 
6814 6 0.472082 0.211161 0.0842378 4 -1 0 
7033 6 0.844578 0.234558 0.0951509 2 -1 6 
5085 6 0.995873 0.21073 0.0958047 3 0 2 
7384 5 0.114478 0.269545 0.140772 1 3 -4 
7491 5 0.44353 0.243266 0.0622712 2 -2 -1 
7277 5 0.60532 0.219328 0.144026 3 0 0 
8956 6 0.552797 0.279987 0.0857403 -2 2 0 
7981 6 0.788704 0.264341 0.0982061 -1 -3 2 
7323 6 0.0902798 0.29132 0.0856121 2 4 3 
6016 6 0.138218 0.318829 0.0828486 1 0 1 
8469 5 0.321105 0.323915 0.105826 0 -2 -5 
5724 5 0.612158 0.334686 0.0998054 0 0 1 
6510 5 0.641684 0.291075 0.134374 -1 -1 0 
5690 5 0.204747 0.33367 0.0964009 2 2 3 
5617 5 0.543698 0.357297 0.0877521 -2 3 -4 
8927 6 0.401639 0.383781 0.0931897 -3 4 2 
7399 6 0.121598 0.421914 0.108587 -1 -3 -1 
7332 6 0.00214676 0.417544 0.0716544 3 0 2 
5723 5 0.078034 0.450662 0.113791 -2 -1 -1 
6395 5 0.19635 0.461366 0.0933555 2 -2 -1 
8838 6 0.614538 0.491625 0.105255 -1 -6 2 
8680 6 0.931206 0.449462 0.113048 0 3 0 
5799 6 0.94347 0.448578 0.0850751 -5 0 2 
6858 5 0.585046 0.435632 0.114503 2 4 1 
7388 6 0.00876367 0.560302 0.092681 2 -6 6 
5991 5 0.287399 0.5256 0.0921692 1 2 1 
8722 6 0.837934 0.495138 0.105572 1 3 2 
7878 6 0.546922 0.598642 0.10648 -4 1 1 
8721 5 0.552864 0.616911 0.0931885 -3 0 -3 
8350 5 0.709167 0.663185 0.115168 1 3 3 
6754 5 0.809971 0.668209 0.100642 1 -3 -4 
6963 6 0.593241 0.690194 0.0931842 -6 4 -3 
7846 6 0.171388 0.741241 0.109978 2 -4 -1 
5044 6 0.694227 0.730159 0.1231 3 1 3 
7321 6 0.628234 0.738575 0.0887812 1 -3 -3 
8621 5 0.109813 0.801053 0.123205 -1 1 3 
7881 5 0.195193 0.811303 0.126078 1 3 1 
5744 5 0.51221 0.77327 0.12826 0 2 2 
8563 5 0.79373 0.786316 0.071334 7 -6 -3 
8081 6 0.875402 0.772686 0.0989514 -1 -2 -1 
6399 6 0.602904 0.777214 0.0830544 -1 1 1 
8897 5 0.0794784 0.864798 0.0948508 1 0 -1 
7442 6 0.169012 0.821494 0.101327 -2 0 -2 
7802 5 0.567359 0.851821 0.0832779 1 0 2 
6383 5 0.0342988 0.868623 0.0974925 -1 -1 2 
6113 6 0.588719 0.853994 0.0887675 -2 -2 2 
5729 6 0.141845 0.900327 0.123705 3 2 4 
6577 6 0.185448 0.869344 0.103379 -5 3 1 
5140 6 0.593578 0.88797 0.116688 -2 0 2 
5288 5 0.982653 0.919822 0.0983804 1 5 1 
6118 5 0.145161 0.934615 0.12606 1 -5 0 
6398 5 0.194315 0.900808 0.0980705 -2 -2 3 
5269 5 0.475241 0.936731 0.106962 -2 4 -4 
7884 5 0.680819 0.914139 0.10387 0 -2 0 
8835 6 0.749046 0.895658 0.0675647 1 -1 -2 
5847 6 0.17152 0.924124 0.0940984 -1 2 0 
8140 6 0.542514 0.899245 0.100599 -2 4 -1 
8403 6 0.852297 0.928225 0.0932851 -9 -4 4 
6407 5 0.347952 0.955017 0.111738 2 -7 1 
7326 5 0.347978 0.985417 0.0950136 -1 2 -1 
5871 5 0.593036 0.967132 0.105669 0 -4 4 
7433 6 0.952781 0.978268 0.0784838 2 6 1 
6986 6 0.505056 0.00216638 0.0764742 -4 0 0 
6600 5 0.533121 0.99444 0.105154 3 -3 0 
7753 6 0.663534 0.993088 0.074133 -6 0 5 
8632 6 0.891517 0.975737 0.100891 -2 -3 4 
6611 6 0.861838 0.0294554 0.15135 -2 -2 0 
7063 5 0.654932 0.0620238 0.123978 -1 0 -2 
8876 6 0.854384 0.0581987 0.143109 0 9 -3 
7531 6 0.721736 0.0614447 0.0860338 1 -4 -4 
5593 6 0.437874 0.0735013 0.0734244 -4 -4 0 
8754 5 0.435139 0.103306 0.143366 0 0 0 
5153 5 0.642042 0.135127 0.130874 -3 -3 -1 
8231 5 0.903251 0.160673 0.107367 -1 -1 5 
7138 5 0.357643 0.141537 0.109533 5 3 -3 
7499 6 0.667237 0.180867 0.0891013 -3 1 0 
6715 5 0.206196 0.186461 0.11216 1 0 3 
6451 5 0.212686 0.22302 0.11109 3 1 0 
6775 6 0.283832 0.252747 0.105584 0 2 0 
6506 6 0.0393883 0.169427 0.124095 2 1 1 
6317 6 0.503502 0.201583 0.126366 -2 -1 -2 
8035 5 0.567819 0.214122 0.0885867 1 0 0 
8247 6 0.907753 0.250519 0.111211 2 4 -2 
8266 6 0.281612 0.272744 0.127305 -1 -3 3 
7262 6 0.381258 0.241422 0.123478 -5 -1 2 
6790 6 0.488016 0.238866 0.136493 -3 4 4 
6795 6 0.335561 0.267153 0.0972923 -5 3 -6 
6030 6 0.510662 0.261173 0.111259 4 0 2 
5698 6 0.709684 0.330161 0.0971806 -2 3 1 
7954 6 0.393491 0.280796 0.147587 -5 -5 4 
7129 6 0.920113 0.31384 0.12433 0 -2 4 
8408 6 0.332671 0.350049 0.15445 0 -3 0 
6346 5 0.413118 0.332725 0.122721 -2 -2 -3 
8128 6 0.926206 0.328681 0.10321 -5 2 0 
5312 5 0.0388873 0.371653 0.112198 3 2 -3 
6427 5 0.556175 0.342865 0.13415 -3 -3 0 
7612 5 0.827051 0.357408 0.159101 1 -1 3 
5680 6 0.473817 0.352523 0.119732 2 3 1 
7748 5 0.696234 0.390275 0.163636 5 0 0 
7067 6 0.98684 0.310332 0.104754 -3 -3 -2 
8468 5 0.0948544 0.383657 0.123089 -1 4 5 
5665 5 0.554308 0.388026 0.169088 -1 1 -1 
7231 5 0.395004 0.457674 0.124003 6 -2 0 
6104 5 0.697894 0.450606 0.129072 2 -7 -1 
8020 5 0.810368 0.40622 0.0877584 0 -3 -4 
7657 5 0.996132 0.414803 0.151156 2 2 -1 
8618 5 0.0751375 0.454112 0.122305 -1 -5 3 
7030 5 0.552835 0.436757 0.113139 0 4 0 
6150 5 0.69023 0.46712 0.120368 0 4 -3 
6975 6 0.297893 0.521194 0.123748 1 3 1 
7425 6 0.982214 0.508852 0.140451 -6 -1 0 
8729 6 0.752777 0.516669 0.112451 -4 3 -2 
6836 5 0.971751 0.541898 0.130569 -5 2 3 
7895 6 0.535607 0.535818 0.0844366 1 0 -2 
6248 6 0.948297 0.553189 0.0767383 9 -2 -2 
8467 6 0.0579787 0.597032 0.117333 2 -2 2 
6256 6 0.542112 0.596274 0.121216 -3 3 0 
5392 6 0.805919 0.593818 0.125823 -3 -4 -3 
5648 6 0.347533 0.615641 0.14268 2 -8 0 
5285 5 0.495217 0.63565 0.102288 2 5 -3 
5726 6 0.979163 0.657888 0.153258 -2 -6 6 
8968 5 0.989427 0.653771 0.111546 3 3 0 
6467 6 0.0158099 0.662346 0.129297 -1 1 1 
6454 6 0.417988 0.717227 0.106294 0 -1 1 
5084 5 0.0503092 0.771964 0.142466 -3 2 1 
6466 5 0.124522 0.727243 0.15104 0 1 1 
7080 6 0.650186 0.732314 0.0893723 -4 -1 0 
7630 6 0.651433 0.749448 0.141026 -6 0 5 
6777 6 0.646085 0.76574 0.075006 3 0 -3 
5818 6 0.669445 0.804245 0.115811 -2 4 -3 
5032 6 0.853787 0.802866 0.113922 3 -2 -2 
7163 5 0.907855 0.79995 0.102444 -3 -7 3 
6596 6 0.122225 0.811841 0.12591 1 0 -4 
7907 6 0.54578 0.747711 0.147416 -3 -3 2 
5528 6 0.210271 0.823218 0.0973843 -1 -3 -2 
5553 6 0.468584 0.852706 0.160179 0 1 2 
6988 6 0.286229 0.90026 0.0629213 0 3 0 
8163 6 0.757912 0.893891 0.110386 1 4 0 
6917 5 0.986212 0.849688 0.11704 0 3 1 
5547 5 0.174333 0.883275 0.101668 2 1 3 
5651 6 0.166811 0.921698 0.0996001 4 -4 -5 
6220 6 0.875747 0.89398 0.101672 0 0 -3 
7493 6 0.0905903 0.881936 0.118322 -3 2 0 
5489 5 0.516549 0.938466 0.119459 0 -3 3 
7095 5 0.565041 0.968913 0.0955602 2 -3 0 
6749 5 0.57716 0.967197 0.186789 2 -3 -2 
7237 6 0.441054 0.965017 0.113356 3 -4 2 
5868 5 0.813814 0.963126 0.131566 -7 -3 -2 
8056 6 0.175229 0.979008 0.131622 4 3 3 
8869 5 0.260489 0.00356531 0.120319 3 -3 6 
6800 5 0.850512 0.0140261 0.16557 -2 -2 5 
6146 6 0.0642603 0.975559 0.156874 -4 -3 1 
6962 6 0.253043 0.0221201 0.125729 2 0 1 
7212 5 0.873556 0.0679481 0.105733 0 -1 -2 
8602 6 0.273092 0.0870126 0.139768 1 -5 4 
7675 5 0.861149 0.0985091 0.135949 1 1 3 
5843 6 0.322736 0.0690609 0.137733 2 4 -1 
6709 5 0.161769 0.120912 0.14022 1 -1 -2 
7816 6 0.600412 0.0958573 0.159871 -1 -2 3 
7000 5 0.516554 0.136599 0.164771 2 2 2 
7569 5 0.823943 0.136244 0.13461 0 -4 -2 
5148 6 0.527728 0.153115 0.117198 3 -3 1 
5043 6 0.445135 0.192533 0.108429 -4 5 0 
8868 6 0.332673 0.209419 0.152631 3 3 3 
6390 5 0.391927 0.227051 0.161384 1 5 0 
7238 6 0.437465 0.199926 0.161766 0 1 -4 
8139 6 0.470393 0.214199 0.186993 -4 -7 1 
5405 6 0.781085 0.197581 0.189588 5 0 2 
5357 5 0.485457 0.248842 0.118458 2 1 0 
7942 6 0.732782 0.246122 0.146653 2 1 2 
6136 6 0.0729046 0.303819 0.141049 1 -4 -4 
7316 5 0.744481 0.29406 0.103719 -1 -2 3 
7445 6 0.719239 0.307455 0.173853 -7 8 0 
7186 5 0.0887108 0.341024 0.140656 3 5 4 
8339 6 0.173521 0.324512 0.15839 0 0 1 
7515 6 0.851593 0.319084 0.124389 -3 2 3 
8031 6 0.638197 0.327299 0.141228 2 -1 3 
5721 6 0.422318 0.316375 0.132206 0 3 -2 
5967 6 0.575156 0.390215 0.15542 -2 1 0 
8257 6 0.68306 0.377746 0.137531 -2 3 1 
7680 6 0.754658 0.347123 0.146998 1 -1 4 
5329 5 0.971481 0.336208 0.113281 -1 -3 3 
6650 6 0.0948044 0.392759 0.170412 -2 -4 -4 
7577 6 0.180046 0.398932 0.174002 5 -1 1 
7069 6 0.265722 0.362407 0.168553 -1 1 4 
6608 5 0.332349 0.408372 0.148247 1 1 3 
6972 6 0.586389 0.406468 0.147637 1 4 2 
5247 5 0.830436 0.398734 0.122267 -3 -1 -3 
8634 5 0.502715 0.438438 0.142217 -5 2 0 
8567 5 0.834489 0.422564 0.181836 -2 -7 1 
5936 5 0.00375816 0.46633 0.157711 8 -2 1 
6010 5 0.0240015 0.393732 0.133354 2 -7 6 
7009 5 0.184951 0.443051 0.101021 -2 -2 -8 
8808 5 0.32089 0.441557 0.162614 5 0 -3 
7605 6 0.442205 0.377627 0.113721 -2 -1 -6 
7423 6 0.169811 0.489912 0.164007 2 -2 -1 
6860 6 0.393713 0.457219 0.183659 -3 -2 -2 
6228 6 0.862585 0.46195 0.121734 -7 0 3 
6275 6 0.128799 0.47311 0.189906 0 -1 3 
8845 5 0.711367 0.588114 0.124832 4 -1 3 
8185 6 0.22134 0.591288 0.111208 -3 -2 1 
5343 5 0.0753017 0.608373 0.130766 0 1 2 
7410 5 0.899429 0.571793 0.133229 3 0 2 
5714 5 0.44805 0.614766 0.154466 -1 -2 -2 
5102 6 0.679124 0.673868 0.150703 3 -2 -4 
6857 5 0.0919549 0.69507 0.123241 -1 2 1 
8960 5 0.400146 0.687776 0.13392 -5 -3 6 
8099 5 0.431871 0.675503 0.112564 5 -1 -1 
5048 5 0.851506 0.674088 0.159473 -3 -3 1 
6496 5 0.203921 0.703458 0.185471 0 1 2 
8060 5 0.473695 0.694627 0.157692 0 -7 -2 
5916 6 0.758143 0.684974 0.168294 5 2 2 
8065 5 0.0679471 0.701935 0.169039 2 -2 -6 
8777 5 0.399428 0.696146 0.141555 -3 -1 -1 
5569 6 0.610564 0.74598 0.113858 3 2 0 
5829 5 0.817175 0.752424 0.186618 -5 0 0 
8651 5 0.957093 0.770048 0.120229 -4 1 -1 
7381 6 0.0107488 0.790202 0.144633 3 -3 4 
7232 5 0.959772 0.814844 0.128439 -1 3 2 
7640 6 0.321356 0.790682 0.135631 -6 4 4 
8635 6 0.0225634 0.778364 0.109776 1 4 2 
8691 5 0.492587 0.826191 0.163789 2 0 3 
5730 6 0.949433 0.799198 0.157768 -2 -1 -4 
7697 5 0.24091 0.871622 0.131994 3 0 -4 
5070 6 0.773592 0.843474 0.121861 4 0 7 
7065 6 0.589818 0.891824 0.107596 2 -1 0 
8991 5 0.0295902 0.908544 0.156624 4 -5 2 
7900 6 0.127432 0.873571 0.17488 0 -6 3 
6385 6 0.2089 0.940848 0.148292 -2 1 2 
8388 5 0.357496 0.959505 0.132604 -3 0 0 
8492 6 0.784947 0.941044 0.140758 -2 2 6 
6638 6 0.143464 0.934159 0.112761 -6 4 -5 
7074 6 0.286276 0.975076 0.153502 0 -1 2 
8269 5 0.41163 0.96859 0.175264 -3 -1 2 
8392 6 0.874849 0.982988 0.163316 -3 0 2 
5578 6 0.0955776 0.971787 0.149326 -2 -5 -1 
7607 6 0.792148 0.988685 0.147788 -1 0 0 
7489 5 0.112371 0.00715953 0.166317 -3 -1 -6 
6999 5 0.444358 0.0131642 0.19539 1 -2 3 
5176 5 0.461381 0.0813338 0.165727 -3 1 -1 
6357 5 0.5734 0.0848974 0.144699 2 2 -1 
6765 6 0.677207 0.0678856 0.150745 -7 1 -2 
6058 5 0.968789 0.0835335 0.179057 -1 -2 3 
6151 5 0.0566511 0.154728 0.193829 0 3 3 
5427 6 0.267601 0.167875 0.147232 3 0 0 
7132 5 0.334977 0.120179 0.145266 5 5 1 
6894 5 0.578171 0.150316 0.161095 -3 4 1 
5988 5 0.587242 0.113711 0.170439 1 3 -2 
7454 5 0.235673 0.201509 0.191929 2 5 -3 
6551 5 0.4425 0.211933 0.180489 2 -1 8 
8019 6 0.787431 0.200911 0.149025 3 4 -1 
7309 6 0.0530793 0.25665 0.20327 -6 0 3 
6183 6 0.498606 0.243541 0.160714 0 -1 4 
7613 5 0.699296 0.210947 0.175652 6 1 7 
5619 6 0.0751814 0.234444 0.190736 2 0 0 
6921 6 0.285245 0.271343 0.189126 1 4 -3 
8488 5 0.993112 0.292267 0.189872 2 -1 -4 
8314 5 0.0536754 0.29661 0.155277 -1 0 1 
6971 6 0.200479 0.268577 0.151303 0 2 3 
7043 5 0.0655445 0.303818 0.126178 -1 -5 1 
8624 5 0.529049 0.268792 0.16857 1 0 -1 
5007 6 0.640061 0.278524 0.204745 3 -2 -3 
5198 5 0.175816 0.3293 0.182535 2 -1 -5 
8321 6 0.631135 0.351845 0.202672 0 1 0 
5481 6 0.193467 0.422167 0.168791 0 2 0 
8539 5 0.509736 0.356229 0.158947 0 -6 0 
8859 5 0.843884 0.376239 0.185522 -1 0 4 
6172 6 0.938833 0.418402 0.1335 1 -7 2 
8696 6 0.0204732 0.488348 0.167777 3 3 2 
8775 5 0.288028 0.4923 0.180403 2 2 4 
7917 6 0.356664 0.440015 0.150642 4 4 3 
6032 5 0.598193 0.430987 0.192134 1 -3 3 
6982 5 0.724793 0.484041 0.168244 2 2 0 
7210 5 0.278335 0.474636 0.201724 2 0 7 
8817 6 0.145596 0.516245 0.177516 -4 1 1 
7971 6 0.296508 0.575773 0.171371 4 5 -5 
5737 6 0.994004 0.524888 0.139854 2 -6 3 
5850 6 0.414497 0.548073 0.162142 1 0 -5 
7543 6 0.0681253 0.607414 0.171495 2 -4 1 
7931 5 0.583349 0.62491 0.131721 -3 6 -2 
5031 6 0.647614 0.578586 0.145514 -1 -6 4 
6065 6 0.101714 0.640409 0.132057 1 1 1 
7109 6 0.435356 0.623886 0.182755 -4 0 -3 
7401 5 0.652752 0.639887 0.163136 -5 -3 -3 
5753 6 0.186871 0.662463 0.139139 5 2 7 
6733 6 0.319279 0.669882 0.146557 3 0 6 
8246 6 0.378604 0.700539 0.161883 -1 -2 6 
7869 6 0.404501 0.663426 0.170311 3 1 -4 
5970 6 0.539172 0.675912 0.13358 -2 1 3 
6070 5 0.686434 0.706607 0.1649 -2 0 4 
7098 5 0.953741 0.716409 0.191944 4 -1 0 
6011 6 0.034477 0.721762 0.18338 1 -3 1 
7330 6 0.057032 0.678956 0.187052 0 2 7 
6633 5 0.138692 0.651018 0.176205 -2 1 3 
7999 6 0.481353 0.735142 0.137756 1 -2 3 
7915 6 0.289128 0.702114 0.143067 1 -3 5 
6691 6 0.406069 0.723017 0.173553 -2 0 0 
7266 6 0.112408 0.720357 0.151726 4 -1 4 
6189 6 0.324817 0.708985 0.169739 0 -2 4 
6166 6 0.851801 0.720274 0.163742 -5 -2 -8 
8340 5 0.368729 0.754552 0.170866 -1 2 -2 
6937 6 0.440459 0.729021 0.157464 -4 1 -2 
5890 6 0.800548 0.772917 0.144143 -6 -2 3 
6184 6 0.753104 0.830297 0.134954 4 1 -1 
6867 6 0.0848221 0.851952 0.18716 3 -1 2 
6270 5 0.0473275 0.856634 0.19045 2 -4 0 
6432 6 0.334966 0.870671 0.196994 -3 3 -2 
5573 6 0.904977 0.884861 0.187187 0 -5 0 
5682 5 0.991028 0.863494 0.201345 -2 -3 0 
7285 5 0.901721 0.907777 0.158327 -1 7 3 
6377 6 0.755694 0.959987 0.2017 -5 4 1 
5756 6 0.936043 0.88152 0.154185 1 1 3 
8306 6 0.704647 0.929468 0.13994 0 -4 1 
5419 5 0.380469 0.944465 0.166448 0 1 0 
7076 6 0.385516 0.0384492 0.179897 0 -1 3 
8384 6 0.450854 0.00429781 0.172201 1 4 2 
8442 5 0.616583 0.99738 0.160358 -3 -1 4 
5117 5 0.605219 0.0530235 0.206154 3 1 1 
7658 6 0.719487 0.0632924 0.164862 0 -4 -4 
5787 5 0.783179 0.0452806 0.174444 1 -2 -5 
8565 6 0.962391 0.100542 0.188329 2 3 2 
5444 6 0.24011 0.0860475 0.188452 2 0 -2 
8372 6 0.243075 0.0823755 0.174851 2 -1 -4 
8192 6 0.629595 0.118057 0.219232 -2 -7 0 
7458 6 0.244661 0.110788 0.21405 4 4 8 
6865 6 0.324851 0.160798 0.148924 5 -2 0 
6907 5 0.0838846 0.17086 0.172732 -1 -2 0 
8255 5 0.791628 0.145705 0.244259 -3 -1 4 
8378 5 0.239969 0.1523 0.175705 -3 -1 1 
6618 5 0.612849 0.191837 0.181753 1 2 -8 
5146 6 0.682345 0.190978 0.19012 0 2 -3 
5526 6 0.867332 0.159391 0.189154 4 -1 0 
7682 5 0.893575 0.150677 0.199096 1 2 1 
6036 5 0.0306546 0.176022 0.224697 0 1 2 
6290 5 0.0959487 0.18574 0.205444 0 5 -4 
6955 6 0.184868 0.191161 0.201554 -7 0 2 
8652 5 0.282375 0.187631 0.161798 1 -4 0 
6455 5 0.447386 0.20655 0.204753 -3 5 -3 
8294 5 0.658394 0.206394 0.203157 -1 4 3 
7588 5 0.321294 0.197608 0.172415 2 0 2 
7180 5 0.345579 0.219555 0.169127 -2 4 -6 
6676 5 0.382375 0.270827 0.212598 3 -3 4 