ITEM: TIMESTEP
20000000
ITEM: NUMBER OF ATOMS
9000
ITEM: BOX BOUNDS pp pp pp
-75 75
-75 75
-75 75
ITEM: ATOMS id type xs ys zs ix iy iz 
7209 6 0.97285 0.985229 0.014112 -4 -2 2 
6342 5 0.246909 0.0778629 0.995369 -1 2 1 
5564 5 0.722409 0.0723676 0.00979549 3 -3 1 
6785 5 0.821424 0.0610747 0.0146043 -2 5 1 
6302 6 0.433981 0.07799 0.0150873 -2 3 -1 
6216 5 0.726451 0.0979965 0.0350618 2 3 4 
7697 5 0.626 0.122089 0.028078 3 1 4 
5201 6 0.860954 0.115258 0.0538627 0 3 2 
7973 5 0.895982 0.105325 0.0155503 6 -3 2 
6806 6 0.555923 0.197292 0.0347938 0 5 6 
8793 5 0.614624 0.191209 0.00699112 0 3 5 
6053 6 0.262411 0.218868 0.0196687 3 3 0 
6561 6 0.617857 0.19811 0.010802 2 0 -1 
7771 5 0.80933 0.241245 0.00785699 3 0 0 
7528 6 0.722153 0.227949 0.022499 0 -3 -1 
8191 5 0.942252 0.243388 0.997987 2 -4 -2 
7498 6 0.683723 0.237941 0.985848 -2 -8 7 
7549 6 0.108744 0.311045 0.00878083 2 -3 -6 
8943 6 0.726648 0.285949 0.010275 -3 3 -6 
8638 6 0.77844 0.297632 0.0201978 1 0 1 
8387 5 0.166755 0.326882 0.0234196 2 -2 1 
7449 6 0.407299 0.331736 0.0219865 0 2 3 
6837 6 0.00680469 0.370347 0.00513544 1 -1 0 
6086 5 0.473626 0.356763 0.0270833 4 -5 1 
8125 5 0.853939 0.406955 0.0156161 -2 1 3 
7192 5 0.905462 0.493896 0.0177419 1 0 0 
6351 6 0.288074 0.472008 0.0436527 -4 -2 -1 
8494 6 0.381747 0.435694 0.987906 -2 -2 4 
7111 6 0.450784 0.460823 0.00545282 -2 2 4 
5611 6 0.225584 0.451239 0.0405054 -5 -2 4 
5415 5 0.23289 0.526887 0.000270577 -2 -4 2 
6129 6 0.360381 0.509611 0.0248969 -2 1 2 
7019 6 0.497872 0.542313 0.0131641 0 2 -2 
6156 5 0.594066 0.513109 0.0162878 0 -1 3 
5994 6 0.616445 0.501877 0.0162744 0 2 -6 
8930 5 0.33093 0.569079 0.938035 3 0 -3 
7319 5 0.623622 0.546084 0.018267 -3 5 2 
6180 5 0.951692 0.540033 0.00858939 -3 3 2 
7642 5 0.327946 0.568331 0.032613 -4 -3 -2 
5348 6 0.526547 0.601545 0.950867 5 -3 -2 
6631 6 0.680504 0.574526 0.0209058 3 6 1 
5210 5 0.840591 0.590329 0.015342 -3 -2 4 
5842 6 0.197835 0.609907 0.997003 -3 -3 1 
6298 6 0.899218 0.582443 0.00876585 -5 -2 -3 
8202 5 0.45797 0.638931 0.0167106 0 0 -2 
8674 5 0.581956 0.607138 0.961869 6 -3 0 
8678 6 0.612239 0.65822 0.0126331 3 1 -1 
6938 6 0.0506133 0.637487 0.00723365 2 3 -3 
7218 6 0.698488 0.695119 0.00916832 1 -4 0 
6137 6 0.503931 0.706569 0.0114636 4 -1 7 
7417 5 0.5874 0.679357 0.985432 0 4 -2 
6421 5 0.823875 0.721195 0.014452 -2 2 3 
5758 6 0.364816 0.72576 0.0154238 -3 -1 0 
8495 6 0.25946 0.715512 0.00516588 4 -4 -3 
5404 5 0.298488 0.726738 0.0304876 2 3 4 
6570 6 0.417589 0.73481 0.00722638 1 -1 3 
7007 5 0.483197 0.726685 0.000298847 2 -4 0 
7085 6 0.00926747 0.725772 0.0114616 7 5 3 
8139 5 0.991299 0.768883 0.978788 -1 -4 1 
7567 5 0.40684 0.821696 0.0594684 0 -4 2 
5129 5 0.475925 0.787748 0.0565267 5 1 0 
6007 6 0.675606 0.775971 0.0107174 1 -1 2 
8927 6 0.761205 0.791313 0.0260855 -7 2 2 
5820 6 0.442978 0.837426 0.987199 -2 0 6 
8655 5 0.548613 0.842956 0.0445364 1 -5 0 
5107 6 0.397431 0.853761 0.991192 -2 -2 -1 
7073 6 0.536329 0.844523 0.97623 0 -1 0 
6160 6 0.681094 0.899314 0.0567981 -1 2 5 
6572 5 0.924285 0.867679 0.0258541 -6 -4 -3 
7551 5 0.0961765 0.936345 0.0188046 0 4 3 
8063 5 0.927163 0.924779 0.00166036 -2 3 -3 
7140 6 0.056806 0.978059 0.0322559 -7 0 2 
6187 6 0.671692 0.956736 0.0136579 3 2 0 
6807 5 0.031937 0.980512 0.995416 6 0 -6 
8117 6 0.0996399 0.963358 0.0356825 1 -3 2 
5363 5 0.250751 0.00203313 0.0491759 4 2 -1 
7913 6 0.969527 0.965713 0.042409 -4 -2 2 
5138 5 0.406825 0.99298 0.0317613 2 5 -4 
5070 6 0.556674 0.959459 0.0184732 4 -2 -2 
8931 6 0.704937 0.984592 0.0932747 -5 1 -5 
7084 6 0.432802 0.0289129 0.0461848 -5 2 1 
7155 6 0.540635 0.0375418 0.0140572 5 4 -3 
5257 6 0.199783 0.0909577 0.051468 4 -1 -6 
6228 6 0.384761 0.083928 0.0152686 0 6 2 
6993 6 0.968553 0.0811015 0.0291201 -2 1 2 
6730 6 0.410783 0.0777043 0.0134006 -4 3 2 
6431 5 0.794104 0.0946084 0.0207312 0 0 0 
8722 6 0.0379254 0.108254 0.0112703 0 1 8 
8320 6 0.731986 0.0922118 0.97877 1 -2 -2 
8438 6 0.775671 0.117627 0.0384891 -1 -1 -1 
8081 6 0.898496 0.115954 0.0497467 -1 1 2 
8585 5 0.982046 0.159395 0.034974 -3 1 -3 
6139 6 0.200017 0.149107 0.000972665 0 2 2 
7117 5 0.383523 0.16346 0.0311204 1 1 0 
6448 6 0.55039 0.169617 0.0356413 5 -4 -4 
5397 6 0.819696 0.170495 0.00915346 -2 -1 2 
5989 6 0.558668 0.144512 0.0295165 -3 -8 1 
8284 6 0.592108 0.231182 0.034327 -1 2 -2 
5554 5 0.859851 0.227454 0.0304128 1 0 3 
5751 5 0.039299 0.197377 0.997706 -3 5 -1 
7264 6 0.299771 0.233553 0.0105816 0 -2 0 
7443 5 0.362524 0.179161 0.0331209 2 -4 1 
6411 6 0.867142 0.201922 0.0349411 -2 -3 -2 
5600 6 0.0259566 0.232234 0.0525218 6 -1 3 
8029 5 0.366061 0.245835 0.0301062 2 3 -2 
7912 6 0.422505 0.281073 0.0218624 2 2 1 
5098 6 0.47096 0.276889 0.0339501 -3 0 -2 
5438 6 0.618758 0.249286 0.0299708 -1 0 0 
8916 6 0.885443 0.233108 0.060906 -1 3 3 
5732 6 0.242763 0.270252 0.0173932 0 2 -2 
7891 6 0.491232 0.292568 0.049691 3 -1 -4 
8682 5 0.636478 0.310697 0.0194206 1 0 4 
8227 5 0.962808 0.282868 0.0402742 1 -1 1 
8249 6 0.456258 0.304287 0.0496361 -5 6 3 
7306 6 0.571736 0.364388 0.0697316 3 -4 2 
6323 5 0.108906 0.331595 0.0383292 0 1 2 
5541 6 0.0858404 0.341091 0.0670717 1 2 1 
8731 6 0.450363 0.356387 0.0247285 5 2 -3 
5108 6 0.897869 0.354293 0.0298193 2 5 -2 
5176 6 0.612884 0.359781 0.0295487 0 -2 4 
8033 6 0.689844 0.351218 0.0297774 3 4 0 
6510 6 0.950346 0.34313 0.0232315 1 -4 -5 
5854 6 0.707723 0.42084 0.00981216 1 -1 1 
5423 6 0.0680736 0.388368 0.0499833 2 -1 -1 
5539 6 0.587516 0.397326 0.0700192 -3 3 1 
8743 6 0.558332 0.395887 0.0361133 2 -3 5 
8264 6 0.250217 0.422502 0.0165085 3 -5 -2 
7121 5 0.921962 0.445026 0.0336847 -3 3 -3 
5849 5 0.587614 0.472274 0.03426 5 -1 -2 
8279 5 0.77931 0.470337 0.0633427 3 -1 -3 
6413 5 0.770005 0.460138 0.0555784 3 0 1 
7260 5 0.826102 0.444785 0.0136202 3 -7 2 
5066 6 0.804855 0.45558 0.0314149 -2 4 4 
6560 5 0.543759 0.466061 0.0296414 2 -1 -3 
5719 5 0.10806 0.483448 0.0281757 3 -1 1 
6415 6 0.540414 0.529461 0.0163681 4 -2 3 
7665 6 0.58814 0.550819 0.0162423 -1 3 5 
8409 6 0.233716 0.571035 0.0298131 3 1 -5 
8757 5 0.35095 0.586781 0.0236325 -2 -4 -1 
7404 6 0.472272 0.540396 0.0365419 -3 3 4 
6985 6 0.698161 0.554321 0.0519075 -1 4 3 
5328 6 0.866782 0.600939 0.0267767 0 1 -3 
8788 5 0.733804 0.567887 0.0497904 -3 -2 2 
6965 5 0.129878 0.588732 0.0526477 3 0 -3 
6353 6 0.451406 0.635679 0.0215779 -2 3 -2 
5304 6 0.653251 0.644402 0.0575728 1 4 4 
5585 5 0.741402 0.650043 0.0570425 3 -1 3 
5187 6 0.873798 0.651535 0.034658 -1 -1 0 
8738 5 0.909667 0.663224 0.0502411 -1 -1 -4 
8221 5 0.763128 0.747017 0.0509779 -1 2 -3 
8453 5 0.956209 0.710705 0.0249701 3 3 4 
6828 6 0.655125 0.707534 0.0418123 -3 -8 7 
6041 5 0.233387 0.830595 0.052833 1 -1 3 
6573 5 0.603208 0.806149 0.0147305 6 1 2 
7368 5 0.993346 0.832159 0.0145308 -1 -3 -2 
5696 5 0.480487 0.842247 0.0372477 0 -5 2 
5657 6 0.727098 0.851837 0.0283902 -4 0 0 
5160 5 0.673355 0.843348 0.0546071 1 1 1 
8086 5 0.0154184 0.873654 0.0755403 4 1 -3 
6765 5 0.162379 0.898133 0.0498897 -1 -5 5 
6315 5 0.691636 0.946198 0.0508966 -2 -2 -3 
7764 5 0.873842 0.917492 0.0121881 3 -2 -2 
8665 6 0.973062 0.960352 0.0632264 -3 -2 2 
6756 5 0.331433 0.999885 0.0532152 -5 -1 1 
6453 5 0.344016 0.0168672 0.0651175 1 -1 3 
8608 5 0.376122 0.0627358 0.0452993 -1 1 -3 
7044 6 0.691084 0.092952 0.0932732 1 1 -1 
6329 6 0.701163 0.090484 0.029162 0 2 -2 
6684 5 0.252653 0.0999754 0.0583826 2 -2 3 
5446 5 0.85828 0.0892892 0.100655 -5 2 2 
6874 6 0.184134 0.112785 0.0260701 0 0 4 
6889 6 0.741744 0.145723 0.0404295 -1 1 -1 
7313 5 0.835986 0.120755 0.0613486 5 0 3 
5312 6 0.845891 0.143175 0.0593825 -1 1 1 
7479 6 0.714082 0.172603 0.0540358 -3 2 1 
7010 5 0.656499 0.158045 0.0603343 1 -2 -3 
8003 5 0.668822 0.177852 0.0574055 -3 4 3 
8188 6 0.772818 0.133312 0.0408968 7 7 3 
6025 6 0.35513 0.202478 0.0999766 -2 1 2 
6715 5 0.94912 0.189051 0.0775005 -3 1 4 
5880 5 0.47263 0.188332 0.0590484 -5 -1 1 
6456 5 0.0732811 0.222274 0.0592882 -2 -3 2 
5043 6 0.867166 0.24436 0.0735377 -3 5 -2 
7433 6 0.34682 0.229756 0.0418382 3 2 3 
5186 6 0.405677 0.240516 0.110885 7 4 1 
8901 5 0.801436 0.253388 0.0376481 -2 -4 -4 
5039 6 0.691607 0.296562 0.0460061 -1 -1 -6 
6791 5 0.370444 0.319592 0.0263486 3 -5 -1 
8631 5 0.0139006 0.358582 0.043869 4 1 -1 
6161 5 0.425413 0.380307 0.0631527 -2 3 1 
8014 6 0.804999 0.310262 0.0548855 -1 2 -1 
7539 6 0.299499 0.363909 0.0840188 1 1 -1 
7625 5 0.576415 0.372046 0.0465885 -1 2 3 
6625 5 0.0998469 0.417484 0.0486424 -2 -2 1 
6803 6 0.329403 0.373374 0.0825044 3 1 -4 
7757 5 0.714471 0.427027 0.0747397 3 -3 -1 
5256 6 0.752853 0.377834 0.0765648 -1 -7 1 
8708 6 0.485624 0.436638 0.031932 -4 -2 4 
8299 5 -8.62561e-05 0.489635 0.0299569 -2 -3 -2 
8912 6 0.509098 0.420285 0.0997668 -4 -8 -2 
6842 5 0.744543 0.446594 0.065279 0 3 6 
8742 6 0.89336 0.398372 0.0275578 6 -4 -5 
6197 5 0.00905133 0.481696 0.0598299 4 3 3 
6271 6 0.0714386 0.481094 0.0755594 -1 -3 -1 
7279 6 0.446838 0.486783 0.0500253 4 1 4 
7177 5 0.326089 0.586501 0.105072 -1 5 2 
7867 5 0.384248 0.578918 0.0283565 2 3 7 
6230 5 0.493892 0.577461 0.0621836 1 -2 -6 
8226 6 0.402368 0.613145 0.0593582 0 -1 2 
8241 6 0.532273 0.621614 0.0911077 4 -3 -6 
5289 6 0.193134 0.670982 0.0302712 2 2 1 
5832 6 0.886858 0.674388 0.0763066 0 2 -3 
6146 5 0.403441 0.673912 0.0305279 -2 6 -1 
8165 6 0.795842 0.646641 0.0361982 7 4 -2 
7217 5 0.034767 0.64628 0.060368 3 0 2 
5470 5 0.161667 0.693182 0.0586642 2 -2 0 
6314 5 0.49987 0.671071 0.0613297 0 1 -1 
8717 5 0.546945 0.639475 0.0415037 1 1 2 
7389 6 0.553836 0.663605 0.0227697 -5 -4 -1 
6432 6 0.977508 0.739058 0.0853679 -1 0 -3 
8512 6 0.701633 0.681626 0.0498602 1 1 -1 
6927 5 0.360631 0.740864 0.0912332 -2 2 -5 
7157 6 0.416101 0.726822 0.0467333 -1 1 0 
5780 6 0.667228 0.787444 0.0811942 3 -4 0 
6428 5 0.0314463 0.756862 0.0528037 3 -6 0 
5675 5 0.18272 0.799577 0.0806197 4 0 -5 
5716 5 0.793154 0.808451 0.0906925 1 -3 1 
8310 5 0.772101 0.764331 0.067656 0 -2 3 
8606 5 0.673448 0.857033 0.0481375 0 1 -1 
8242 6 0.545262 0.86873 0.0387502 1 5 0 
7286 5 0.381227 0.87762 0.0801586 -1 0 5 
7565 5 0.520799 0.902701 0.0749569 3 1 -1 
5504 5 0.0561087 0.916272 0.0503976 3 -1 2 
8366 6 0.564354 0.92272 0.043737 2 2 0 
5772 6 0.880033 0.881951 0.0713113 0 -5 6 
5303 6 0.276576 0.961245 0.0358045 -1 -2 7 
5433 6 0.0619174 0.980249 0.0624201 -2 4 0 
8936 6 0.634547 0.960834 0.0727679 -6 3 4 
8875 5 0.673177 0.978996 0.0262778 1 4 2 
8456 5 0.995274 0.021905 0.0421228 -6 3 -1 
8011 5 0.0353675 0.0168808 0.0948681 2 0 4 
7523 5 0.08961 0.0574014 0.098019 -2 -1 -1 
6799 6 0.237297 0.087599 0.0686798 2 -3 -1 
7824 6 0.265632 0.0450687 0.0979856 1 2 2 
8562 6 0.486815 0.0194196 0.0791382 -5 0 2 
8278 5 0.590572 0.0596125 0.0674669 -2 5 6 
5678 6 0.214705 0.0691561 0.115578 2 -4 5 
6447 5 0.620712 0.100078 0.0598073 5 -3 0 
5512 5 0.710427 0.113743 0.097005 -1 -1 3 
6244 6 0.983727 0.147784 0.0810961 0 3 -6 
6567 5 0.580656 0.147641 0.0968588 -4 -2 -1 
6343 6 0.448115 0.145489 0.0818094 -2 2 3 
6669 6 0.699037 0.110504 0.0975442 -5 6 1 
6598 5 0.664559 0.103945 0.064711 4 1 -2 
8519 5 0.825617 0.103184 0.065112 -3 -1 4 
6439 6 0.472803 0.160953 0.079342 -2 -2 6 
5056 6 0.557949 0.170425 0.0823539 0 0 0 
5251 6 0.00373798 0.217482 0.0966134 2 0 -5 
6571 6 0.251129 0.217413 0.106102 -1 0 3 
5122 5 0.0965619 0.21243 0.101065 2 -1 -2 
5074 6 0.548397 0.207982 0.070851 -3 4 -4 
6521 5 0.0485083 0.2605 0.0812616 5 -4 5 
6196 5 0.195972 0.260886 0.0915942 3 2 -4 
8157 5 0.62656 0.276782 0.0407544 -1 -3 0 
6084 5 0.683857 0.281067 0.0957247 3 5 -3 
6177 6 0.0460294 0.29528 0.0847183 0 3 2 
8957 5 0.7448 0.322091 0.0834327 -5 0 3 
6877 6 0.636041 0.393166 0.105553 1 2 -1 
8567 5 0.930471 0.392325 0.094999 2 6 -6 
8010 6 0.328944 0.414257 0.046929 6 -1 -2 
7148 6 0.593016 0.437304 0.0686687 2 0 -4 
7297 6 0.723877 0.431615 0.0831858 -4 1 4 
6642 5 0.944456 0.401831 0.0721326 2 0 -3 
8538 5 0.643323 0.445607 0.116714 2 5 2 
6083 5 0.724824 0.441968 0.0936336 -4 -2 3 
6042 5 0.164201 0.494201 0.0777506 -2 3 1 
8085 5 0.552874 0.48487 0.0760941 -3 0 0 
6528 6 0.0494068 0.515463 0.0998694 0 3 -5 
5799 6 0.415025 0.498472 0.0415079 1 -6 4 
8847 6 0.477546 0.515876 0.0691884 -3 -5 -3 
7239 5 0.658256 0.505358 0.050163 3 5 0 
6349 6 0.992432 0.493255 0.0948372 3 8 -1 
5711 6 0.898288 0.523732 0.0959923 0 1 -1 
6550 6 0.903719 0.565091 0.0599341 1 -9 4 
6204 6 0.968998 0.551585 0.0605299 2 2 4 
5005 5 0.27741 0.540005 0.0771221 -1 1 -3 
8771 6 0.819738 0.548392 0.123183 4 -4 0 
8633 6 0.579365 0.578874 0.090398 -3 4 3 
7385 6 0.799543 0.544548 0.0593544 -2 -5 -2 
6777 6 0.938537 0.603788 0.0729812 -2 0 -2 
7042 6 0.984959 0.579707 0.0751197 1 3 -4 
5245 5 0.652303 0.62577 0.0553413 -2 2 0 
7487 6 0.905391 0.673564 0.0796591 0 -4 3 
5406 6 0.26989 0.672464 0.0954626 3 -1 -4 
5349 6 0.554602 0.688292 0.0500023 -2 4 5 
6762 6 0.714934 0.668766 0.124431 -3 -2 8 
8490 6 0.719488 0.711939 0.080176 -5 -3 0 
6268 5 0.0898858 0.732386 0.033123 4 -1 4 
7236 5 0.445442 0.714086 0.0646432 1 4 -4 
8478 6 0.14906 0.762525 0.0780637 -2 0 -3 
5837 5 0.241884 0.77092 0.063285 -1 -3 -5 
7294 6 0.927849 0.763407 0.0584921 1 -1 4 
7341 5 0.12544 0.783667 0.0711696 -4 -5 -4 
7527 6 0.92341 0.763707 0.0863101 -4 -3 3 
6090 5 0.0156502 0.861282 0.0378074 2 0 4 
7012 5 0.551693 0.864835 0.118222 -1 5 -2 
8392 6 0.832999 0.878642 0.0737698 -2 -1 4 
8948 6 0.0573753 0.902152 0.0654067 1 4 1 
8131 6 0.551143 0.909937 0.103216 0 -1 0 
5503 5 0.578161 0.900018 0.0929439 1 3 4 
6354 6 0.373857 0.915991 0.0578928 -1 1 3 
7508 5 0.142485 0.97014 0.0811972 7 3 4 
6194 6 0.663654 0.00311699 0.0680882 1 0 0 
8256 6 0.79229 0.959678 0.0935201 0 1 1 
5219 5 0.130417 0.989287 0.0789778 3 4 4 
5930 6 0.769018 0.97831 0.0361631 -1 -6 -1 
7797 6 0.422373 0.97598 0.0858525 1 2 0 
7624 5 0.608965 0.0335053 0.145943 5 -2 -1 
6021 6 0.300906 0.0552587 0.105947 2 0 1 
8563 5 0.40628 0.0716232 0.112107 2 2 3 
5590 6 0.632548 0.0718816 0.0740331 4 8 -1 
8736 6 0.643396 0.0922556 0.118661 4 6 2 
7606 5 0.429526 0.0982688 0.0767291 3 -1 0 
5109 5 0.101835 0.133137 0.111843 3 3 -5 
6727 5 0.871842 0.155031 0.101752 0 -2 2 
8666 5 0.171939 0.220295 0.0813207 -1 -1 -1 
7669 5 0.251051 0.224854 0.116947 2 -4 1 
8824 6 0.416167 0.255581 0.113602 0 2 -3 
6818 5 0.537354 0.237261 0.0989513 1 -2 1 
8397 5 0.693845 0.213779 0.123776 4 0 1 
8441 6 0.816967 0.189171 0.105079 4 0 0 
8534 6 0.279418 0.2561 0.10933 0 3 -3 
6695 6 0.483361 0.205392 0.113255 2 0 -1 
8966 5 0.745892 0.228092 0.131398 1 5 -3 
8015 5 0.0209449 0.244741 0.12215 2 -1 3 
5259 5 0.05119 0.247645 0.148957 3 0 -5 
7384 5 0.967076 0.279813 0.105659 -4 -1 -5 
7234 6 0.284364 0.279153 0.143031 -6 3 -2 
6981 5 0.357296 0.270503 0.134623 -1 3 -2 
8123 6 0.853449 0.284181 0.0883856 -1 5 2 
5216 6 0.95716 0.286457 0.124294 2 -1 1 
5407 6 0.9948 0.325652 0.114009 -3 0 -2 
7104 6 0.540214 0.321066 0.0838676 -2 -2 -2 
5999 5 0.576728 0.320172 0.115837 -2 0 -2 
5247 5 0.826441 0.333554 0.0961241 -1 1 0 
6757 6 0.211478 0.377043 0.0887947 -1 -1 1 
8730 6 0.525601 0.376665 0.0909825 -1 1 -1 
7765 6 0.575794 0.326415 0.0890648 -2 0 -5 
6417 6 0.876583 0.359663 0.122309 0 -2 3 
5103 6 0.137342 0.395308 0.0685158 -1 3 -1 
5177 6 0.176761 0.394225 0.136049 -2 3 7 
5597 6 0.282724 0.373241 0.118134 0 2 -4 
6400 5 0.570823 0.416278 0.080175 -2 -6 -2 
8508 6 0.198726 0.488108 0.108219 1 4 3 
5761 6 0.570054 0.511877 0.119886 1 -2 4 
5279 5 0.0528037 0.527235 0.0789798 -3 -3 3 
6017 6 0.148392 0.559866 0.110492 2 1 -1 
8941 5 0.578365 0.551762 0.136055 -5 -2 2 
7078 6 0.220998 0.599261 0.107434 -3 -1 -4 
6375 6 0.859037 0.59088 0.0761904 3 -1 1 
5828 5 0.313549 0.646069 0.110556 2 1 2 
8467 5 0.307243 0.601399 0.0786914 -1 -5 -4 
8286 6 0.997121 0.604966 0.131625 0 -1 -2 
8671 5 0.968987 0.599162 0.0740282 -2 -5 0 
6942 6 0.082041 0.615178 0.132106 -1 -3 1 
6392 5 0.137456 0.641165 0.0839511 1 1 -2 
5483 5 0.999599 0.611736 0.108402 -8 -1 4 
6925 6 0.116496 0.65924 0.101586 -2 -2 0 
6145 5 0.182075 0.642389 0.0815165 -1 2 -7 
8764 5 0.603533 0.636214 0.0847733 2 -3 0 
8983 5 0.636399 0.65739 0.0789177 0 -4 1 
7325 5 0.845853 0.62739 0.0910231 1 4 -3 
6673 6 0.905625 0.692307 0.0887009 3 3 3 
5371 6 0.895895 0.665607 0.0982094 -3 -5 0 
8621 6 0.982223 0.666809 0.116228 -2 -5 1 
6740 6 0.356021 0.700068 0.0771575 -5 -3 0 
8435 6 0.635831 0.691153 0.134508 -3 2 2 
8984 6 0.840637 0.700395 0.0645359 -3 0 0 
8881 5 0.719686 0.708137 0.10242 3 3 -2 
8700 5 0.843115 0.71124 0.101611 6 -1 -5 
8760 6 0.265906 0.737694 0.108435 2 -1 -1 
7953 5 0.613762 0.714905 0.0740704 3 -2 0 
5053 6 0.969737 0.729786 0.0985534 2 2 -3 
6880 6 0.614052 0.786336 0.110267 1 1 0 
7887 6 0.794855 0.781449 0.100455 6 -3 1 
7459 5 0.0980553 0.769814 0.115582 3 -1 1 
6151 6 0.258587 0.816145 0.146988 -5 -1 1 
5330 6 0.466144 0.797223 0.101534 0 3 0 
8806 6 0.502277 0.813743 0.133284 2 1 2 
6978 6 0.628631 0.809192 0.140362 -4 3 4 
8747 5 0.934885 0.809208 0.0707394 3 4 1 
6288 6 0.0807196 0.840888 0.137551 -2 -4 0 
7694 6 0.3901 0.820351 0.108115 1 -1 7 
7267 5 0.632485 0.815853 0.0996585 -1 4 4 
7810 5 0.789784 0.815805 0.0863698 -7 1 3 
5146 6 0.895494 0.840866 0.0813078 3 2 -3 
5325 6 0.955156 0.831329 0.112364 3 -9 -1 
7546 6 0.521191 0.818555 0.0592684 1 -1 2 
5984 6 0.696547 0.885819 0.100993 -2 -3 0 
7375 6 0.275613 0.867487 0.0675443 2 -1 -4 
7729 6 0.152434 0.914432 0.126932 0 -5 1 
5891 5 0.367669 0.87714 0.111333 0 -2 -4 
8335 6 0.664214 0.895445 0.0583414 0 1 2 
5358 5 0.811278 0.88821 0.137507 -2 -3 7 
7842 6 0.988804 0.912635 0.0963749 -3 -1 -2 
7108 5 0.368593 0.943743 0.115031 1 -2 -5 
6131 6 0.744714 0.898341 0.118818 -1 2 -1 
7289 5 0.115079 0.962068 0.126378 7 2 -2 
6858 6 0.214303 0.987562 0.13885 -4 3 3 
5907 6 0.626651 0.922568 0.088901 -3 1 1 
6737 6 0.783293 0.966234 0.104082 -3 -3 3 
7451 5 0.8334 -0.000211445 0.107991 6 1 1 
7853 6 0.0869837 0.00594866 0.0975703 0 0 4 
8872 5 0.910546 0.0197446 0.158251 0 0 -3 
5350 6 0.10102 0.0267238 0.13202 0 -4 5 
6267 6 0.0823033 0.0745374 0.130783 -3 0 -2 
7888 6 0.360225 0.0664018 0.139242 0 -4 3 
7210 6 0.509219 0.0951578 0.128117 0 -2 7 
8316 6 0.0851144 0.140494 0.100683 -2 -2 -1 
8363 5 0.691543 0.0744157 0.155156 8 1 4 
5615 5 0.859753 0.0488288 0.0841832 -3 4 -2 
8141 5 0.98018 0.120487 0.100861 -1 0 -1 
5147 6 0.0733564 0.128583 0.120059 6 0 -4 
5318 5 0.934446 0.136854 0.133259 -4 5 4 
7205 5 0.798043 0.236997 0.0917822 1 0 -1 
8553 5 0.703401 0.261234 0.140554 2 -1 -3 
6616 6 0.920232 0.20532 0.0961336 -2 7 4 
6655 6 0.885152 0.23306 0.123934 0 4 0 
7482 5 0.725561 0.25156 0.0923169 -5 5 -4 
5788 6 0.99615 0.311788 0.162531 3 -1 6 
7932 6 0.286299 0.323645 0.11229 6 2 -3 
8559 6 0.698445 0.318025 0.153563 -1 -4 3 
8817 6 0.725822 0.345289 0.0934543 -3 1 2 
6234 6 0.0235801 0.377438 0.127666 -3 -2 -1 
8187 6 0.722584 0.37074 0.116421 6 1 -4 
7382 5 0.940606 0.385042 0.159702 4 2 -1 
5909 5 0.628116 0.42737 0.120706 2 1 4 
7646 6 0.778228 0.39226 0.116611 0 5 2 
7897 5 0.95154 0.398065 0.176828 -1 0 1 
5189 6 0.25377 0.417923 0.106971 -4 -1 1 
5374 6 0.560951 0.439762 0.0927108 -2 -4 1 
6967 6 0.688674 0.441992 0.0904063 1 -1 1 
5097 6 0.767134 0.425447 0.125753 -1 1 -2 
6556 6 0.868514 0.410304 0.0711414 -1 -5 0 
6486 5 0.586055 0.45467 0.108326 -1 2 -3 
7446 6 0.65616 0.426792 0.131438 0 2 -2 
5475 5 0.236223 0.478515 0.141776 -2 -1 -2 
7154 6 0.723866 0.50918 0.130037 -2 2 7 
6512 5 0.175655 0.465988 0.0868738 1 2 2 
8772 6 0.0957261 0.485951 0.108334 -1 0 2 
7652 5 0.849033 0.511707 0.10241 2 0 0 
5757 6 0.217261 0.536249 0.111844 0 -1 -1 
6548 6 0.44404 0.509815 0.133371 -2 2 4 
5224 6 0.873441 0.556437 0.0968493 0 -9 -2 
6953 6 0.348775 0.547528 0.100391 1 -3 7 
8103 5 0.848685 0.57316 0.135162 -6 -1 2 
7674 5 0.0847941 0.681921 0.107387 -6 1 -4 
8820 6 0.201987 0.695785 0.192281 -4 -4 1 
8258 5 0.693029 0.718423 0.159464 2 0 4 
6192 6 0.811931 0.694241 0.150695 0 -3 1 
5682 5 0.973854 0.687134 0.103357 -5 6 -2 
5648 5 0.0661306 0.726849 0.116201 -2 -3 -2 
5430 5 0.753514 0.695487 0.121645 -1 -4 4 
6058 5 0.803351 0.7246 0.111514 -8 -2 -3 
8550 6 0.200723 0.743771 0.163553 1 -3 -4 
7495 6 0.999498 0.733671 0.117313 -5 5 2 
8947 5 0.158115 0.747778 0.138373 1 -2 0 
6123 5 0.694197 0.765307 0.138389 -11 -2 4 
7129 5 0.769848 0.783341 0.156806 0 3 4 
8876 6 0.532495 0.831246 0.130049 0 -4 4 
8575 6 0.790071 0.824613 0.1009 1 -3 3 
5981 5 0.396589 0.818837 0.129406 -2 -3 -2 
8604 6 0.438707 0.827238 0.133675 3 1 -3 
6581 6 0.582647 0.845764 0.0989607 -3 6 0 
5824 5 0.805501 0.840094 0.137789 -2 -1 3 
8209 6 0.46546 0.905996 0.149096 3 -4 -1 
6951 6 0.672934 0.87663 0.108638 -1 -3 3 
5141 6 0.0562165 0.896994 0.108044 4 1 -2 
5749 5 0.0955053 0.885973 0.114318 5 1 -6 
8828 5 0.538835 0.891638 0.129495 -1 3 0 
7172 6 0.0411074 0.909424 0.13885 6 4 -3 
5522 5 0.0611706 0.941835 0.14121 0 2 -2 
7786 5 0.537048 0.948696 0.121838 -2 -3 -1 
5472 6 0.621163 0.96657 0.135544 6 -3 3 
7484 6 0.0128137 0.931899 0.109029 -6 -3 1 
6002 5 0.0443433 0.00489808 0.108686 -5 1 -2 
6923 6 0.18665 0.974101 0.103919 0 -4 -2 
8067 5 0.378113 0.994041 0.144471 -3 2 -6 
7198 5 0.267117 0.0764772 0.20197 8 0 2 
7377 6 0.981828 0.127871 0.144841 -1 -1 1 
8845 5 0.0773559 0.0972739 0.162674 2 -2 2 
7920 6 0.648198 0.0952805 0.171978 1 0 -1 
5449 6 0.0529266 0.139224 0.157562 -1 3 1 
8878 6 0.327454 0.167314 0.148201 -2 9 2 
8583 6 0.598802 0.157191 0.185704 -2 -1 1 
8403 5 0.565741 0.197026 0.127974 3 0 -3 
6167 6 0.777947 0.190503 0.154026 -5 1 4 
8632 5 0.978174 0.201079 0.121295 -2 0 0 
6172 5 0.231556 0.233064 0.10668 1 6 -3 
8752 6 0.273767 0.242163 0.146899 -2 4 5 
8457 5 0.407374 0.215367 0.141625 2 -4 0 
7138 5 0.546088 0.248494 0.133673 -3 0 -2 
7825 6 0.859129 0.231758 0.140813 0 7 0 
8472 5 0.819714 0.22727 0.127517 1 -1 -3 
5879 5 0.850124 0.224813 0.160639 -6 4 -2 
7730 5 0.870139 0.24972 0.154789 -1 0 3 
6429 5 0.379268 0.277985 0.163902 1 1 2 
7870 6 0.740459 0.247469 0.137128 0 3 -7 
8474 6 0.838872 0.243908 0.146256 -3 3 -1 
8555 5 0.951179 0.253383 0.158202 -1 -3 0 
5067 5 0.656312 0.288635 0.112009 2 3 1 
8513 6 0.0693858 0.27926 0.127338 -1 0 1 
5068 6 0.211948 0.313184 0.174233 3 2 -3 
6857 5 0.509867 0.309129 0.154991 -2 1 -2 
6500 5 0.889775 0.307043 0.124795 -1 3 2 
5875 5 0.891949 0.31922 0.133766 -4 -2 1 
6120 5 0.667129 0.337775 0.14625 -1 -3 1 
8627 5 0.245334 0.330543 0.158985 0 5 -3 
7317 6 0.313635 0.341851 0.171544 -1 1 1 
7461 6 0.407197 0.358133 0.142398 -3 -3 -4 
8146 5 0.653136 0.360324 0.173454 0 0 -3 
8745 6 0.222907 0.392229 0.170364 2 0 2 
7815 6 0.171464 0.374212 0.180653 2 2 5 
5617 5 0.425392 0.410029 0.16006 -2 1 4 
6851 6 0.706835 0.468216 0.154637 -2 2 -3 
5414 6 0.297613 0.47025 0.156425 6 -9 6 
6115 6 0.0461028 0.486149 0.146836 1 -1 -1 
7135 6 0.221762 0.495493 0.177722 6 2 -5 
7246 6 0.436715 0.514152 0.166915 5 -4 4 
8520 6 0.173961 0.525439 0.155983 3 1 -1 
7557 6 0.720128 0.571485 0.169795 -4 -4 1 
6023 5 0.177555 0.557288 0.152821 -3 -3 3 
6511 5 0.527577 0.581323 0.152094 -1 -1 3 
5566 6 0.836028 0.570561 0.130079 -1 1 1 
6534 6 0.860629 0.576537 0.147074 3 1 1 
6691 6 0.213226 0.620579 0.152732 0 -5 4 
7836 6 0.18002 0.6387 0.156785 0 1 -1 
7051 6 0.972711 0.674863 0.136279 -4 0 3 
8391 6 0.257482 0.637852 0.142481 -2 -1 4 
5165 5 0.653456 0.633577 0.160534 2 0 -2 
7221 5 0.879903 0.624062 0.127077 -2 -2 0 
8650 5 0.198412 0.683551 0.123368 1 3 5 
8480 6 0.649466 0.680563 0.157526 -7 -2 0 
6839 6 0.690394 0.77923 0.181024 -2 3 2 
7323 5 0.64092 0.764907 0.205423 0 4 3 
7767 6 0.665031 0.733973 0.180226 -2 0 -1 
8248 6 0.950559 0.776084 0.179205 -4 0 1 
7714 6 0.945677 0.751584 0.11498 2 0 4 
5047 5 0.124548 0.829941 0.143721 2 0 -8 
8272 5 0.735489 0.795303 0.132112 -1 -2 -1 
5222 5 0.322937 0.856594 0.172881 -1 -2 1 
5862 6 0.500638 0.812626 0.174012 0 -2 -1 
6780 5 0.976891 0.857911 0.114571 -3 0 1 
7328 6 0.0680354 0.866611 0.146749 0 -1 1 
8395 6 0.896708 0.873071 0.141929 -4 0 0 
7633 5 0.0160652 0.870597 0.127686 -3 -6 0 
6008 6 0.175017 0.875767 0.174153 2 -5 2 
5194 5 0.232932 0.892726 0.202748 -2 -2 -1 
7837 5 0.690972 0.90935 0.168399 -3 3 2 
7573 5 0.88822 0.889364 0.157069 -3 -2 -1 
6469 6 0.986714 0.925158 0.158595 4 -1 -6 
8318 6 0.231729 0.930326 0.151883 4 0 1 
6085 6 0.211956 0.925593 0.116162 -1 2 3 
6611 6 0.304502 0.913798 0.169767 1 -3 -1 
5157 6 0.795822 0.906228 0.14647 -2 -2 2 
5966 5 0.204403 0.978541 0.134105 6 1 -5 
5978 5 0.468904 0.967728 0.171737 -4 -4 9 
5466 6 0.47155 0.962563 0.15495 3 1 5 
8369 5 0.518166 0.928085 0.160864 1 1 -1 
6815 6 0.117605 0.987788 0.151354 1 0 1 
5096 5 0.10404 0.987201 0.113505 -2 0 1 
5851 5 0.14233 0.947797 0.162824 3 -3 2 
7822 6 0.2582 0.982621 0.160488 1 -1 6 
8780 5 0.437805 0.980523 0.139541 2 -2 -1 
6387 5 0.790908 0.969901 0.163793 2 3 1 
6969 5 0.318721 0.999916 0.168065 1 -2 1 
6606 6 0.608819 0.0423559 0.133449 -1 2 -3 
5897 5 0.657908 0.0372906 0.161654 -3 2 1 
7054 5 0.521834 0.978727 0.162853 3 2 4 
7618 6 0.819412 0.0297751 0.127584 -5 1 -2 
6081 6 0.816155 0.0752304 0.16696 -2 -3 5 
7381 5 0.96633 0.119821 0.155432 -5 0 -2 
7687 6 0.451419 0.155807 0.189493 -2 1 1 
8247 5 0.726639 0.154979 0.202705 -3 5 4 
8351 6 0.668242 0.186637 0.194534 0 4 5 
5589 6 0.718023 0.165635 0.192152 0 -2 0 
5546 5 0.107682 0.192082 0.147721 2 2 4 
5148 6 0.137703 0.226412 0.193476 -1 -1 5 
8786 5 0.780826 0.191215 0.168911 1 2 0 
8460 6 0.379049 0.25185 0.194836 0 5 -1 
6191 5 0.745995 0.213294 0.193023 0 0 0 
8614 6 0.925807 0.259523 0.180662 1 4 -4 
5320 6 0.0592847 0.290324 0.144322 1 1 0 
8313 6 0.795332 0.250441 0.138607 4 0 -3 
8136 6 0.803918 0.259891 0.186815 1 -2 7 
6507 5 0.111379 0.260391 0.171284 -5 0 4 
8192 5 0.230889 0.307391 0.212227 0 3 1 
5290 6 0.262268 0.296641 0.126625 -4 -4 4 
5077 5 0.960005 0.316586 0.155833 0 -1 3 
6095 5 0.954053 0.319034 0.136003 -1 -3 3 
8579 5 0.54171 0.361909 0.198275 -3 2 2 
6758 5 0.226088 0.409371 0.133886 2 2 -1 
5213 6 0.891906 0.400466 0.127152 -2 2 1 
6467 6 0.661849 0.421324 0.155152 0 2 1 
5027 5 0.24987 0.482903 0.198746 2 -5 1 
7021 5 0.296291 0.48859 0.19601 1 -2 -1 
6246 5 0.515561 0.459919 0.182911 -1 0 -2 
8865 6 0.652303 0.455412 0.225035 3 2 -1 
7898 5 0.891616 0.431323 0.166678 -1 -1 2 
5971 6 0.612162 0.456495 0.160832 -2 1 1 
7369 6 0.036502 0.505675 0.138884 0 -3 -3 
7904 5 0.763613 0.498629 0.200479 2 1 1 
8137 6 0.415747 0.536619 0.156278 4 2 3 
8378 5 0.37121 0.52058 0.18709 -2 -5 -1 
5150 6 0.623467 0.5493 0.163491 1 -3 1 
7202 6 0.760437 0.557174 0.203389 -4 -2 -4 
7692 5 0.746016 0.507616 0.171263 -8 1 -5 
7531 5 0.215645 0.58106 0.158558 3 2 -2 
7651 6 0.596788 0.548414 0.177132 1 -4 1 
6759 5 0.642244 0.58576 0.15461 0 5 5 
6394 6 0.0671343 0.617899 0.163227 -4 0 -1 
8207 5 0.417629 0.646433 0.175399 3 6 6 
5298 5 0.665357 0.649993 0.161249 3 3 -1 
6871 5 0.721491 0.669809 0.158984 -5 4 1 
5265 5 0.0886792 0.665375 0.148176 -2 3 0 
5520 5 0.369318 0.678323 0.178257 0 5 0 
8203 6 0.524515 0.679923 0.134742 2 -2 -2 
6135 5 0.82116 0.715828 0.197504 3 0 1 
8991 6 0.904199 0.724744 0.195859 -3 -2 0 
7196 6 0.113057 0.79905 0.183086 3 -3 1 
5967 5 0.974969 0.805583 0.153512 0 -5 -1 
6900 5 0.253155 0.807283 0.163266 -6 3 -2 
5796 5 0.0594277 0.898089 0.171825 -4 1 2 
8463 5 0.105088 0.850309 0.147525 2 -2 2 
5474 6 0.114688 0.813725 0.19699 -1 -2 2 
6147 6 0.281421 0.866523 0.146786 -1 0 2 
5737 5 0.278888 0.843079 0.204087 3 3 -3 
5408 5 0.442602 0.847634 0.184049 -2 2 0 
8980 6 0.505896 0.839857 0.192645 0 1 2 
8827 6 0.697749 0.858012 0.169041 -1 -8 0 
7534 6 0.71948 0.875395 0.167748 -2 -2 2 
7899 6 0.899546 0.841854 0.204345 -7 -3 -1 
6956 5 0.0522529 0.875033 0.136907 -5 0 1 
5996 5 0.300909 0.852247 0.178594 1 -1 1 
6568 6 0.606173 0.90402 0.158284 -1 2 0 
5950 5 0.0697217 0.919905 0.172791 1 2 0 
5114 5 0.0774821 0.865796 0.188371 0 -3 2 
7800 6 0.960023 0.932794 0.170123 -4 2 6 
8997 5 0.135227 0.89815 0.15901 1 4 1 
6464 6 0.310578 0.924356 0.168212 0 0 1 
5445 6 0.678263 0.915456 0.205828 0 -1 1 
5575 6 0.775667 0.892613 0.170461 4 -5 5 
5783 5 0.0602366 0.987887 0.180627 5 -4 -4 
7301 5 0.117077 0.968248 0.176498 -2 1 5 
6898 6 0.249314 0.960896 0.180548 -2 -1 0 
7517 5 0.691508 0.0213964 0.195064 -4 1 4 
7191 5 0.379806 0.981934 0.186612 -3 4 2 
8967 6 0.518371 0.0454004 0.215564 -5 -2 -1 
8038 6 0.708846 0.0137791 0.224927 0 -5 2 
5238 5 0.715795 0.983835 0.21652 0 1 3 
8127 6 0.951263 0.998141 0.16872 -3 1 8 
7229 6 0.614974 0.0443759 0.156922 1 7 -4 
7864 6 0.714869 0.0546106 0.195336 1 -2 -1 
5811 6 0.793176 0.0577662 0.201803 4 -1 2 
6893 5 0.405215 0.087616 0.15099 1 -1 -2 
8720 6 0.00740018 0.13097 0.207953 0 3 3 
8942 6 0.195247 0.0971214 0.184646 1 -2 1 
7131 5 0.340373 0.101493 0.226227 1 -1 0 
7910 5 0.600938 0.10904 0.137399 2 0 3 
7722 6 0.0261417 0.0805889 0.207033 1 -2 -2 
7724 6 0.0284299 0.18507 0.191315 -4 1 -1 
6272 5 0.128698 0.16341 0.214499 3 -3 -2 
7069 6 0.469448 0.186746 0.181641 2 -1 0 
5906 6 0.487987 0.262092 0.208959 -3 0 0 
5234 5 0.905937 0.216493 0.186059 0 -2 3 
8680 6 0.0908185 0.23834 0.16553 1 -2 -3 
5170 5 0.250371 0.343688 0.204351 4 1 2 
8481 6 0.37767 0.362642 0.175405 2 0 0 
5051 5 0.565043 0.329859 0.214686 2 0 -2 
5359 6 0.0557348 0.324566 0.194626 0 1 -7 
6232 6 0.31379 0.334956 0.201428 2 3 1 
8089 6 0.614809 0.37698 0.203239 -2 2 1 
6884 6 0.00357957 0.369585 0.171419 1 -2 0 
7151 6 0.174013 0.377433 0.198362 2 -3 -7 
5899 5 0.52622 0.475752 0.195714 0 -9 -3 
5050 5 0.827224 0.478408 0.150747 -1 -2 2 
8454 6 0.486076 0.503517 0.183054 0 -3 3 
7934 5 0.636861 0.475723 0.179239 -4 0 -1 
6182 5 0.997684 0.504896 0.200565 -4 0 -1 
8304 6 0.0672335 0.510634 0.172605 2 1 1 
5499 5 0.0837945 0.505457 0.185378 -1 -1 1 
6904 5 0.431833 0.475791 0.194121 -3 1 -1 
6902 5 0.793657 0.48541 0.182363 1 2 -3 
6011 5 0.354479 0.532605 0.196249 -1 -6 3 
5444 5 0.307837 0.568803 0.192658 2 -1 0 
7941 6 0.348637 0.547259 0.168348 3 3 1 
6059 6 0.238619 0.576554 0.168311 0 0 1 
8083 6 0.800038 0.603851 0.211238 -1 -2 0 
7094 5 0.879649 0.574306 0.18596 -1 2 -3 
6079 6 0.157519 0.578377 0.239943 2 -3 2 