ITEM: TIMESTEP
20000000
ITEM: NUMBER OF ATOMS
9000
ITEM: BOX BOUNDS pp pp pp
-75 75
-75 75
-75 75
ITEM: ATOMS id type xs ys zs ix iy iz 
6792 6 0.928811 0.0392677 0.0086279 -2 0 -3 
8563 6 0.146374 0.0621996 0.0143975 1 3 -1 
7025 6 0.335921 0.0640104 0.996111 5 1 -2 
7380 5 0.328535 0.0532673 0.0164661 1 3 4 
7528 5 0.501193 0.0805288 0.999192 1 7 -2 
5261 5 0.0981154 0.0807505 0.0374105 5 4 0 
6209 6 0.393032 0.0901533 0.0532691 -2 4 -1 
6939 6 0.652454 0.0818465 0.0309532 1 -2 5 
5517 6 0.340482 0.132554 0.00097166 -2 -4 1 
6922 5 0.449574 0.110643 0.971522 2 -1 2 
5295 6 0.161371 0.160915 0.979308 -1 0 -3 
8562 5 0.297192 0.116302 0.0214446 -1 -5 -4 
6454 5 0.575215 0.162232 0.986148 -3 1 2 
7782 5 0.836431 0.159282 0.98465 1 -2 -1 
7211 6 0.844704 0.162243 0.0306011 -2 4 -4 
6943 5 0.161903 0.188703 0.0512118 -3 1 1 
5214 6 0.5046 0.132088 0.00770443 -3 0 1 
6669 6 0.214834 0.185089 0.00524444 3 -2 5 
6063 6 0.643152 0.240136 0.976216 -1 3 0 
5002 5 0.567676 0.237331 0.99322 -3 -5 -2 
6407 5 0.587292 0.203342 0.0106527 -1 0 5 
6612 6 0.873942 0.254338 0.0155142 -1 0 -1 
6425 5 0.927778 0.25029 0.00860652 -1 1 1 
6993 5 0.409935 0.212827 0.00625465 2 2 -2 
8672 5 0.685225 0.268576 0.979066 1 1 1 
5694 6 0.126887 0.297432 0.0281693 2 4 0 
7731 6 0.513456 0.296917 0.997179 2 0 -7 
6487 5 0.799104 0.290244 0.00473517 -3 5 1 
5901 6 0.393805 0.330855 0.0119032 3 -3 4 
8183 5 0.136519 0.399712 0.986916 -6 3 1 
6132 5 0.860457 0.387877 -0.0011746 -2 1 -1 
5880 5 0.865683 0.361857 0.0273443 -4 0 3 
7954 5 0.92585 0.368992 0.965465 2 -3 3 
8357 6 0.313951 0.390152 0.00173121 3 -1 3 
6414 5 0.840803 0.421219 0.0201937 2 1 -1 
8881 6 0.348186 0.426799 0.997777 -2 6 -1 
6509 6 0.125388 0.493159 0.975082 0 -3 -3 
8330 5 0.686864 0.463708 0.0240405 -1 1 5 
8053 6 0.684433 0.478211 0.017722 3 -1 1 
8338 6 0.937719 0.496218 0.981766 4 -3 2 
6719 6 0.0535338 0.515232 0.979872 -3 -4 -1 
6021 5 0.850638 0.515025 0.0318517 0 -5 -1 
7792 6 0.926765 0.4919 0.0342245 1 0 -1 
6044 5 0.133789 0.501548 0.029312 2 3 2 
6393 5 0.924943 0.516732 0.00619034 -5 -2 2 
8993 5 0.0819704 0.557162 0.04285 1 3 0 
8727 6 0.919624 0.540897 0.99373 1 5 -8 
7699 6 0.122138 0.563047 0.0500616 3 1 0 
6334 5 0.668537 0.569862 0.00504369 4 1 5 
7865 6 0.463401 0.599169 0.993991 2 -2 0 
6241 5 0.595948 0.599049 0.0267291 1 -1 2 
7671 6 0.684687 0.626878 0.0333762 3 -1 -3 
7448 6 0.116206 0.639001 0.978191 -1 -1 -1 
6507 5 0.198399 0.590311 0.0153273 -3 -6 0 
7196 6 0.0937505 0.661292 0.0265301 -2 -8 3 
7548 5 0.599506 0.611781 0.028399 1 1 0 
6761 5 0.961572 0.706768 0.979514 -3 4 3 
6691 6 0.654168 0.714746 0.0094966 0 -1 1 
7939 6 0.762912 0.701851 0.0216438 -3 4 2 
7852 5 0.924394 0.73792 0.0317209 1 1 3 
7154 6 0.00145379 0.717025 0.0432161 5 2 -1 
8504 6 0.387364 0.740823 0.998641 2 0 -9 
5592 5 0.434778 0.744136 0.00810858 1 1 -3 
5699 5 0.458489 0.741528 0.000248399 -1 0 0 
5127 5 0.961101 0.76692 0.97804 1 -2 -2 
7752 6 0.631353 0.773925 0.0101622 3 1 7 
7571 5 0.707486 0.802317 0.995996 1 0 -1 
7900 5 0.803171 0.782815 0.0119747 -3 -2 -1 
6417 5 0.0304869 0.84053 0.0229723 1 6 -1 
7128 6 0.182331 0.819322 0.982242 1 0 3 
7825 6 0.0287915 0.879955 0.00681019 -2 3 0 
7746 6 0.278814 0.879072 0.0139768 0 1 1 
6677 6 0.466202 0.85602 0.0147995 1 -4 3 
6438 5 0.527316 0.867331 0.0526893 -3 -2 0 
8868 5 0.817472 0.885049 0.992468 5 0 2 
5096 6 0.920231 0.847255 1.00072 -2 -3 -2 
5059 5 0.789037 0.906004 0.002693 -1 3 6 
7973 5 0.124004 0.961559 0.992397 1 -8 5 
7691 6 0.211704 0.96582 0.0166304 1 0 -2 
7520 5 0.301261 0.99179 0.0320206 2 -2 2 
7415 5 0.425353 0.967361 0.0354473 1 3 -2 
8848 6 0.626357 0.990564 0.00871915 0 0 0 
8025 5 0.191923 0.0674759 0.0393836 -2 0 4 
5284 5 0.26828 0.0471197 0.0124862 2 -6 1 
7019 5 0.787437 0.0498558 0.988436 6 2 3 
8304 6 0.850255 0.0662899 0.0246023 1 4 -2 
6759 5 0.85582 0.0506626 0.063301 3 4 2 
7462 6 0.0708705 0.0628587 0.0199742 0 0 -6 
7396 6 0.227401 0.135362 0.0313532 -4 2 -2 
6147 6 0.00910196 0.112044 0.0506106 2 0 -2 
7802 6 0.779685 0.115126 0.983247 0 3 3 
7244 6 0.126802 0.11878 0.0218844 3 -4 -1 
5916 5 0.184203 0.131982 0.0339222 -1 4 3 
6887 6 0.312474 0.118487 0.0241326 1 4 0 
6701 6 0.43584 0.12946 0.0139342 4 3 -4 
6551 6 0.46348 0.131389 0.0312445 -4 -4 2 
5353 6 0.742617 0.161555 0.0756308 0 2 -2 
7840 6 0.659132 0.175481 0.0304082 3 1 -4 
7374 6 0.487966 0.166491 0.0485457 -2 -2 0 
7368 6 0.478494 0.165773 0.0324089 -2 -3 1 
8617 5 0.393751 0.21385 0.0148685 1 -5 -4 
8595 6 0.600482 0.233766 0.0534825 -1 0 -4 
8942 6 0.644936 0.216022 0.0374105 0 4 2 
6805 6 0.674382 0.212339 0.0529234 0 -1 -3 
7476 5 0.0393736 0.241979 0.0545566 2 -1 5 
6028 6 0.903135 0.244239 0.0580575 -4 1 -6 
5510 6 0.818755 0.325589 0.0325274 -2 3 3 
8472 5 0.741599 0.347898 0.0415523 -2 1 1 
6443 5 0.780679 0.349364 0.039789 2 0 -5 
5900 5 0.81729 0.330231 0.0209164 0 -3 5 
6103 6 0.157751 0.321772 0.0489291 1 0 1 
7118 6 0.229718 0.337503 0.0368871 1 0 -2 
5834 6 0.961532 0.334334 0.0324704 -4 2 -1 
6682 5 0.281543 0.379201 0.018072 1 -3 0 
6730 5 0.175694 0.439627 0.0448805 2 4 -4 
5934 6 0.539729 0.451968 0.0354273 -3 6 -1 
5172 6 0.322713 0.472819 0.065006 0 -2 -2 
8866 5 0.353858 0.428938 0.0243785 1 -3 -4 
7967 5 0.250499 0.481013 0.0217163 2 3 4 
8641 5 0.29087 0.518426 0.0301384 -1 1 1 
8869 5 0.935866 0.494508 0.0727154 -1 2 3 
6875 6 0.818927 0.540517 0.0558372 0 3 -1 
5557 6 0.904542 0.561207 0.989549 6 3 2 
5599 5 0.115186 0.610559 0.0748449 -5 5 -2 
5473 5 0.72918 0.61261 0.065111 -2 -1 -3 
5267 6 0.812812 0.590005 0.0638659 0 1 2 
5954 6 0.565882 0.636767 0.992067 -3 -3 3 
8028 5 0.39385 0.634139 0.0403656 -2 -7 2 
5980 6 0.261563 0.63861 0.0277747 2 0 -2 
8245 6 0.668247 0.674449 0.0570821 -3 -6 -1 
5124 5 0.813556 0.721764 0.0473269 -3 -4 1 
7450 6 0.890606 0.681824 0.015136 -4 -1 2 
8241 6 0.348891 0.671795 0.0201953 0 1 -2 
5409 6 0.440448 0.747749 0.0572834 6 -1 2 
7527 5 0.634841 0.714187 0.0351467 -2 5 2 
6336 5 0.951611 0.782771 0.00123826 2 -2 4 
6348 5 0.520046 0.749047 0.0279492 0 -3 5 
8697 6 0.597278 0.752079 0.0765384 1 -3 -3 
6693 5 0.617456 0.789577 0.0509131 2 -5 2 
8972 5 0.798623 0.792907 0.0392614 4 1 -4 
5876 5 0.356221 0.80179 0.0122829 3 -3 -3 
7144 5 0.31294 0.811744 0.037116 -1 4 1 
5452 6 0.478898 0.814384 0.0305276 2 0 0 
8161 6 0.969678 0.774819 0.0577705 0 4 1 
6349 5 0.0731935 0.858684 0.0286248 -2 1 1 
6268 6 0.29633 0.846481 0.0199136 -1 -4 2 
7935 6 0.907231 0.854291 0.0313333 1 0 1 
6987 5 0.803215 0.863923 0.0195705 -2 1 1 
6455 5 0.746987 0.869098 0.0295984 0 -2 2 
7518 5 0.466617 0.881962 0.0305466 -4 -4 -1 
6052 6 0.643281 0.92137 0.0605386 -3 5 0 
7468 5 0.446259 0.988879 0.0398988 3 2 -1 
6112 5 0.768783 0.976658 0.00770488 3 -1 -1 
7078 5 0.784972 0.987597 0.0196931 2 0 -1 
8759 5 0.495982 0.996882 0.0545005 1 -5 -2 
8974 6 0.606626 0.970397 0.0270342 -2 -1 3 
5798 6 0.788927 0.968409 0.0380489 1 2 3 
8917 5 0.0935921 0.0418621 0.0294975 6 0 2 
7395 6 0.676601 0.0807994 0.0561893 -5 -2 6 
7928 5 0.366763 0.0380304 0.0607953 2 2 2 
7933 5 0.476649 0.0928059 0.0353589 1 4 5 
6232 5 0.606058 0.12421 0.0741193 0 1 0 
5432 5 0.979487 0.0566996 0.0540686 -1 -2 1 
5692 5 0.111977 0.121529 0.0959249 2 0 6 
7426 6 0.877114 0.141765 0.0491562 6 1 -4 
5760 5 0.430666 0.131976 0.0432329 2 -1 2 
7667 5 0.498232 0.174842 0.0497089 -2 2 -1 
5759 6 0.718857 0.134246 0.0294455 2 -1 -1 
7823 5 0.961832 0.15267 0.0966918 -1 2 -1 
5252 5 0.941168 0.189663 0.0447413 -5 5 -1 
8491 5 0.101929 0.188662 0.0886209 -1 -1 -3 
7863 6 0.864654 0.213969 0.0428865 6 5 -2 
7076 6 0.0109813 0.212471 0.0413514 -1 -5 -3 
7997 5 0.424698 0.262525 0.0385262 4 -1 1 
7206 6 0.403918 0.249958 0.0304456 -4 0 6 
7318 5 0.628379 0.272973 0.0713062 2 2 1 
8898 6 0.440832 0.338717 0.0467872 -2 -2 -1 
7797 5 0.875261 0.301476 0.0132128 -1 0 -3 
7540 6 0.855379 0.299155 0.0378494 -1 -3 0 
8811 6 0.100498 0.299896 0.0891652 -1 0 -2 
7956 5 0.27168 0.341586 0.0777177 2 0 1 
7150 6 0.76574 0.321732 0.0592611 0 -1 3 
7506 6 0.0106043 0.367607 0.068185 5 2 1 
6456 5 0.563837 0.340266 0.0927204 0 -4 -1 
8943 5 0.853057 0.361988 0.0472468 0 -4 1 
5123 6 0.867338 0.41401 0.0764506 -6 2 0 
8965 6 0.902649 0.405055 0.0228377 -1 -2 -4 
6907 6 0.951822 0.404656 0.0529982 -4 -7 -5 
5766 5 0.178597 0.424411 0.0585553 -1 -2 -1 
8661 5 0.686007 0.474822 0.0837291 3 5 4 
6948 6 0.132337 0.503724 0.0553796 -5 1 1 
8918 5 0.887735 0.491938 0.0507318 -2 0 -4 
5602 5 0.965319 0.49694 0.0583452 -4 -1 -1 
8302 5 0.439591 0.581085 0.049002 1 -3 3 
6074 5 0.445414 0.552386 0.0546534 2 -1 1 
5299 5 0.659148 0.549345 0.0690841 -4 -5 2 
6984 5 0.938145 0.558758 0.028842 -1 -1 -3 
6158 6 0.285553 0.607938 0.0736276 -5 -2 1 
7346 6 0.504522 0.587878 0.0550115 3 -2 4 
5305 5 0.644383 0.627034 0.0777631 2 2 -2 
8841 5 0.00294556 0.609359 0.0124923 3 -1 2 
6539 6 0.321768 0.618462 0.0816751 -1 -5 0 
7099 6 0.427085 0.619552 0.0318401 3 0 3 
5715 6 0.935429 0.625734 0.0260798 -1 -5 -5 
8663 5 0.93145 0.644752 0.077611 -1 -2 -1 
5550 6 0.698608 0.687154 0.0839345 3 -6 -2 
7070 6 0.691752 0.625871 0.0553081 0 2 -3 
8072 6 0.0222224 0.709332 0.0316205 1 4 0 
5775 6 0.393866 0.719493 0.0470375 -2 -3 -2 
5191 5 0.586913 0.715376 0.0685587 -1 0 -1 
7983 5 0.601131 0.73289 0.0547692 1 -2 4 
5862 6 0.846113 0.717579 0.0680329 -3 4 2 
6921 6 0.18066 0.769925 0.0724367 -1 0 3 
7860 6 0.718014 0.783938 0.0832662 1 -4 6 
6306 5 0.109653 0.746415 0.0830324 0 -3 0 
7161 6 0.456798 0.806668 0.110251 0 1 5 
7832 5 0.675234 0.828765 0.0508576 4 1 1 
7382 6 0.912526 0.831136 0.0409551 1 -5 1 
6434 5 0.321076 0.850731 0.0582616 2 -1 -2 
6476 5 0.752078 0.842758 0.044411 -3 1 1 
8517 5 0.866918 0.875332 0.0517938 6 0 2 
5616 5 0.343957 0.889913 0.0760314 -1 -3 -3 
8083 6 0.325924 0.927005 0.0383271 -2 -2 6 
7012 6 0.741204 0.929489 0.0428381 2 -1 -1 
8023 6 0.846031 0.950015 0.0819336 1 0 0 
6111 6 0.118789 0.924022 0.0550236 -6 1 2 
8625 6 0.104199 0.928822 0.0690505 2 -3 4 
5892 5 0.615044 0.947889 0.0144534 -3 -1 0 
6392 6 0.638766 0.928572 0.100482 -2 3 1 
5964 6 0.0451068 0.9562 0.0286247 0 5 0 
6577 6 0.360003 0.00267435 0.0897143 1 -2 -1 
5202 5 0.364345 -0.000169386 0.0260443 1 2 0 
6659 6 0.369982 0.912157 0.0679973 4 1 -2 
7505 5 0.436593 0.0191583 0.067183 0 -2 2 
6079 5 0.00785362 0.0580454 0.0671573 3 -4 -2 
8439 6 0.1313 0.027888 0.0580354 0 1 -3 
7838 5 0.224948 0.0953175 0.112026 2 -3 -4 
6039 6 0.737519 0.0964631 0.0565876 6 -1 -5 
8897 5 0.946086 0.122766 0.0888401 4 -2 1 
7812 6 0.818657 0.162847 0.0925124 -1 0 3 
5832 5 0.433559 0.157721 0.0671742 0 0 2 
6019 5 0.0348428 0.176865 0.103632 -1 -1 -6 
5071 6 0.136155 0.114915 0.082668 -1 1 4 
6555 6 0.393406 0.170009 0.0808285 -3 -2 -3 
8952 6 0.4513 0.144161 0.0974011 5 1 0 
5373 6 0.216814 0.1653 0.0866037 2 -3 -3 
6032 5 0.834773 0.202307 0.0441179 -2 1 1 
5399 5 0.100639 0.213276 0.0797693 5 -2 0 
6876 5 0.237863 0.275182 0.0547174 1 -2 -2 
5843 6 0.31996 0.217629 0.057833 -4 -3 2 
5320 5 0.0456686 0.218224 0.0789189 -2 -2 -2 
7129 6 0.145558 0.244313 0.0518369 1 -1 0 
6096 5 0.48165 0.211542 0.0719594 -1 1 -1 
6067 5 0.031002 0.241106 0.0826728 -1 3 3 
8706 6 0.0952551 0.270774 0.121411 3 -7 4 
8653 5 0.597937 0.248266 0.107206 0 6 2 
8967 6 0.716501 0.248844 0.0429175 8 1 3 
6808 6 0.793734 0.217103 0.0847103 -1 0 -4 
5246 6 0.893438 0.294082 0.0335954 -4 0 4 
8494 5 0.137367 0.318968 0.0569567 3 1 -2 
8261 6 0.0832145 0.325348 0.0528755 3 -1 4 
6613 6 0.314628 0.292006 0.063181 3 0 1 
6361 6 0.456574 0.296021 0.0693811 0 4 3 
6638 5 0.533484 0.327817 0.096263 -3 2 0 
6681 5 0.734514 0.33372 0.0823185 0 -2 -1 
5643 6 0.759461 0.308078 0.105692 -1 7 1 
8741 6 0.116715 0.349837 0.131461 1 1 2 
7621 5 0.492745 0.354638 0.0456194 0 2 -1 
7179 5 0.525349 0.3236 0.0698607 0 0 -2 
6778 5 0.944565 0.372311 0.061167 2 1 2 
7764 5 0.922996 0.379054 0.0918617 -4 -1 -1 
7854 5 0.0923126 0.413425 0.109094 3 -3 0 
5193 6 0.138665 0.43369 0.101595 -1 -1 0 
8874 6 0.179436 0.396895 0.0937899 -11 -1 -3 
8354 5 0.643883 0.374859 0.0969941 0 -1 1 
8195 6 0.813533 0.391976 0.0741236 0 1 -3 
5543 6 0.860531 0.369797 0.0797723 0 0 -1 
8770 6 0.972878 0.413576 0.100795 1 -6 -3 
7759 5 0.399576 0.456231 0.0958949 0 0 -5 
8571 5 0.970514 0.448955 0.0477227 5 -2 -1 
5774 6 0.243675 0.485178 0.0675673 2 -3 0 
8188 6 0.237924 0.513603 0.0472675 0 3 4 
7909 6 0.734715 0.443894 0.093725 3 1 2 
5266 6 0.00513259 0.492104 0.0857775 0 1 -2 
7748 6 0.192817 0.501719 0.0838236 1 5 3 
5971 6 0.496804 0.473869 0.0575696 -8 -2 2 
7977 5 0.550884 0.470241 0.0891948 1 5 0 
5115 6 0.977895 0.519026 0.0876695 -2 4 -3 
6327 6 0.325257 0.519939 0.0976244 0 0 -1 
5251 6 0.0073264 0.547189 0.0999993 2 -3 3 
5618 5 0.146019 0.54933 0.0863273 1 5 0 
7937 5 0.417789 0.553296 0.0857802 -3 0 -2 
8953 6 0.562106 0.545546 0.0578489 2 1 4 
5709 6 0.58141 0.572163 0.0941312 0 1 4 
5865 6 0.664209 0.611268 0.0704545 -6 -1 -3 
6240 5 0.752598 0.565976 0.0684909 -3 4 6 
6627 6 0.192908 0.635399 0.074899 4 1 -3 
5820 5 0.257869 0.620053 0.0923219 -2 0 -1 
7349 6 0.412161 0.576595 0.0807231 -1 -4 1 
8121 5 0.592737 0.595252 0.0908994 2 4 -5 
7138 6 0.482384 0.628145 0.0427404 -2 5 -2 
7108 6 0.539985 0.64895 0.0960193 3 2 -1 
8407 6 0.0300733 0.673004 0.107736 -4 -4 1 
5526 5 0.343054 0.678532 0.0818286 3 -5 -1 
8386 6 0.544392 0.675008 0.0534264 -3 -4 4 
7197 5 0.594309 0.717283 0.0565414 -2 0 1 
6098 6 0.663262 0.742421 0.0748111 0 -3 -2 
7573 5 0.772102 0.734725 0.0829336 3 -1 0 
5362 6 0.813942 0.724597 0.0546997 -5 -1 1 
8178 6 0.716426 0.729742 0.0769641 -1 3 1 
6116 5 0.290445 0.762919 0.0850333 3 -1 2 
6088 5 0.282335 0.790141 0.0949662 -2 -3 -1 
5028 5 0.353899 0.730324 0.0846416 0 1 2 
7373 5 0.440324 0.775701 0.0884067 -3 7 -1 
8182 5 0.98389 0.77573 0.0896548 -1 2 -2 
6766 6 0.13855 0.810806 0.0902816 3 -2 5 
7496 5 0.212881 0.836245 0.0724963 2 2 -1 
6894 6 0.794222 0.829369 0.110788 -4 -3 -2 
8651 5 0.337101 0.826977 0.0643713 1 -3 2 
5345 5 0.679926 0.857596 0.0938898 2 -3 -4 
5250 6 0.0968443 0.837196 0.0893953 -2 0 -2 
7329 5 0.129451 0.83841 0.0618912 -2 -4 -3 
7366 5 0.634516 0.863054 0.101055 -4 0 -3 
8884 5 0.728687 0.840656 0.0657988 5 -1 -2 
8037 6 0.351846 0.875309 0.0792775 -4 0 -1 
7317 6 0.20327 0.883586 0.0763922 0 -3 0 
6678 6 0.461956 0.864441 0.0897033 -5 5 2 
6495 6 0.716554 0.815764 0.0794423 -3 -1 4 
7238 5 0.115292 0.973547 0.0693413 4 -2 1 
7103 6 0.449299 0.960299 0.0646573 1 -1 -2 
8998 5 0.404143 0.963323 0.1285 0 -2 6 
5783 6 0.593203 0.981957 0.0723992 -2 3 2 
8561 6 0.801567 0.0223992 0.0781968 -2 2 -1 
5257 5 0.275292 0.0230223 0.0644718 3 -2 4 
8269 6 0.303125 0.0599735 0.10208 -1 -2 1 
7584 6 0.646607 0.0755223 0.123064 -3 2 3 
6695 5 0.620509 0.0549878 0.0996922 -2 2 0 
7167 5 0.070803 0.12973 0.0539839 -2 2 4 
7320 6 0.0985212 0.106572 0.0466546 -3 0 7 
6324 5 0.803738 0.0973277 0.0777249 0 0 2 
8371 5 0.158167 0.124035 0.111234 4 0 5 
5520 6 0.552291 0.121564 0.0668758 -3 -2 -1 
8096 6 0.00733998 0.176355 0.0957843 3 -5 -1 
5679 5 0.654681 0.172954 0.0962909 -1 1 -1 
6822 6 0.160252 0.212582 0.0567173 3 -1 4 
6304 5 0.165285 0.214683 0.085352 0 4 1 
7594 5 0.569898 0.248366 0.111519 4 -4 -2 
5559 5 0.894148 0.244395 0.101883 2 6 2 
8598 5 0.811161 0.281864 0.104888 -4 -4 1 
7551 6 0.0307467 0.347608 0.0902157 1 -1 -1 
7422 6 0.301217 0.315648 0.104146 -2 0 2 
5894 6 0.0374813 0.332979 0.136292 9 -3 -1 
5016 6 0.876415 0.374113 0.131564 -1 1 0 
6101 5 0.386376 0.364228 0.0947843 -6 0 2 
8482 6 0.593195 0.392886 0.0838616 -1 1 -1 
7269 5 0.745103 0.404891 0.125168 3 -1 -7 
6744 6 0.764774 0.444 0.116201 -3 1 0 
8816 6 0.777313 0.442975 0.126817 2 3 8 
8099 5 0.12801 0.460255 0.139069 -1 -3 -1 
8772 6 0.108657 0.486208 0.0886538 8 2 -1 
8011 5 0.531232 0.467642 0.108633 -1 3 5 
7083 5 0.700831 0.459933 0.104199 -1 4 -2 
5666 6 0.652873 0.439058 0.108989 -1 1 2 
8703 6 0.804808 0.423424 0.0889019 3 3 1 
8606 6 0.175014 0.507463 0.0816797 -3 2 2 
6148 6 0.241216 0.447537 0.0972858 0 -6 1 
6291 5 0.200215 0.558614 0.135304 1 -2 -3 
6789 5 0.668983 0.527944 0.100287 -3 2 -7 
6481 6 0.930823 0.536708 0.0712891 2 -1 0 
5882 5 0.12656 0.5719 0.0704474 -1 0 -1 
6616 6 0.667043 0.577376 0.121284 -3 5 -4 
5907 6 0.300148 0.62349 0.0905887 0 -1 -2 
5171 5 0.669633 0.589653 0.117411 1 4 2 
8490 5 0.940181 0.617273 0.0484567 2 0 1 
5600 5 0.0369401 0.596523 0.105977 -2 2 -4 
8910 5 0.279416 0.615453 0.148852 1 0 -3 
5797 6 0.982884 0.631698 0.0815109 2 0 -3 
5099 5 0.766303 0.653316 0.0986859 2 -5 -5 
7033 6 0.302835 0.629889 0.107263 -1 -1 0 
8613 5 0.385606 0.643385 0.0970814 -2 1 0 
6559 5 0.259903 0.675852 0.119825 -5 3 -2 
6084 6 0.497483 0.701884 0.0983021 -1 2 -1 
7829 5 0.524327 0.702112 0.125881 -1 4 3 
6332 5 0.953785 0.694071 0.100675 -4 0 3 
7301 5 0.64037 0.697754 0.0757634 -2 -2 2 
8043 6 0.817891 0.743519 0.114029 4 -2 -3 
7981 5 0.12005 0.730438 0.109419 4 6 2 
8950 5 0.288326 0.766555 0.112592 2 0 4 
5038 6 0.920634 0.771053 0.0774607 1 -2 2 
7278 5 0.45707 0.812005 0.0541095 -5 0 1 
7651 6 0.645424 0.765128 0.0797046 1 0 2 
5439 5 0.0727313 0.79721 0.100538 1 0 -1 
7807 5 0.371575 0.81169 0.13751 4 -1 -4 
5200 5 0.316134 0.821469 0.109411 -7 -2 -4 
8546 5 0.349426 0.835365 0.121347 -4 2 -2 
5489 6 0.973767 0.818122 0.110741 4 -7 2 
5529 6 0.279066 0.816152 0.0859464 -2 -1 -1 
8536 6 0.532379 0.863694 0.106769 0 0 -2 
5239 6 0.860082 0.84066 0.0838517 2 -5 4 
5565 6 0.860023 0.900086 0.0767163 -2 -1 4 
7248 5 0.717522 0.914059 0.0715151 -2 2 0 
8250 5 0.567587 0.918584 0.106936 -2 0 -1 
5708 5 0.985468 0.922049 0.0682302 -2 0 5 
7677 6 0.663198 0.945189 0.102746 -7 -3 8 
7413 5 0.852399 0.966783 0.0853105 2 -2 1 
7100 5 0.0382171 0.979091 0.126709 -1 1 -5 
5301 6 0.0655072 0.974595 0.113132 -1 5 -2 
8223 5 0.296771 0.95744 0.117707 0 4 -1 
7016 5 0.147275 0.977359 0.0866122 -3 4 3 
8611 6 0.146011 0.988145 0.0803526 -4 -2 4 
5147 6 0.59134 0.998549 0.12188 6 1 -2 
5128 5 0.108493 0.0226543 0.106539 6 0 2 
5997 5 0.571106 0.998453 0.131161 -2 -1 2 
5929 5 0.614299 0.000247429 0.128533 3 6 3 
5194 6 0.475826 0.0591451 0.133296 0 -1 2 
7177 5 0.554196 0.0436929 0.142932 4 2 1 
6168 6 0.595749 0.0358518 0.115776 2 5 3 
7794 6 0.191475 0.0683624 0.132767 -3 4 1 
6109 5 0.285313 0.028941 0.104918 -4 1 -2 
5696 5 0.405196 0.0788965 0.144819 1 3 5 
5412 6 0.928783 0.044115 0.106025 -2 -2 1 
7730 5 0.305583 0.0848491 0.134086 3 -5 3 
5838 6 0.351028 0.123154 0.113318 3 -2 1 
5067 5 0.609956 0.103782 0.0809894 2 -1 1 
8575 5 0.0314353 0.138771 0.156993 -1 3 2 
8514 6 0.486637 0.163544 0.101298 5 -4 -4 
5344 6 0.162492 0.193199 0.101579 -3 4 4 
7344 6 0.366612 0.141673 0.130352 3 0 -3 
8237 5 0.690564 0.224643 0.139151 -1 -1 1 
5650 6 0.0528398 0.22928 0.158685 2 -5 -5 
6368 5 0.2152 0.226728 0.141288 1 0 2 
5390 6 0.485918 0.213003 0.151693 8 4 1 
6760 5 0.690238 0.176612 0.112799 -2 -2 0 
7787 6 0.758083 0.243118 0.104446 -5 0 -2 
8925 6 0.938156 0.225191 0.153398 1 2 -2 
7796 5 0.324123 0.22906 0.157865 0 -1 -3 
7279 6 0.487783 0.299347 0.108907 -3 2 0 
6483 5 0.38881 0.281354 0.108331 3 -4 5 
7766 5 0.48195 0.257967 0.0923317 3 0 6 
6529 5 0.575063 0.261629 0.0996004 4 0 1 
5037 5 0.908541 0.319191 0.149182 -1 7 2 
8358 5 0.183419 0.334906 0.0983938 -1 4 -1 
8332 6 0.272773 0.341107 0.138094 1 -1 4 
7384 5 0.484267 0.319688 0.118677 2 -1 7 
8733 6 0.971913 0.326671 0.12868 1 -4 0 
5588 6 0.55012 0.378436 0.100648 8 -6 0 
8981 5 0.941573 0.420063 0.167163 3 3 2 
7930 6 0.82475 0.398643 0.118013 -1 4 1 
8076 6 0.725188 0.422295 0.0960724 0 -1 2 
7075 6 0.821423 0.429212 0.113128 3 2 1 
6262 6 0.989673 0.436875 0.128841 -3 2 4 
6204 6 0.0964133 0.44078 0.157955 2 0 5 
8240 6 0.147028 0.481733 0.114727 3 1 -1 
6113 5 0.559236 0.490557 0.160166 -3 -1 -2 
6959 6 0.61229 0.535566 0.14239 0 1 2 
8920 6 0.227752 0.556007 0.146746 -1 -1 6 
8654 5 0.960064 0.530199 0.118737 1 1 3 
7295 6 0.983199 0.574873 0.159945 2 4 3 
8021 6 0.132076 0.555835 0.102937 3 1 -1 
8699 5 0.38336 0.569716 0.134168 -1 -6 -2 
7751 6 0.467992 0.576768 0.116195 0 -5 1 
7180 6 0.449548 0.568182 0.158294 -1 3 -1 
7002 5 0.490092 0.567654 0.143514 0 -2 -1 
6982 6 0.70641 0.578116 0.125593 -1 1 0 
7919 6 0.710448 0.630552 0.117339 0 0 -1 
7021 5 0.909996 0.598893 0.0885742 0 3 1 
8540 5 0.454822 0.649058 0.125698 -2 -4 0 
8555 5 0.6931 0.646857 0.131916 4 -1 -2 
5744 5 0.551685 0.659872 0.12969 3 -1 1 
8959 5 0.580542 0.704608 0.129268 -2 -3 2 
7878 6 0.981099 0.669745 0.12855 1 0 2 
7064 6 0.0302832 0.749548 0.124533 -2 0 -2 
6735 5 0.558451 0.721824 0.106214 -4 1 0 
8343 6 0.540644 0.706974 0.13734 3 -4 -1 
6574 6 0.322406 0.737923 0.109464 -3 -1 0 
7082 6 0.391041 0.746777 0.11494 -4 -6 -1 
5203 5 0.654783 0.762405 0.10356 -1 -3 -6 
8463 6 0.734997 0.759697 0.154321 -2 0 2 
6309 5 0.844445 0.727491 0.144627 0 -2 -2 
6995 6 0.290301 0.824106 0.115546 -2 4 1 
7747 6 0.185896 0.826901 0.165145 3 -4 3 
8019 6 0.797639 0.803568 0.153978 2 -7 -2 
5628 5 0.754094 0.849563 0.147365 3 -4 3 
8050 5 0.850381 0.79752 0.0869128 1 0 1 
7658 6 0.946199 0.829944 0.0671242 0 -3 3 
8534 5 0.232326 0.85065 0.152959 -1 -2 -4 
9000 6 0.511972 0.82902 0.118843 -2 1 -1 
5003 6 0.650687 0.896374 0.154433 -2 0 -3 
8447 6 0.260474 0.874921 0.126526 7 -5 2 
5932 5 0.355185 0.874919 0.100272 -2 -1 5 
7801 6 0.808136 0.93578 0.138292 5 -3 5 
7542 6 0.415968 0.942831 0.137031 -1 -1 2 
7761 6 0.602528 0.968628 0.107733 -5 2 5 
7607 5 0.970554 0.952051 0.127915 1 -3 1 
5443 6 0.481723 0.000825774 0.128656 0 2 1 
6791 5 0.526619 0.975623 0.107968 2 2 -4 
8988 6 0.625 0.0509385 0.173503 1 1 6 
8219 6 0.782477 0.0120057 0.149665 0 -5 9 
6820 6 0.28706 0.0507975 0.185841 4 2 5 
7681 6 0.434912 0.0481322 0.173263 -3 2 0 
8247 6 0.805842 0.0257175 0.101287 -1 1 1 
5979 5 0.0518014 0.102458 0.108165 -2 7 2 
7018 6 0.224826 0.103037 0.141476 5 1 -2 
7039 6 0.314826 0.0796076 0.156242 1 -2 -3 
8381 5 0.922938 0.0912712 0.177622 6 1 1 
8614 6 0.422944 0.106442 0.147177 2 -2 3 
8049 5 0.282283 0.130912 0.174822 3 -1 -1 
6463 5 0.327887 0.166351 0.141186 4 0 4 
5118 6 0.332628 0.153345 0.129443 -1 3 -2 
8731 6 0.89271 0.147375 0.148211 3 -3 -1 
7780 5 0.0836103 0.207066 0.140322 2 1 1 
8844 6 0.344366 0.189694 0.169556 3 5 4 
5372 5 0.5468 0.188594 0.132409 3 1 2 
6623 6 0.752312 0.155782 0.14296 0 1 3 
7376 6 0.959457 0.192976 0.177082 -3 3 1 
5094 6 0.612455 0.178173 0.18304 -3 -1 2 
6355 6 0.526179 0.186503 0.143646 -1 2 3 
8545 6 0.0854733 0.302629 0.120983 -1 2 0 
7305 6 0.46466 0.255332 0.191068 -6 -2 -3 
8710 5 0.0445825 0.273982 0.147676 0 0 -2 
8258 6 0.440677 0.294099 0.125645 -1 -3 -1 
8003 5 0.861009 0.278271 0.148198 0 3 4 
5701 5 0.927132 0.270581 0.156409 -1 5 -9 
7570 5 0.131875 0.291401 0.129472 2 -3 3 
7440 6 0.273872 0.34064 0.096186 1 1 -1 
6199 6 0.459106 0.334659 0.139253 1 1 7 
8739 5 0.543273 0.3367 0.136715 -5 -4 0 
6846 5 0.756279 0.352055 0.162242 0 2 2 
8194 6 0.642735 0.387354 0.17179 4 -5 -4 
7955 5 0.524844 0.360051 0.14708 1 0 -2 
8909 5 0.152372 0.422057 0.140995 2 0 0 
8559 6 0.920265 0.434285 0.10899 1 -1 6 
5140 5 0.253808 0.442086 0.111208 -2 1 2 
5149 6 0.810947 0.480716 0.118245 -3 -1 -4 
6981 5 0.0701533 0.511338 0.158459 0 -4 2 
8069 5 0.355714 0.509622 0.151646 2 -1 -2 
5841 5 0.566131 0.498289 0.151444 -2 1 4 
6169 6 0.558244 0.553245 0.169921 1 -1 -2 
6069 6 0.219113 0.557546 0.161481 -3 0 2 
8849 6 0.727161 0.550965 0.16734 0 -1 5 
7579 6 0.748633 0.518239 0.163199 -2 -3 0 
7855 6 0.925506 0.543901 0.160465 5 4 -2 
6884 6 0.133782 0.529165 0.170387 2 1 -5 
6593 5 0.186644 0.551207 0.153249 4 -2 1 
6583 6 0.00678685 0.568794 0.182738 5 -3 0 
5408 5 0.801802 0.555689 0.134075 2 -4 3 
6313 6 0.165552 0.565328 0.170611 5 2 2 
8180 5 0.256786 0.60285 0.157155 2 -4 1 
8314 6 0.356606 0.604017 0.115817 2 2 6 
5727 6 0.515801 0.579452 0.112164 -4 -1 4 
7990 5 0.708234 0.616676 0.154871 -5 0 2 
6497 6 0.784507 0.636076 0.199775 -3 3 5 
7718 5 0.00206421 0.628183 0.139408 -3 0 6 
7881 5 0.772309 0.658075 0.197282 3 1 0 
6155 5 0.684285 0.726357 0.144971 3 3 -3 
5368 5 0.297353 0.803969 0.187514 -3 0 -1 
6621 6 0.484758 0.794589 0.147445 6 3 2 
7912 5 0.105424 0.787826 0.120765 3 -1 0 
6656 6 0.738254 0.789342 0.158274 -3 -6 -4 
7532 5 0.99979 0.798725 0.137675 -6 -3 1 
8857 5 0.98057 0.830731 0.111918 0 -1 -4 
7938 5 0.248657 0.826611 0.161811 1 1 7 
6837 5 0.202481 0.902323 0.120965 0 -2 -2 
8499 6 0.874715 0.841979 0.135938 0 -3 -1 
6016 5 0.116836 0.865226 0.15299 -5 -2 3 
7347 6 0.420463 0.878256 0.134997 2 2 -3 
7547 5 0.854207 0.880473 0.141206 -5 0 1 
5596 6 0.490184 0.871545 0.138621 -2 -3 0 
8749 5 0.0333913 0.912866 0.126568 2 3 2 
8871 6 0.390835 0.911142 0.1334 3 -3 2 
6536 6 0.372827 0.926855 0.164011 8 4 -1 
5723 6 0.938763 0.947737 0.172067 0 7 -4 
5472 5 0.496871 0.991904 0.136922 -2 2 4 
8621 6 0.655146 0.944249 0.165336 -2 1 2 
5733 5 0.644432 0.998688 0.194628 -2 -4 4 
6467 6 0.83233 0.0252116 0.182077 0 -8 3 
5237 5 0.310318 0.0461218 0.220293 2 1 1 
6208 6 0.170036 0.0438035 0.161419 0 7 1 
6900 6 0.4784 0.03846 0.186103 -3 0 2 
6065 5 0.69463 0.0509819 0.16758 2 -1 3 
5581 6 0.836964 0.0464347 0.211144 1 1 -3 
6956 5 0.259902 0.0896054 0.192992 0 4 -1 
5730 5 0.645926 0.0830144 0.136672 -4 -7 -1 
7270 6 0.754427 0.0913095 0.182476 -1 -2 -1 
6436 6 0.612801 0.0682525 0.157118 -4 1 1 
7500 5 0.759503 0.0893798 0.176411 -4 0 -3 
6390 5 0.580917 0.104915 0.142124 1 1 1 
7662 5 0.980633 0.159636 0.178858 -2 0 -1 
7899 5 0.486519 0.128804 0.187078 -5 -2 1 
6925 6 0.58149 0.149088 0.154067 -2 2 0 
7175 6 0.598308 0.193466 0.192876 -2 1 3 
6654 5 0.0915615 0.20651 0.171498 0 3 -1 
6090 6 0.757324 0.158802 0.217313 0 -2 1 
6448 6 0.259969 0.218556 0.141412 1 -3 3 
7425 6 0.563999 0.205702 0.140063 1 -4 -1 
7531 6 0.391208 0.197825 0.160357 -1 -1 -2 
8535 6 0.635336 0.241219 0.160294 1 2 0 
5469 6 0.467522 0.257315 0.158475 4 2 -1 
7867 6 0.589856 0.261141 0.187133 4 1 2 
7028 6 0.936728 0.262321 0.196418 3 3 1 
6549 5 0.991543 0.262529 0.1953 -4 -2 -4 
8150 5 0.0532071 0.281669 0.192168 -1 -2 4 
8065 5 0.258388 0.309053 0.219572 -2 1 -1 
5773 5 0.654317 0.274907 0.135349 3 0 3 
8251 6 0.936811 0.311668 0.187925 -6 0 -2 
5688 6 0.197503 0.354248 0.195568 4 -2 2 
5869 6 0.890825 0.341684 0.163858 2 1 3 
7311 6 0.88924 0.335472 0.171227 5 -6 4 
5441 5 0.485935 0.339349 0.146819 4 2 -2 
6402 5 0.400625 0.371082 0.15832 1 4 1 
6178 5 0.831231 0.40287 0.180045 2 -3 2 
6340 6 0.431742 0.431252 0.146209 0 2 4 
6479 6 0.90492 0.409919 0.165639 -2 0 -1 
7883 6 0.408721 0.456821 0.193567 0 -5 3 
5983 6 0.55856 0.433987 0.195967 -1 -2 1 
6300 5 0.735661 0.464958 0.164802 3 -5 0 
8690 5 0.915658 0.398474 0.181909 0 -2 6 
8256 5 0.441025 0.447182 0.172741 -1 3 -3 
5404 5 0.459809 0.46476 0.194278 -1 -1 2 
5283 5 0.0747528 0.4677 0.147212 3 6 1 
6597 5 0.675263 0.512707 0.220895 -2 -1 -2 
8902 6 0.383957 0.50514 0.195329 -2 3 -9 
6450 6 0.933041 0.553333 0.158677 3 -5 1 
5308 6 0.353586 0.582685 0.119366 -2 1 1 
6038 6 0.938829 0.55152 0.140099 -5 2 0 
6863 6 0.130979 0.582688 0.18765 -3 3 4 
5878 6 0.29924 0.568845 0.167219 0 -2 2 
8368 6 0.823154 0.606873 0.196384 -3 -1 -3 
7077 6 0.117298 0.568825 0.182787 -3 -1 -3 
7582 6 0.359325 0.591021 0.206709 1 1 -2 
6672 6 0.657749 0.613363 0.163105 -1 0 0 
7437 6 0.886611 0.572781 0.165492 -1 3 -4 
8465 6 0.914463 0.589511 0.215171 4 -1 6 
6617 5 0.0569014 0.63602 0.198204 2 -4 1 
7836 5 0.954584 0.64887 0.169271 5 1 0 
5279 5 0.598195 0.691437 0.151297 2 3 2 
7333 6 0.733246 0.705264 0.193992 5 2 -4 
5789 6 0.0614489 0.736787 0.183641 0 -3 1 
8270 6 0.184108 0.751618 0.183145 -5 0 -3 
5982 6 0.5376 0.769443 0.193018 0 -2 3 
6342 5 0.764154 0.805604 0.17166 -1 -4 0 
8466 6 0.745791 0.748296 0.198126 0 1 -3 
7924 6 0.525011 0.814084 0.146741 -3 -4 1 
6782 6 0.0945028 0.821114 0.134878 -1 -4 2 
8597 6 0.366515 0.811838 0.156765 2 -1 2 
8969 5 0.716411 0.86309 0.179345 2 4 2 
6923 6 0.569795 0.879531 0.175429 -4 -1 2 
7976 6 0.112384 0.86842 0.125891 7 -5 -2 
5594 5 0.487364 0.840973 0.188275 4 -1 -2 
6855 5 0.482986 0.886153 0.18392 2 6 7 
7455 5 0.541129 0.828519 0.161208 0 -1 -2 
7768 6 0.799573 0.865115 0.168505 -2 0 1 
8040 6 0.928251 0.87756 0.158563 -3 -5 3 
5660 5 0.914481 0.851038 0.13152 1 -1 -1 
5360 5 0.550749 0.92803 0.143234 3 -1 1 
6985 5 0.821793 0.935059 0.161433 0 2 3 
5713 5 0.211634 0.918496 0.201072 1 2 0 
8212 5 0.454741 0.894509 0.180984 1 0 3 
6473 6 0.573889 0.905562 0.159802 4 5 -1 
8831 6 0.73161 0.903403 0.16561 1 0 4 
6126 6 0.773799 0.939197 0.147524 -2 -3 -1 
7112 5 0.857813 0.935947 0.167485 1 -3 -1 
8327 6 0.755453 0.944728 0.181108 -1 3 4 
8328 5 0.133854 0.971069 0.173978 3 0 1 
6727 6 0.69472 0.94483 0.18945 1 -1 3 
7636 5 0.029459 0.00406216 0.194697 -1 -4 -1 
5317 6 0.714648 0.0302731 0.175123 -3 2 2 
7324 5 0.954245 0.00442999 0.214581 5 -2 0 
5868 6 0.899414 0.0808552 0.209503 2 3 2 
5116 5 0.0543631 0.088506 0.189871 3 1 -5 
7133 6 0.14491 0.08716 0.209051 2 0 -1 
5750 5 0.323974 0.0821611 0.198982 -2 2 3 
8124 6 0.851108 0.0644734 0.163525 2 3 4 
5144 6 0.887201 0.0560931 0.206425 1 -2 -2 
6882 6 0.038064 0.0857486 0.216671 -1 -1 -1 
8484 6 0.0516104 0.12256 0.174375 1 1 0 
7880 6 0.416177 0.0865181 0.183026 1 1 0 
8111 5 0.969702 0.138021 0.230125 -1 1 3 
7826 6 0.445829 0.12555 0.177626 0 -2 2 
7071 5 0.252005 0.144386 0.197413 -3 1 0 
6938 5 0.481149 0.188442 0.180849 -3 -1 6 
5521 5 0.514854 0.184938 0.21386 -2 1 1 
7086 5 0.663947 0.196 0.188837 -1 0 -5 
6729 6 0.681121 0.168508 0.207553 0 -3 2 
8931 6 0.00319034 0.200369 0.138672 1 4 0 
6541 6 0.102964 0.213794 0.164535 -3 0 0 
6854 6 0.130584 0.253164 0.201143 -2 2 0 
7364 5 0.216146 0.244938 0.199846 2 -2 1 
8719 6 0.312864 0.239812 0.182189 3 -3 3 
8500 6 0.333476 0.189236 0.190856 5 -1 0 
8565 5 0.651595 0.205644 0.210806 3 0 0 
8753 5 0.854222 0.200967 0.156115 0 0 3 
7947 6 0.232935 0.221129 0.167392 -4 4 -7 
7822 6 0.0619708 0.311612 0.237152 2 -1 2 
7417 6 0.352014 0.238155 0.192178 -1 -1 -1 
8879 6 0.803236 0.297682 0.154535 0 -1 -3 
8729 6 0.026903 0.345104 0.196284 -1 -8 -7 
6179 6 0.27553 0.29656 0.206631 -6 5 0 
6931 6 0.164295 0.333291 0.186567 0 0 1 
7773 5 0.588848 0.317555 0.198063 -7 -1 2 