ITEM: TIMESTEP
20000000
ITEM: NUMBER OF ATOMS
9000
ITEM: BOX BOUNDS pp pp pp
-75 75
-75 75
-75 75
ITEM: ATOMS id type xs ys zs ix iy iz 
6962 5 0.0765957 0.056633 0.998646 -2 2 2 
5385 6 0.357675 0.0223471 0.00793238 -1 5 2 
6744 6 0.413596 0.0272946 0.0030785 4 -1 3 
5855 6 0.475292 0.993599 0.0247807 -1 0 -4 
5487 5 0.0929519 0.0149641 0.957573 -4 0 0 
5901 5 0.655312 0.0476853 0.0212547 0 -1 -2 
5149 6 0.710449 0.0256246 0.0283826 4 3 3 
8200 5 0.131821 0.0695037 0.988768 4 6 -8 
8558 6 0.217466 0.0906799 0.992246 1 2 0 
6665 5 0.905912 0.110942 0.982982 0 2 -2 
7936 5 0.950048 0.0532602 0.966396 -3 -6 3 
6925 6 0.387938 0.0815723 0.987078 0 -7 1 
7544 6 0.582794 0.10302 0.0482347 1 -1 3 
7877 6 0.839296 0.134495 0.0248738 -4 5 -6 
5607 5 0.337706 0.152362 0.989216 -4 -5 4 
5859 5 0.712285 0.153651 0.0445569 3 0 -4 
8979 6 0.767778 0.136291 0.00368661 -1 1 -3 
8075 6 0.239799 0.153653 0.0299021 1 3 -3 
5398 6 0.642049 0.188808 0.0493806 3 2 4 
5204 5 0.842987 0.15847 0.972437 0 3 1 
8272 6 0.852406 0.16024 0.0560019 0 1 1 
5336 5 0.121729 0.197225 0.0259203 -3 -4 3 
8069 5 0.169644 0.169073 0.0413281 -3 -1 -3 
7099 6 0.590026 0.172786 0.0133355 3 -1 3 
6544 6 0.177233 0.213274 0.028498 3 0 3 
8607 6 0.420102 0.2451 0.968489 -5 1 2 
8283 6 0.594241 0.278999 0.994891 0 -5 1 
6028 6 0.0168672 0.308396 0.00995168 -2 2 0 
5691 6 0.221494 0.306432 0.0362376 0 -1 -2 
8294 5 0.728104 0.295332 0.991451 5 7 1 
6945 5 0.12221 0.36508 0.989898 0 1 2 
7883 6 0.42179 0.380937 0.0132847 -3 1 2 
8335 6 0.0197422 0.378318 0.994173 -3 -2 -4 
6207 5 0.0727293 0.382507 0.0122501 0 -2 -3 
5768 5 0.18747 0.436476 0.00688988 3 4 0 
5250 5 0.253909 0.402783 0.0105139 0 -1 0 
8953 6 0.405617 0.389674 -0.000518165 -2 0 -1 
7911 5 0.74091 0.390274 0.0249744 -2 -3 2 
5829 5 0.750016 0.400042 0.0173741 3 3 3 
5338 5 0.770084 0.370742 0.00828448 2 -1 -3 
7075 6 0.939451 0.384339 0.996855 -7 -3 3 
6722 5 0.141276 0.425423 0.0107153 9 -4 -1 
7205 5 0.429311 0.397148 0.989654 4 -4 0 
8516 6 0.936744 0.364629 0.0319742 -6 -3 2 
8907 5 0.945407 0.482854 0.994518 -2 -2 2 
8744 5 0.103129 0.53446 0.983394 2 4 -2 
5645 5 0.563465 0.512091 0.989708 0 -1 -4 
8774 6 0.656085 0.564093 0.0280005 -2 -7 1 
7224 6 0.751765 0.536019 0.010257 3 -1 0 
6861 5 0.263674 0.529777 0.0242584 2 -3 -3 
6310 6 0.628961 0.548342 0.966569 4 2 1 
5758 6 0.371396 0.547358 0.0184333 0 3 6 
5933 5 0.846294 0.603365 0.9955 -4 -2 0 
6224 5 0.436831 0.627383 0.00494382 3 -2 3 
7854 5 0.466597 0.593975 0.998029 3 1 0 
5179 5 0.515802 0.614667 0.0105918 -2 -3 1 
8852 5 0.841007 0.594858 0.0111003 2 3 1 
5549 6 0.106653 0.621185 0.99031 0 -3 -1 
6993 6 0.391679 0.667034 0.985926 -1 0 -5 
6423 5 0.511902 0.636841 0.0122061 -3 -2 -2 
7445 6 0.260758 0.716367 0.0228268 -4 1 -3 
5446 5 0.863636 0.691186 0.0139701 1 0 2 
5845 6 0.333561 0.699272 0.00321343 1 0 4 
8958 6 0.800671 0.734078 0.999477 -3 1 2 
5174 5 0.0978373 0.753409 0.0109734 -1 1 0 
5031 6 0.467458 0.788685 0.0260363 3 -5 7 
6613 5 0.560064 0.734753 -0.00294537 -4 2 3 
7123 5 0.83746 0.776975 0.991526 3 1 -3 
7360 6 0.189209 0.758813 0.994029 1 2 -6 
5447 5 0.585167 0.761422 0.997549 0 0 3 
5351 5 0.734914 0.764103 0.0121691 0 6 -3 
5098 6 0.249686 0.816428 0.980794 -3 -4 -1 
6151 5 0.0429074 0.858423 0.0115771 0 -2 4 
7862 5 0.260976 0.859689 0.970992 -6 1 -2 
8073 5 0.820575 0.870121 0.97276 2 1 -2 
6488 5 0.0356836 0.838011 0.986163 1 2 -4 
8214 5 0.242826 0.873173 0.983547 -2 -1 1 
8871 5 0.27596 0.839528 0.000240896 -6 -1 -4 
6418 5 0.382807 0.854976 0.996801 -1 3 -5 
6210 5 0.962818 0.883045 0.0150761 -2 -4 -5 
8801 5 0.12472 0.887625 0.0372184 5 5 -3 
6663 5 0.354049 0.894757 0.0433894 -3 3 -2 
5775 6 0.411094 0.867051 0.0356361 0 -4 4 
8747 5 0.195694 0.839596 -0.000607744 0 2 2 
5287 5 0.235931 0.881288 0.0121208 0 -5 -4 
8524 6 0.895948 0.90954 0.0205135 -5 2 0 
8741 5 0.0104068 0.913389 0.996559 2 -6 1 
8446 5 0.39656 0.912477 0.0311491 -6 0 -1 
7049 6 0.617894 0.893894 0.00681192 -3 3 4 
8550 5 0.987457 0.954616 0.968485 -4 -1 -2 
8193 6 0.125706 0.954485 0.0225265 0 2 -1 
5757 6 0.692234 0.934006 0.993038 3 0 4 
8785 6 0.145622 0.990063 0.0223758 0 -2 2 
8034 6 0.771018 0.923676 0.0280035 0 0 1 
5108 5 0.00991325 0.966079 0.0156826 -1 1 -3 
7209 5 0.195041 0.972153 0.971213 -3 -1 1 
7235 5 0.409815 0.0104753 0.0381763 3 1 -6 
5277 5 0.750826 0.0219841 0.0734187 -3 0 -2 
5210 6 0.843745 0.00617725 0.0352652 2 3 -6 
5563 5 0.163628 0.042951 0.0504676 -4 6 -3 
7652 5 0.835034 0.033582 0.0255942 -1 1 3 
7249 5 0.184006 0.0374507 0.063005 2 -2 0 
8453 6 0.520604 0.0502414 0.0713024 -3 3 -1 
5876 5 0.767598 0.0592658 0.0801102 -3 0 6 
8429 5 0.104815 0.127137 0.0695185 1 -1 1 
8011 6 0.317305 0.03714 0.0393272 -3 -2 8 
5106 5 0.575902 0.0959075 0.0210492 -1 2 3 
7498 6 0.798006 0.185762 0.984019 -1 2 -8 
5455 5 0.0161729 0.0993823 0.0513948 7 -2 3 
8121 5 0.227634 0.128076 0.0252284 2 -6 4 
6081 6 0.658364 0.140561 0.0873841 -1 -1 1 
5828 6 0.777105 0.131271 0.088241 -3 2 -5 
8173 5 0.887368 0.205976 0.00734021 -3 1 -3 
8439 5 0.957118 0.176452 0.032859 1 2 -3 
6750 5 0.080472 0.224763 0.0306351 -5 3 -2 
5167 5 0.837462 0.201264 0.974308 3 1 -3 
8316 6 0.035154 0.247132 0.0755598 -4 4 5 
8356 5 0.200273 0.269056 0.0450616 3 -2 -1 
6306 5 0.432526 0.241306 0.0259324 3 -2 6 
6192 6 0.839466 0.284972 0.0466483 0 -3 6 
6105 5 0.938628 0.266674 0.0380497 -3 0 1 
7727 6 0.0632864 0.329523 0.0323461 -1 -2 3 
5166 5 0.603547 0.314346 0.0320952 1 1 -1 
5462 5 0.515536 0.333711 0.0294524 0 -2 4 
6859 5 0.627275 0.377174 0.0251294 0 -1 -2 
8678 6 0.661743 0.331017 0.0397545 1 6 3 
7226 5 0.878339 0.284173 0.061895 -3 -2 3 
6718 6 0.854734 0.378458 0.0392259 -2 1 -7 
8004 5 0.6744 0.348077 0.0327181 2 -4 3 
7511 6 0.641094 0.358172 0.0375009 1 3 2 
6598 5 0.580115 0.381301 0.0246097 8 -3 -2 
6725 5 0.854918 0.370824 1.00281 0 0 3 
6305 6 0.63658 0.453631 0.0652564 1 0 4 
7174 5 0.275546 0.457068 0.985757 0 0 1 
8222 5 0.325794 0.463307 0.0125566 0 1 -2 
5193 6 0.666784 0.452279 0.0726017 -1 1 -4 
6492 6 0.277536 0.501339 0.0528192 3 -2 5 
7185 5 0.603084 0.463957 0.0649943 1 2 1 
5294 5 0.83708 0.4742 0.029369 -2 -3 0 
7773 5 0.218891 0.496998 0.0752213 -7 0 0 
6810 6 0.424213 0.433442 0.0520215 -3 4 -3 
6761 6 0.747008 0.513393 0.0485331 -1 2 -5 
7405 5 0.250119 0.533945 0.0372191 1 -1 -3 
8505 5 0.417121 0.531576 0.0167573 -1 4 1 
5885 5 0.0402066 0.563441 0.0521852 0 4 0 
8264 5 0.458171 0.550121 0.0317062 -2 3 2 
8521 5 0.622733 0.565252 0.0284905 0 -3 4 
5379 6 0.671774 0.575706 0.0616134 0 4 -4 
6995 6 0.000871133 0.600625 0.0428064 -7 1 0 
6309 6 0.141501 0.582535 0.00618057 0 -2 -2 
5271 5 0.382667 0.581405 0.0501929 -2 1 1 
7840 6 0.91033 0.605794 0.00161492 0 -1 1 
8166 6 0.977655 0.588358 0.0325601 -2 -1 3 
5461 5 0.0585329 0.578311 0.0260014 4 2 -2 
5208 5 0.609532 0.560102 0.0608805 3 -1 5 
6540 5 0.266097 0.632382 0.975853 -5 -5 1 
5326 6 0.578677 0.618474 1.00192 -2 2 0 
8495 6 0.706905 0.633313 0.0460991 -2 2 5 
6022 6 0.223671 0.626012 0.0346143 2 1 -3 
5220 6 0.320656 0.652748 0.0266112 -4 -1 -1 
8748 5 0.904218 0.603196 0.0340044 4 1 -2 
6581 6 0.0373303 0.67044 0.0400153 -1 1 -2 
5109 6 0.379408 0.673865 0.981035 -2 -2 -1 
5737 6 0.556139 0.667555 0.00510301 2 -1 4 
8192 6 0.0724194 0.70515 0.0378605 1 2 0 
8152 6 0.315012 0.725568 0.0442748 7 -2 -3 
5125 5 0.716833 0.770632 0.0137726 6 1 -1 
5636 6 0.13453 0.783472 0.0593869 -5 4 1 
7653 5 0.166681 0.781167 0.0205772 5 4 -1 
6484 6 0.396105 0.774045 0.0328543 -2 4 3 
6909 6 0.722091 0.779198 0.0282363 -3 -2 2 
6798 5 0.679039 0.843286 0.0215546 1 -5 0 
6046 6 0.395592 0.871397 0.0378735 3 4 1 
8415 5 0.949879 0.862496 0.07304 4 1 3 
7958 6 0.127159 0.843421 0.0406479 6 -2 -3 
6738 5 0.251932 0.869032 0.0462534 -3 2 -1 
7402 6 0.330241 0.844208 0.0422013 2 0 -3 
7183 5 0.604027 0.871049 0.0197395 1 -2 -3 
7501 6 0.126217 0.910489 0.0616474 -3 4 -2 
6760 5 0.416314 0.957599 0.045806 0 -3 5 
6633 6 0.458648 0.946941 0.0488383 0 -1 0 
7672 5 0.862806 0.980677 0.0477438 0 -2 -1 
8003 5 0.102329 0.958307 0.04529 2 -1 2 
6964 5 0.733999 0.988072 0.0234541 0 -3 -2 
7332 6 0.0527038 0.956332 0.0458859 2 -5 -4 
8031 6 0.18178 0.0318486 0.0128339 2 -2 3 
7385 6 0.771532 0.971373 0.0104404 0 -3 3 
6299 6 0.517079 0.0466498 0.0551899 -4 -5 1 
6159 6 0.158709 0.0974663 0.0786315 -3 2 -2 
5494 5 0.76161 0.0857284 0.0750742 3 -2 -3 
8841 5 0.0979152 0.0606928 0.0562226 2 1 -2 
7528 5 0.108687 0.0903721 0.066993 0 1 2 
5601 6 0.344932 0.0986924 0.0558538 -4 -1 8 
6630 6 0.785869 0.0955338 0.0556585 5 1 4 
7193 5 0.123828 0.0816414 0.0581223 3 0 -7 
8768 6 0.777401 0.143952 0.0295598 -4 0 2 
8796 6 0.903034 0.158624 0.0882869 -1 4 1 
6102 6 0.509401 0.151331 0.0746871 2 3 1 
6239 6 0.339783 0.188641 0.0442396 -3 0 5 
6730 6 0.025584 0.186574 0.0413168 -3 -1 0 
7813 5 0.0857922 0.206253 0.0770159 -5 -1 -1 
5821 5 0.535991 0.18188 0.0542842 -3 0 -2 
6751 6 0.669945 0.168397 0.0460399 -3 2 2 
6538 5 0.128942 0.209177 0.0836046 -3 -5 -3 
7636 6 0.588565 0.253076 0.0770618 1 0 -4 
7588 6 0.456957 0.310331 0.0662496 3 -3 -1 
8158 6 0.686969 0.271222 0.0405055 -4 4 0 
6599 5 0.187664 0.295504 0.0435423 5 6 5 
5371 6 0.243581 0.320841 0.0761801 -5 4 0 
7763 5 0.958043 0.324725 0.0634278 -3 1 -6 
6023 6 0.708795 0.349631 0.0694439 4 -2 4 
7879 6 0.809603 0.307161 0.0488175 1 5 1 
6058 6 0.858903 0.356474 0.0604564 -1 1 -1 
7484 5 0.0777278 0.397445 0.0334038 0 -2 0 
8348 6 0.448311 0.355403 0.0520088 1 1 2 
8220 5 0.553694 0.394196 0.0247432 0 -4 0 
7872 5 0.644356 0.357982 0.0571466 -4 -5 1 
5792 6 0.900194 0.400869 0.0398727 -3 2 -4 
6471 5 0.021413 0.399919 0.0656779 1 -1 -2 
7015 5 0.194897 0.392629 0.0670697 2 -3 2 
8807 6 0.464648 0.362923 0.0375369 2 1 2 
5491 6 0.924043 0.389411 0.0496681 2 0 -2 
5314 6 0.736274 0.437705 0.0899008 2 -1 3 
8578 6 0.812773 0.41047 0.0436973 -3 -6 -1 
8725 6 0.78444 0.432008 0.0705242 -3 4 0 
7201 6 0.264354 0.462067 0.0428223 3 2 -2 
8660 6 0.605087 0.43457 0.0851739 2 -1 3 
6127 6 0.1713 0.446561 0.0557364 -2 3 2 
6203 6 0.643465 0.421471 0.0989273 -3 -3 1 
8609 5 0.788247 0.481318 0.0595094 0 -3 0 
6846 6 0.415506 0.538047 0.0736562 2 0 1 
7317 6 0.492182 0.517828 0.0611304 5 0 -3 
7530 6 0.45226 0.50539 0.0509072 1 -1 5 
5399 6 0.69326 0.484651 0.0593951 -6 4 -1 
6635 5 0.24442 0.502746 0.029493 -1 2 -1 
7428 5 0.640384 0.555997 0.0802683 -1 1 0 
5573 6 0.830884 0.528449 0.0605259 1 0 -4 
8373 6 0.210873 0.56219 0.0614842 0 -3 0 
8713 5 0.681174 0.490557 0.0542786 -9 1 1 
8424 6 0.956323 0.559247 0.047762 4 2 1 
6610 5 0.240543 0.571387 0.0677094 0 3 5 
5440 6 0.421669 0.572395 0.0482258 -1 -1 -2 
6713 5 0.445763 0.60742 0.0223346 2 6 -2 
6568 6 0.754156 0.618245 0.0667481 0 3 2 
8934 5 0.872916 0.667991 0.0644735 1 0 -2 
8838 5 0.303415 0.675666 0.0726427 3 -1 2 
8873 5 0.375508 0.695778 0.0246614 3 -3 3 
5014 6 0.96144 0.665223 0.0627882 -1 -3 0 
8603 5 0.632698 0.704893 0.0571453 -1 0 -2 
6898 6 0.863625 0.653347 0.0822426 3 0 -1 
8542 5 0.362283 0.723314 0.058104 1 -2 2 
8277 5 0.0138382 0.725904 0.0589587 -2 -3 -2 
6667 5 0.368443 0.737147 0.0612054 0 -3 1 
7216 5 0.577397 0.765306 0.0252661 -1 -2 1 
5707 6 0.349688 0.763419 0.0584628 -1 1 -1 
6525 6 0.41031 0.788666 0.0462767 1 0 -2 
7068 5 0.00273869 0.759657 0.0744226 -2 -1 3 
8262 6 0.787825 0.818851 0.0639847 -6 -1 1 
8726 6 0.24364 0.860939 0.0383226 -3 -1 1 
5642 6 0.736775 0.821654 0.0499232 1 -1 3 
6588 6 0.922921 0.855798 0.0736433 3 0 1 
5188 5 0.92756 0.80775 0.0542079 -7 -3 3 
7088 5 0.362767 0.833692 0.0862697 4 0 -2 
6825 5 0.626929 0.849228 0.053978 -3 1 0 
6095 5 0.72882 0.871769 0.0831637 -3 1 -5 
7900 6 0.0561245 0.867154 0.0609511 -3 3 -4 
8111 5 0.573485 0.909715 0.0626155 0 -1 2 
7458 5 0.102235 0.907512 0.0666627 -2 2 4 
6649 5 0.617185 0.918202 0.0382609 -3 3 0 
8975 6 0.192053 0.927253 0.0809065 1 1 0 
7325 5 0.485994 0.955267 0.0666977 -3 0 3 
5798 5 0.954122 0.948295 0.0409226 -4 -2 -2 
6594 5 0.98743 0.937322 0.0364911 3 -1 0 
8858 6 0.357063 0.962172 0.0812847 2 2 3 
5803 6 0.770311 0.98062 0.0650863 -3 0 -4 
5589 5 0.890928 0.964253 0.08107 1 -4 4 
8771 5 0.763732 0.00875717 0.102955 1 2 1 
5586 6 0.895387 0.995697 0.0751875 1 0 3 
7237 5 0.920887 0.0356004 0.081373 -5 -1 1 
6882 6 0.172781 0.0452218 0.067867 0 1 1 
5617 6 0.569217 0.111183 0.112789 -5 1 3 
6567 6 0.370337 0.125835 0.0884016 0 2 -3 
6308 5 0.665416 0.151238 0.0733495 8 -2 -4 
5094 5 0.0107176 0.187248 0.087833 2 0 5 
7357 6 0.748195 0.218704 0.0474565 0 1 6 
7326 6 0.851832 0.268224 0.07153 -2 4 2 
7364 6 0.443945 0.235497 0.0645412 -1 4 -3 
7828 5 0.706868 0.269574 0.116009 -4 0 -4 
8232 5 0.154902 0.321148 0.0497734 -1 -3 -3 
5900 6 0.181094 0.324436 0.0497683 0 2 -2 
6997 5 0.525244 0.324159 0.0809812 0 1 2 
8032 5 0.168036 0.391149 0.0739876 4 3 3 
6534 5 0.976453 0.346427 0.0949544 4 1 5 
8018 6 0.355475 0.389746 0.0554082 2 6 -3 
8339 6 0.414903 0.381066 0.0645866 2 7 1 
8668 5 0.982371 0.400805 0.0797017 3 4 1 
5414 5 0.333655 0.399294 0.0944378 -2 -2 2 
7891 5 0.0760076 0.437756 0.0925269 -4 0 -1 
7792 5 0.3001 0.432605 0.0934951 1 0 -2 
5117 6 0.738949 0.468462 0.117052 -2 -3 0 
8967 5 0.25888 0.44463 0.0869183 -3 1 -1 
5140 6 0.85156 0.466887 0.0344851 0 3 1 
7962 6 0.967493 0.487453 0.0638286 -6 -2 0 
7981 5 0.671834 0.434698 0.0887858 9 0 -1 
8520 5 0.533445 0.503529 0.0481403 -8 0 3 
7795 6 0.594071 0.580375 0.0560257 -3 -3 -1 
7988 6 0.75532 0.563538 0.059663 1 -5 0 
5726 6 0.316131 0.583744 0.0616485 -6 -3 3 
5432 6 0.496374 0.575825 0.116127 1 -1 -1 
8227 5 0.600032 0.633277 0.0650587 -4 -1 1 
5438 6 0.328559 0.64985 0.0391076 -1 -1 -3 
7271 5 0.379734 0.661109 0.0753518 2 -1 1 
6811 5 0.466732 0.688898 0.0984341 2 3 0 
5213 5 0.877549 0.67249 0.0992209 -3 3 4 
8613 6 0.597544 0.667811 0.0742753 -1 11 4 
7685 6 0.945503 0.667214 0.125267 2 -4 2 
8851 5 0.0652523 0.71372 0.0714652 2 -1 -3 
8848 6 0.174942 0.711126 0.139094 4 -3 1 
7537 6 0.131722 0.685612 0.0740818 -2 2 -2 
7885 5 0.268596 0.710596 0.0881538 -3 2 2 
6981 5 0.508876 0.73883 0.0666738 0 0 -1 
8259 6 0.471051 0.724262 0.067153 0 -1 -2 
7446 6 0.115232 0.733696 0.103739 0 1 1 
7682 5 0.356659 0.694938 0.0558612 4 3 -1 
8622 5 0.58775 0.742213 0.0489943 4 4 1 
6072 5 0.117356 0.76322 0.0752322 0 -3 2 
7548 5 0.740925 0.747891 0.0874042 0 -2 3 
8381 6 0.121693 0.769424 0.105836 4 -3 -5 
8960 6 0.423268 0.754105 0.0755572 3 2 5 
5533 6 0.464637 0.825343 0.0589335 4 -1 2 
8517 6 0.567665 0.800279 0.0970908 -1 1 1 
7246 5 0.674072 0.779417 0.0411795 -2 -8 4 
6370 5 0.339682 0.798183 0.0413732 -4 -2 2 
6201 5 0.300595 0.794401 0.065471 2 2 -3 
7386 5 0.726958 0.835598 0.0755448 0 0 1 
7153 5 0.911009 0.828582 0.0387418 1 -3 5 
7083 6 0.158006 0.872505 0.0646016 -2 -2 2 
7832 6 0.370218 0.89758 0.0906809 -2 -2 -5 
7221 6 0.387273 0.855888 0.086246 3 -2 -1 
5948 5 0.725953 0.855405 0.0588887 0 2 -1 
6913 5 0.987334 0.879035 0.0673082 -1 -1 2 
6190 6 0.0918681 0.913288 0.0531023 0 1 5 
5418 6 0.588505 0.915814 0.0673708 3 2 5 
6347 5 0.680497 0.934878 0.0892904 -2 4 1 
8840 5 0.297355 0.891995 0.121323 -2 -2 3 
5402 6 0.488468 0.964115 0.110788 0 3 0 
8583 5 0.512061 0.973701 0.0830041 -1 -3 -4 
8635 6 0.694692 0.97127 0.091906 -2 0 -2 
5968 5 0.77809 0.963856 0.0932293 1 -4 -3 
5840 6 0.580011 0.019099 0.113889 0 -5 1 
8767 6 0.651492 0.00239666 0.0829975 -1 -7 -1 
8894 5 0.866998 0.009917 0.0708263 1 2 0 
5289 5 0.372869 0.0795114 0.123266 1 3 2 
6208 5 0.430284 0.0428416 0.0823101 7 -2 0 
5749 6 0.677949 0.0375354 0.0567048 -5 2 4 
5046 6 0.731428 0.0245475 0.0916133 -4 1 -1 
8417 6 0.848933 0.0370723 0.0568489 -3 -5 1 
5751 5 0.123299 0.029737 0.0834481 0 1 -3 
7021 5 0.602583 0.0521413 0.075256 1 -3 -1 
7933 6 0.582999 0.088712 0.104371 0 2 -3 
7545 5 0.261396 0.0770536 0.0908987 0 2 2 
6529 6 0.459511 0.0855727 0.107236 2 0 4 
7510 5 0.909376 0.0777653 0.110754 0 -2 -3 
5303 6 0.374344 0.0985154 0.100991 2 2 2 
8839 6 0.511693 0.0957413 0.0751652 3 2 4 
8149 6 0.0866344 0.128712 0.124132 2 -2 0 
5237 6 0.35013 0.139549 0.0727445 0 1 5 
6953 5 0.282904 0.194542 0.0892163 1 3 -2 
5922 5 0.340372 0.164441 0.103354 -3 -2 -5 
7239 5 0.0216393 0.212579 0.121578 -2 -1 2 
7466 6 0.0579008 0.209456 0.099778 -2 4 -6 
5907 6 0.343804 0.236019 0.109932 -3 -4 3 
5872 6 0.271089 0.246461 0.0795322 3 1 -1 
5155 5 0.598765 0.246929 0.0784011 4 -1 2 
6006 6 0.531635 0.252944 0.103841 -3 -1 0 
8875 6 0.467637 0.270141 0.131063 1 -3 2 
6917 5 0.962282 0.279069 0.0646796 0 3 -1 
7145 5 0.133669 0.308025 0.0793681 5 -3 0 
5980 5 0.329661 0.372123 0.0989759 -1 6 -6 
6919 5 0.465309 0.344522 0.0985928 1 3 3 
5990 5 0.837666 0.306643 0.097151 0 2 -1 
8855 5 0.335883 0.351851 0.142197 -3 1 2 
5850 6 0.36937 0.377967 0.0891265 5 2 -1 
6781 5 0.00824287 0.423678 0.0996509 2 0 3 
5623 6 0.350941 0.437336 0.0927996 5 -3 3 
7258 5 0.942983 0.449518 0.104051 0 5 -1 
7072 6 0.630246 0.479134 0.0845663 -1 -1 4 
8735 5 0.303257 0.532198 0.125844 -5 -1 0 
6200 5 0.289092 0.560966 0.0885537 0 -6 3 
8651 5 0.294964 0.572675 0.099231 2 4 -4 
7667 5 0.704164 0.582504 0.114666 -1 3 3 
7302 6 0.593586 0.599058 0.102422 -4 0 5 
8544 6 0.551092 0.645266 0.075435 1 4 -2 
8098 6 0.762229 0.600733 0.0938502 -5 -3 1 
8788 5 0.323448 0.678914 0.100146 7 6 -1 
6963 6 0.626369 0.714749 0.100493 4 -4 3 
7753 6 0.914962 0.669701 0.0705078 1 -1 0 
8447 6 0.36094 0.74616 0.107775 1 -3 2 
6988 6 0.790274 0.743262 0.102931 -2 4 -3 
8434 5 0.81272 0.704843 0.0918934 3 -4 1 
8432 6 0.483054 0.747937 0.105652 -3 3 -1 
6626 6 0.799055 0.75296 0.0659125 1 5 2 
5401 6 0.898534 0.754211 0.0886937 -1 0 3 
7173 5 0.945349 0.781977 0.113584 -1 -2 -1 
6325 5 0.751963 0.770499 0.0735697 -1 -1 1 
5676 5 0.0557317 0.821441 0.0855052 3 -1 -2 
7857 6 0.731098 0.800306 0.113255 -2 -2 -1 
8469 5 0.858938 0.875184 0.0703619 0 0 -6 
5977 6 0.893811 0.848417 0.138929 0 -3 2 
7803 5 0.971007 0.822071 0.0789626 -4 1 1 
8189 6 0.186994 0.855328 0.0916003 0 1 -5 
7006 5 0.209228 0.858088 0.112608 -1 -2 4 
8947 6 0.262616 0.866465 0.111231 2 2 0 
6688 5 0.875588 0.869754 0.0878702 3 0 3 
7864 6 0.272576 0.89278 0.121368 3 -1 1 
7016 5 0.42989 0.911457 0.0706748 1 -2 -1 
6965 6 0.438214 0.951978 0.0841827 -3 -2 0 
6975 6 0.60409 0.948447 0.0594841 -1 -2 -5 
6215 5 0.66547 0.943484 0.105343 -2 1 0 
7384 6 0.0491397 0.897952 0.0609753 -3 2 0 
5264 6 0.224611 0.963095 0.12911 -4 -3 5 
6322 5 0.372277 0.965285 0.142229 -3 3 3 
7547 6 0.566565 0.920006 0.114258 -2 1 1 
8570 5 0.987575 0.939794 0.113968 -3 0 0 
8853 6 0.108669 0.977582 0.0978472 -1 -3 1 
8828 5 0.195385 0.0118832 0.0636389 0 0 8 
6535 6 0.426247 0.0214821 0.132492 2 2 4 
5186 5 0.801623 0.00749296 0.120117 -2 2 1 
8529 6 0.762659 0.962113 0.0704956 0 -1 -2 
7613 6 0.876569 0.976858 0.134231 -5 -2 -3 
7991 6 0.46937 0.0329543 0.095075 0 -4 1 
8311 6 0.0127881 0.079489 0.143697 2 2 -1 
8610 6 0.287409 0.106813 0.109341 -1 1 3 
8703 6 0.713359 0.064115 0.143492 6 -5 6 
5350 6 0.00896402 0.0777235 0.131233 2 4 -5 
8372 5 0.104176 0.139669 0.11675 0 -1 3 
7004 5 0.213009 0.105254 0.108402 1 5 0 
8950 6 0.32785 0.0776724 0.123676 2 0 6 
7449 5 0.512837 0.128775 0.118272 -3 -1 2 
5130 6 0.623225 0.122995 0.0855459 2 1 -2 
5172 6 0.715518 0.147704 0.129554 -1 -2 -6 
8817 5 0.805638 0.189237 0.138964 0 -5 2 
8078 6 0.935197 0.228199 0.154962 3 0 3 
7897 5 0.889816 0.212749 0.0743771 -1 2 4 
6508 6 0.670931 0.250494 0.151959 -2 2 2 
5011 5 0.811411 0.32455 0.167839 2 0 2 
5278 6 0.854482 0.279218 0.126123 -1 6 1 
8582 5 0.0748833 0.318668 0.111977 3 -2 1 
5493 6 0.0830765 0.281094 0.137336 1 0 1 
5242 6 0.794281 0.319118 0.111916 3 -1 0 
7627 6 0.970522 0.370748 0.172693 2 4 2 
8017 5 0.51132 0.391639 0.110358 3 4 0 
7916 6 0.417889 0.403317 0.136068 -3 1 3 
8387 6 0.935696 0.371014 0.125779 -3 3 -1 
5331 5 0.653749 0.372837 0.115102 -1 -5 5 
6462 5 0.188478 0.430665 0.153469 2 3 4 
8330 5 0.806732 0.461659 0.155053 1 -1 0 
8589 6 0.751796 0.471874 0.125197 -7 -2 -2 
5697 5 0.458227 0.501128 0.106239 0 1 -1 
7642 5 0.278171 0.520389 0.126729 6 2 -2 
5568 6 0.702325 0.532157 0.0736699 -3 -4 5 
8924 6 0.726094 0.52605 0.121838 -4 -4 -1 
5309 5 0.884422 0.518522 0.11417 -1 0 1 
5151 5 0.0653412 0.550182 0.175718 -3 3 1 
8663 5 0.462999 0.646455 0.10423 1 -6 -5 
7833 6 0.492254 0.592208 0.138357 2 3 4 
8621 5 0.480351 0.655749 0.154113 -4 -5 4 
8169 6 0.471348 0.680732 0.125745 3 -1 1 
6270 5 0.911931 0.632659 0.102128 -4 3 -3 
5921 5 0.133646 0.669129 0.121574 1 3 -4 
8754 5 0.381504 0.68796 0.113605 -5 -3 2 
7304 6 0.711483 0.694476 0.142973 -5 -1 0 
7371 6 0.357219 0.723835 0.115135 2 -2 -4 
7717 5 0.615954 0.667735 0.126449 1 1 1 
6279 5 0.00844621 0.771352 0.126455 -1 0 -2 
5701 5 0.40127 0.747731 0.131886 -3 -2 3 
7554 5 0.655694 0.748096 0.124435 -1 5 0 
7115 6 0.775592 0.683506 0.11559 -4 -1 0 
5044 5 0.789799 0.777832 0.117786 2 0 0 
7784 6 0.885643 0.773878 0.146929 -1 -2 2 
8012 6 0.961052 0.827298 0.13798 0 -1 1 
5727 6 0.730714 0.796351 0.127794 0 -4 -5 
7189 6 0.85331 0.743094 0.132841 1 -4 2 
6566 6 0.914395 0.827663 0.163513 2 0 2 
7904 5 0.294554 0.8766 0.140364 -1 2 1 
8911 6 0.351535 0.841024 0.16109 3 -3 -2 
7039 5 0.678116 0.829634 0.116713 -2 0 2 
5854 5 0.670309 0.876903 0.0865467 1 1 -5 
7586 5 0.147282 0.91003 0.139214 -4 -3 -2 
8933 6 0.32755 0.938378 0.131543 2 2 2 
6170 5 0.54316 0.963098 0.100114 1 -4 1 
5860 6 0.50732 0.923095 0.120147 2 1 1 
5897 6 0.803195 0.961311 0.145832 -2 -5 4 
7070 6 0.870426 0.943786 0.134436 5 4 8 
7370 6 0.176719 0.97215 0.133524 -1 0 0 
8357 6 0.566466 0.956631 0.114607 1 -3 -2 
8887 5 0.705022 0.99354 0.106644 -2 7 -5 
8811 5 0.0133192 0.979619 0.152307 -3 1 0 
6674 5 0.508552 0.981627 0.127928 1 -3 -3 
8096 6 0.859615 0.968737 0.126309 -3 2 4 
7770 5 0.462281 0.00526654 0.166982 -1 0 5 
7945 5 0.524703 0.0609906 0.180974 -1 -2 -2 
6026 6 0.152232 0.0478554 0.109365 -1 -1 -3 
7646 6 0.235611 0.0553397 0.145064 -2 2 -1 
8973 6 0.321835 0.0433034 0.148365 2 0 0 
6542 5 0.119007 0.0505208 0.165618 1 6 -1 
7576 6 0.183406 0.0583941 0.122728 -2 2 -1 
8812 5 0.33952 0.0466314 0.126028 3 3 1 
6388 6 0.700092 0.067023 0.101299 -2 -3 -2 
5677 5 0.452614 0.11078 0.146107 0 5 4 
8016 6 0.516276 0.0993101 0.124195 0 4 1 
6243 6 0.672926 0.165876 0.159265 3 -4 4 
8203 5 0.303171 0.141233 0.117636 -2 0 1 
5205 6 0.361722 0.113911 0.102974 3 3 0 
7761 5 0.391426 0.162335 0.178702 -1 -1 4 
7594 6 0.739305 0.189889 0.154685 -1 -2 2 
7207 5 0.15217 0.206986 0.110469 4 -2 -2 
5010 5 0.165381 0.171142 0.152437 4 3 -1 
5613 6 0.245352 0.274027 0.133453 1 1 1 
6570 6 0.0531369 0.287129 0.210933 -5 2 0 
8687 5 0.865441 0.23771 0.129684 -2 -3 3 
6019 6 0.0445939 0.285354 0.150719 0 -4 -1 
8944 6 0.198643 0.31219 0.187932 1 2 -1 
6016 5 0.226942 0.294956 0.146353 0 0 2 
5637 6 0.351706 0.275466 0.148863 -1 -1 -3 
5603 5 0.556923 0.332949 0.110941 -4 1 6 
7416 5 0.264241 0.332343 0.150329 2 3 -5 
6673 6 0.374211 0.384466 0.142662 0 -4 0 
6353 5 0.758168 0.342983 0.167074 0 0 3 
7107 5 0.923384 0.300925 0.130095 0 0 -1 
8808 5 0.0129964 0.342769 0.160176 2 1 3 
6401 5 0.127259 0.393246 0.166508 0 -6 2 
8305 5 0.367241 0.383104 0.145849 -3 2 -1 
5305 6 0.886135 0.403965 0.156563 -3 2 4 
5484 5 0.0932237 0.404373 0.141499 2 0 1 
7972 6 0.430128 0.438108 0.167288 -1 -1 -2 
8461 6 0.30214 0.492026 0.113424 2 -1 3 
5232 5 0.293965 0.465088 0.130919 0 1 -1 
5467 5 0.407729 0.49698 0.152073 0 1 1 
8383 6 0.88826 0.538116 0.111515 -5 3 1 
8770 5 0.504245 0.50448 0.129838 -1 2 -3 
8728 6 0.717213 0.532388 0.142038 5 1 5 
7708 5 0.332681 0.568519 0.160616 -2 -3 -6 
6741 6 0.317318 0.509167 0.160901 2 -3 4 
7536 5 0.520071 0.527139 0.126631 -4 0 3 
6699 5 0.637197 0.55406 0.168707 0 4 3 
5709 5 0.796838 0.501589 0.14773 -1 3 -1 
8921 6 0.64133 0.630123 0.122249 -5 2 0 
8060 5 0.588037 0.646546 0.169333 0 3 1 
7254 5 0.905762 0.660874 0.135714 -4 1 1 
6617 6 0.854369 0.645341 0.144849 -5 -1 2 
5302 6 0.0916224 0.710718 0.107032 -1 -1 -4 
7658 5 0.797873 0.691787 0.161234 1 -2 -2 
6804 5 0.982913 0.715369 0.152374 -3 3 3 
7439 6 0.80521 0.730619 0.132212 -1 3 2 
7527 5 0.139524 0.805103 0.161873 1 0 2 
6226 5 0.908688 0.848876 0.165181 -4 0 5 
8113 6 0.959329 0.782744 0.139914 -1 -3 2 
7633 6 0.0897643 0.859753 0.132932 -2 -2 -3 
8732 6 0.509204 0.831563 0.108856 1 -2 3 
5936 5 0.609843 0.823248 0.150181 -5 -1 -1 
8286 6 0.898564 0.819527 0.139886 0 7 -1 
5999 5 0.655153 0.847214 0.149839 -3 -4 1 
8216 5 0.00617333 0.840771 0.15059 -1 0 1 
8207 6 0.341392 0.900761 0.13238 -3 -1 0 
6394 6 0.794272 0.908473 0.160098 -2 2 -3 
8976 6 0.804415 0.896755 0.115965 -2 -2 1 
5015 5 0.950095 0.893376 0.150649 -2 -2 -4 
5419 5 0.845958 0.952513 0.185825 3 -1 1 
5640 5 0.429149 0.955384 0.160425 -2 -5 3 
8733 6 0.855518 0.971775 0.156818 1 1 2 
5717 6 0.368053 0.964997 0.169824 -5 1 -1 
8033 5 0.513674 0.030608 0.161883 2 -3 -1 
5112 5 0.464963 0.0570764 0.178987 -2 -3 -3 
6285 6 0.964726 0.0812105 0.20576 0 -1 2 
8630 6 0.0676324 0.049476 0.164209 -1 -3 0 
5865 6 0.304277 0.0815226 0.161031 3 1 2 
6452 5 0.493026 0.109772 0.187194 -5 5 3 
5654 5 0.723425 0.103915 0.163441 -2 -1 8 
6889 5 0.994275 0.0856681 0.20816 3 -1 1 
5962 6 0.139124 0.0802479 0.213357 3 2 -2 
5693 6 0.172859 0.0838735 0.167009 -2 0 3 
5745 5 0.325966 0.113514 0.160795 -2 -2 4 
7790 5 0.146757 0.111669 0.139602 -1 -2 0 
8882 6 0.655921 0.140654 0.150319 0 6 -2 
8572 6 0.538526 0.158666 0.146129 -2 2 -1 
6651 6 0.239588 0.170901 0.166926 0 -2 2 
7716 5 0.407905 0.19786 0.197888 -2 3 4 
7395 6 0.717518 0.158583 0.179065 -5 1 -3 
6833 6 0.777321 0.252064 0.156351 -2 -4 -1 
6074 5 0.42183 0.223154 0.171979 -2 2 -4 
6784 5 0.638169 0.256035 0.160239 1 0 1 
8920 6 0.0476968 0.282438 0.183607 4 0 -2 
8667 5 0.282154 0.280766 0.172021 2 1 1 
8799 6 0.292197 0.250572 0.171621 1 -3 -3 
6052 6 0.412702 0.291174 0.193456 2 3 -2 
6721 5 0.727594 0.275442 0.174512 -3 -1 0 
7233 5 0.0476334 0.370359 0.15656 0 0 -4 
7481 5 0.139717 0.404814 0.15628 0 2 0 
7970 6 0.278803 0.384067 0.20163 -1 2 -3 
5849 6 0.665858 0.422384 0.194735 1 1 -1 
7692 5 0.799803 0.378842 0.159349 -1 -1 -4 
8353 5 0.893145 0.382855 0.186644 0 -3 3 
7423 5 0.028365 0.438332 0.179914 -8 4 -3 
8363 5 0.25519 0.439375 0.13074 -3 1 1 
7698 6 0.899701 0.428256 0.147543 2 1 3 
5747 5 0.534561 0.50774 0.139913 4 1 1 
7377 5 0.304103 0.521445 0.167389 4 5 1 
6237 5 0.421674 0.538845 0.178907 2 5 -3 
6387 5 0.665209 0.463353 0.188898 -5 -1 -2 
5867 6 0.0509875 0.51877 0.179729 -3 3 3 
6830 6 0.223401 0.542354 0.179597 3 1 0 
8421 5 0.98054 0.524712 0.182059 -2 4 0 
7019 5 0.062088 0.558625 0.15842 -2 -2 -1 
8952 6 0.586739 0.582973 0.195303 -1 -4 3 
6468 5 0.645507 0.557822 0.173861 -2 -4 5 
7020 5 0.84447 0.562311 0.187492 1 -3 -2 
7648 6 0.219806 0.572454 0.19892 3 -1 -2 
7647 6 0.448413 0.599083 0.187954 2 -1 2 
6816 6 0.987716 0.618853 0.142448 2 4 3 
7737 6 0.0308771 0.592996 0.149562 0 3 -1 
8519 6 0.170902 0.636372 0.136082 4 -3 -2 
7789 5 0.581757 0.579438 0.153453 1 1 -1 
5837 5 0.750208 0.655604 0.198074 3 5 -3 
5966 5 0.181611 0.648864 0.172766 2 -3 3 
8300 5 0.338949 0.64532 0.159681 3 3 2 
5254 6 0.790069 0.606498 0.169538 4 0 0 
5107 6 0.832949 0.658155 0.182291 -2 -1 0 
7584 5 0.971401 0.643283 0.151704 1 -1 2 
8157 5 0.251284 0.711827 0.169821 2 -1 2 
8573 5 0.544209 0.692937 0.162815 2 0 3 
7687 6 0.991672 0.654606 0.135063 -3 -4 -1 
5597 5 0.0459543 0.716063 0.171415 -2 1 0 
5836 6 0.477876 0.714116 0.169981 4 0 5 
6326 6 0.943382 0.698255 0.174409 -1 0 2 
8099 5 0.0586147 0.719384 0.185297 4 1 4 
8781 6 0.826612 0.70076 0.152721 2 3 -2 
6419 6 0.219691 0.752288 0.175956 -2 0 -1 
5223 5 0.0247568 0.804586 0.176523 2 0 1 
7751 5 0.217585 0.799479 0.177175 -4 -1 -3 
6115 5 0.993877 0.755471 0.12267 0 -2 1 
5253 6 0.568895 0.775693 0.2047 3 -2 -1 
6679 5 0.474597 0.847256 0.179922 -3 0 -1 
7436 6 0.946439 0.817118 0.164751 0 -4 -3 
7999 5 0.0672194 0.850788 0.214711 2 2 6 
5649 6 0.201531 0.857926 0.159579 7 0 0 
5221 6 0.390763 0.914814 0.18053 -3 -1 5 
6106 6 0.127234 0.920795 0.179468 0 -3 2 
8983 5 0.260395 0.908292 0.1846 1 -2 1 
7997 5 0.331774 0.944312 0.218567 1 0 5 
6982 6 0.401882 0.932528 0.175244 -3 -2 3 
6211 5 0.504231 0.944879 0.175892 -1 -4 2 
5142 6 0.63973 0.928433 0.166978 -5 -3 5 
7266 6 0.476499 0.950982 0.200323 4 1 0 
6061 5 0.542639 0.984841 0.167934 1 -2 -1 
6265 6 0.935584 0.0165312 0.165312 -1 -1 0 
7856 6 0.0448712 0.0173736 0.197204 0 0 0 
7902 5 0.299319 0.0220027 0.204506 1 -3 1 
5430 6 0.777538 0.0220356 0.19226 0 -2 4 
5047 5 0.00638983 0.0266691 0.169381 -1 3 -2 
7949 6 0.850597 0.0451192 0.228927 -2 0 0 
6485 5 0.974509 0.0532083 0.162446 0 1 -7 
8265 5 0.973647 0.0444263 0.180541 1 -3 -3 
6807 6 0.37042 0.0567116 0.187246 0 -1 2 
6198 5 0.62324 0.076481 0.200136 -1 2 3 
8299 6 0.584812 0.0903629 0.173212 -7 2 1 
6520 5 0.669392 0.0722908 0.175675 0 -2 -3 
6156 6 0.607641 0.0841403 0.178341 -4 -1 -5 
8498 5 0.279822 0.118803 0.190854 -2 -2 2 
6645 6 0.504687 0.105606 0.203868 1 3 0 
5524 6 0.780085 0.132904 0.176843 -1 3 -3 
8038 5 0.406675 0.133952 0.175907 0 1 0 
8190 5 0.421969 0.168247 0.195148 2 3 2 
6685 5 0.767285 0.158096 0.191562 -5 -1 -8 
6469 6 0.756603 0.175912 0.16098 2 1 3 
8433 6 0.742166 0.193139 0.14757 2 3 -1 
6850 6 0.150554 0.223565 0.189671 -3 -4 -1 
7340 6 0.594469 0.230045 0.172693 1 -2 -5 
5682 6 0.698076 0.207848 0.177836 -4 -1 1 
8945 5 0.697645 0.214905 0.177637 -1 -2 4 
6873 6 0.577417 0.287525 0.191597 -2 -2 -5 
6785 6 0.0239774 0.255212 0.154487 0 -7 -4 
5021 5 0.561549 0.229341 0.200972 -2 1 -2 
5129 6 0.151749 0.276381 0.166467 -1 -3 -4 
5394 5 0.400188 0.274705 0.183488 0 0 -5 
8036 5 0.571365 0.293233 0.176826 1 0 -3 
6565 5 0.776026 0.284306 0.185911 -2 -5 -3 
8199 5 0.594183 0.247356 0.250214 -1 1 1 
6779 5 0.791269 0.291172 0.168867 0 0 -3 
8282 5 0.856519 0.31183 0.202808 1 3 3 
7042 6 0.977056 0.283802 0.19948 0 1 -3 
8296 6 1.0006 0.316381 0.221109 0 2 1 
7880 5 0.748552 0.328113 0.211044 0 -2 1 
6031 6 0.716629 0.346853 0.220684 -6 0 4 
8468 6 0.0296313 0.336818 0.186274 2 -2 5 
8721 6 0.0815662 0.360553 0.196362 6 0 1 
6231 5 0.357391 0.399085 0.246483 1 -2 -2 
7710 6 0.60081 0.420686 0.206216 1 0 -3 