ITEM: TIMESTEP
20000000
ITEM: NUMBER OF ATOMS
9000
ITEM: BOX BOUNDS pp pp pp
-75 75
-75 75
-75 75
ITEM: ATOMS id type xs ys zs ix iy iz 
8663 5 0.367131 0.027766 0.0418466 1 -4 3 
6101 6 0.682444 0.000395289 0.0070636 0 1 0 
8599 5 0.743141 0.00799142 0.0322264 -3 8 2 
8041 5 0.348357 0.0534754 0.0244246 -1 -4 2 
7806 6 0.247703 0.0797837 0.0217588 2 6 0 
6530 5 0.0265793 0.0719907 0.0266802 4 -3 2 
5122 6 0.848603 0.049313 0.0214471 0 1 0 
6503 5 0.870746 0.0827108 0.0205517 1 3 4 
7148 5 0.995349 0.14855 0.0157322 -3 2 0 
7553 5 0.14563 0.149944 0.0192087 2 -5 3 
6655 5 0.189168 0.104284 0.025636 -2 -6 0 
8810 6 0.620441 0.170065 0.0329351 -2 5 0 
7157 6 0.152249 0.153736 0.0264084 -3 0 7 
8218 6 0.228796 0.1588 0.00912098 8 -2 -5 
8723 6 0.0309041 0.152638 0.0126353 7 3 1 
8372 6 0.0781455 0.175532 0.978304 -2 6 -3 
5304 5 0.0244319 0.172818 0.0373272 0 0 3 
8955 6 0.773568 0.166638 0.0538025 -4 -3 -3 
7179 5 0.474029 0.167104 0.98037 1 -3 -2 
5764 6 0.790641 0.211792 0.00307813 -2 0 -1 
5011 6 0.304154 0.252145 0.0251131 3 1 3 
7928 6 0.33777 0.24392 -0.0019233 5 -1 -1 
6335 6 0.630853 0.248116 0.997822 -2 -3 3 
8220 6 0.643388 0.254515 0.0373932 -4 -3 -1 
7941 6 0.862803 0.309192 0.0360831 -2 -3 2 
5668 6 0.173327 0.274194 0.0241606 -4 1 0 
5816 6 0.699988 0.256219 0.995756 4 0 -1 
8836 6 0.826964 0.29343 0.995545 3 -3 0 
7056 6 0.1061 0.337082 1.00088 8 4 0 
7204 6 0.207068 0.316772 0.0056672 -1 -2 -2 
7678 5 0.898385 0.332521 0.0273032 2 0 0 
6481 5 0.333526 0.359798 0.987292 0 1 1 
5413 6 0.207613 0.400615 0.0140873 3 4 3 
7852 6 0.565401 0.411565 0.987532 7 -7 -2 
5928 5 0.674896 0.423131 0.0529314 -4 -8 -4 
6426 6 0.0328819 0.462606 0.00871157 1 3 1 
7061 6 0.353168 0.422997 0.972414 2 -5 2 
6155 6 0.302555 0.470521 0.00588584 0 4 3 
8526 6 0.392615 0.475531 0.0539596 -2 6 6 
8831 5 0.449816 0.468718 0.00161472 1 -1 3 
7060 5 0.0488139 0.474218 0.0146313 0 -2 -1 
8784 6 0.0283901 0.502493 0.977129 -2 0 -4 
8245 5 0.870958 0.501433 0.00399839 2 -2 3 
7550 6 0.579183 0.537973 0.971989 0 -1 -1 
6989 5 0.764033 0.496322 0.00441637 -2 3 -1 
5555 6 0.00329256 0.556479 0.994806 -1 2 -1 
7839 5 0.971542 0.539403 0.0156391 -1 1 -2 
6794 6 0.654639 0.582828 0.0133924 0 3 0 
8898 6 0.000244724 0.602198 0.0203895 6 -1 4 
8153 6 0.0452124 0.626468 0.989637 -1 -1 -1 
6983 5 0.185279 0.595994 0.0128646 3 2 -1 
8882 5 0.586871 0.595092 0.0020248 -3 -1 4 
5311 6 0.256513 0.621281 0.026218 3 1 -4 
6356 6 0.198188 0.709596 0.0148391 -3 2 0 
5845 6 0.302351 0.646689 0.985898 1 3 2 
6590 6 0.61976 0.641858 0.070143 2 -2 -2 
8983 6 0.887538 0.664025 0.0220722 -1 -2 6 
5874 5 0.931284 0.655225 0.994414 1 0 -2 
5832 5 0.960563 0.668389 0.0229698 2 -3 -2 
8725 6 0.913427 0.694144 0.0111157 3 1 -2 
5777 6 0.492973 0.756345 0.987381 0 2 -6 
7119 6 0.433172 0.733106 0.999522 1 -5 1 
7121 6 0.105394 0.796671 0.0408368 -3 5 -4 
8935 5 0.194941 0.79149 0.0257269 6 2 2 
6640 5 0.401646 0.813532 0.992665 0 0 1 
5565 6 0.648779 0.794039 0.0178633 1 -2 5 
7355 6 0.889319 0.807894 0.0145756 0 -2 -4 
8851 5 0.938737 0.761291 0.000518016 0 0 -1 
6580 6 0.206139 0.860211 0.0202361 3 1 3 
7847 6 0.437257 0.86034 0.0523796 -1 -1 3 
5736 6 0.868174 0.855986 0.00705142 -2 -2 -2 
6979 6 0.131849 0.831045 0.99475 -4 -2 -1 
5681 5 0.503758 0.83967 0.0186337 -3 0 5 
7176 6 0.72378 0.811962 0.034804 5 5 4 
6932 5 0.898736 0.847886 0.98114 -2 0 1 
5084 6 0.821447 0.85485 0.0222129 5 0 1 
8545 6 0.625687 0.890762 0.0165099 -2 0 4 
6365 6 0.855883 0.900132 0.0457688 -1 4 4 
7265 5 0.039804 0.894885 0.0393053 -1 0 2 
7689 5 0.170642 0.9293 0.0101253 1 2 5 
8950 6 0.196937 0.934722 0.0376663 -5 1 -4 
5753 6 0.800872 0.942851 0.00684891 2 -5 1 
7054 6 0.427349 0.990276 0.0187776 0 2 2 
8064 6 0.520713 0.0327821 0.998365 2 -1 -3 
7914 5 0.624624 0.0211159 0.0329633 1 -4 0 
6653 6 0.660806 0.0310254 0.0381901 -1 -1 1 
7875 6 0.912436 0.971703 0.99039 -4 -2 1 
8533 5 0.124423 0.0389529 0.025543 -2 1 4 
6153 5 0.364752 0.0167529 0.0115042 -2 2 2 
8180 6 0.256908 -3.80573e-05 0.0570937 -2 1 -3 
6048 6 0.351414 0.0508004 0.00973021 0 -1 -7 
8266 5 0.800212 0.0724717 0.0224154 1 -2 2 
5871 5 0.876007 0.0218185 0.0108015 -1 -4 3 
5155 6 0.661615 0.0840955 0.010368 -1 0 1 
8130 5 0.00994392 0.168483 0.0446255 -5 -2 -2 
8617 6 0.998489 0.155408 0.0111313 -1 0 2 
5657 5 0.152251 0.162674 0.0658091 -2 0 -2 
8687 6 0.172524 0.16244 0.0620973 -4 3 -1 
8167 6 0.527203 0.168076 0.0325767 -1 3 2 
6354 6 0.784224 0.126154 0.0582308 0 2 0 
7791 5 0.830714 0.159792 0.0236882 1 -4 0 
5688 5 0.079213 0.153843 0.0392756 -3 -1 5 
6904 6 0.469724 0.2209 0.0506888 1 -4 -1 
8291 5 0.620704 0.297384 0.0079911 1 1 -1 
7178 6 0.750012 0.266455 0.0339601 0 -4 -2 
6452 6 0.76537 0.247052 0.032774 6 3 0 
7782 5 0.943582 0.291198 0.0264105 0 -5 -2 
6761 6 0.0498272 0.299464 0.0414964 0 -1 -3 
5417 6 0.080771 0.287963 0.0250936 2 -1 -3 
8713 6 0.232275 0.293476 0.00796664 6 2 5 
6219 6 0.483953 0.330348 0.0227347 -2 -4 1 
6121 5 0.486084 0.288768 0.988444 -2 -5 -5 
5078 5 0.568949 0.340592 0.00315404 -3 0 4 
6875 5 0.479731 0.382793 0.0533494 4 -1 -2 
6183 5 0.133814 0.372464 0.0375228 -4 -5 4 
6416 6 0.724342 0.356257 0.0358241 -2 -1 0 
8728 5 0.797552 0.403591 0.049028 0 0 6 
6179 5 0.802258 0.365963 0.0211993 -1 -2 6 
8341 6 0.963741 0.323693 0.0316121 3 1 4 
7253 6 0.437769 0.37572 0.019782 -1 -1 1 
6319 6 0.279131 0.420403 0.0189299 0 -3 -3 
8270 6 0.887592 0.3906 0.0217477 1 4 1 
8449 6 0.32742 0.492912 0.0109907 0 2 -3 
7050 5 0.220965 0.521654 0.0599995 7 -3 1 
8032 5 0.573271 0.510025 0.028981 2 -2 4 
6818 6 0.650668 0.484729 0.996443 -2 -5 0 
7831 5 0.869909 0.478211 0.0394181 2 -2 1 
7283 6 0.210144 0.521898 0.998836 -4 -1 -1 
8172 6 0.193738 0.502855 0.0324946 -1 -3 0 
5966 6 0.887924 0.525229 0.0774061 0 4 -1 
5471 5 0.778812 0.565013 0.0301319 -1 0 0 
5628 5 0.811503 0.532854 0.0240332 0 4 4 
6078 6 0.393568 0.612085 0.048736 -1 0 6 
7412 6 0.776291 0.583504 0.0379139 0 6 -3 
7857 6 0.113663 0.643812 1.00052 2 0 -1 
6884 6 0.12597 0.611504 0.0617217 -1 -2 0 
5438 6 0.978531 0.6238 0.014257 -3 -3 4 
8034 6 0.268988 0.662634 0.969395 0 7 0 
5971 5 0.158686 0.670688 0.0301207 -4 4 -4 
5251 6 0.203025 0.708529 0.0577521 2 -2 -1 
6780 6 0.881048 0.68477 0.02313 -4 -3 5 
5461 6 0.0645251 0.711108 0.0181231 6 2 -1 
8275 6 0.715313 0.77791 0.0448421 3 -4 2 
8776 6 0.394382 0.763139 0.0399902 -1 2 -1 
7109 5 0.638836 0.782193 0.0171118 -2 6 2 
5378 5 0.77145 0.734272 0.0750812 1 2 3 
6926 5 0.792164 0.71573 0.0864359 -2 -4 1 
6087 5 0.501536 0.804455 0.0389366 5 -4 2 
6800 6 0.814947 0.762962 0.0366401 5 0 -2 
5402 6 0.21134 0.855175 0.0262609 2 1 1 
6320 5 0.376643 0.846861 0.0744354 2 -4 5 
6447 6 0.228981 0.863501 0.050513 1 1 -1 
8714 6 0.020846 0.870404 0.0194407 -2 0 3 
8661 6 0.603576 0.873169 0.0481102 7 2 7 
8043 6 0.090571 0.912109 0.0396657 0 0 -1 
6193 5 0.545477 0.868855 0.0415534 0 -2 2 
7214 5 0.874336 0.886334 0.024489 7 -1 4 
6646 5 0.935184 0.931605 0.0350488 2 1 1 
5233 6 0.175411 0.913561 0.0203418 -1 1 9 
7384 5 0.165266 0.908814 0.00262165 -1 -1 1 
6601 6 0.386413 0.950568 0.0151511 -3 -2 -4 
7120 5 0.928137 0.91916 0.996535 1 -2 0 
8883 5 0.0344245 0.917757 0.995684 -1 -1 0 
5280 5 0.264543 0.931068 0.0440093 -3 0 -1 
7308 6 0.804052 0.92969 0.983989 -1 -5 4 
8381 5 0.996645 0.930931 0.0314894 -2 3 1 
6277 6 0.0246015 0.965673 0.0525051 3 2 -4 
7106 6 0.13102 0.0116504 0.0515868 1 1 1 
5478 5 0.280482 -0.00218673 0.0849563 -4 2 1 
5123 5 0.781672 0.0547619 0.0589791 -1 -1 1 
8853 6 0.604785 0.0719649 0.0774247 2 -1 -3 
6982 5 0.708665 0.0646593 0.0578637 5 3 0 
7811 6 0.814431 0.108037 0.0575971 -6 -1 -8 
5702 6 0.116073 0.144503 0.0550103 1 -4 2 
7909 5 0.179774 0.0948189 0.024338 -2 0 3 
8093 5 0.710204 0.138516 0.0178525 -1 5 -2 
6264 5 0.506012 0.129774 0.0562001 0 -1 3 
7690 6 0.640141 0.172799 0.0611868 -2 5 3 
8752 6 0.762876 0.145539 0.0427704 -1 6 -2 
5274 5 0.321916 0.195568 0.0618845 0 -1 6 
8690 5 0.531054 0.161339 0.0536817 -5 -4 -4 
8804 5 0.644522 0.189915 0.0796069 1 4 0 
6161 6 0.800955 0.178121 0.0794374 -1 1 -1 
5690 5 0.017586 0.185102 0.0916319 1 -1 4 
7965 5 0.783148 0.207802 0.029488 1 6 5 
7520 5 0.792947 0.252409 0.0462691 -1 2 1 
7487 5 0.91274 0.234456 0.0486535 4 1 4 
6285 6 0.183439 0.209802 0.0398145 5 2 -4 
8943 6 0.183986 0.252882 0.0676432 4 1 -1 
7168 6 0.229854 0.243649 0.0358454 1 -2 0 
5255 6 0.269746 0.194926 0.0410905 -3 5 -1 
7736 5 0.320584 0.248361 0.0602997 3 1 -1 
8896 6 0.332432 0.265288 0.0756854 0 -2 0 
7594 5 0.408344 0.2885 0.0543909 1 3 -3 
7424 5 0.531267 0.264462 0.00759559 2 -3 1 
5776 6 0.326196 0.29056 0.026167 5 3 -5 
6082 6 0.621631 0.275171 0.0330074 -2 -2 0 
8058 5 0.798318 0.332755 0.0718847 3 2 -2 
6316 6 0.310688 0.327408 0.0475317 -3 4 -2 
6821 5 0.26738 0.334602 0.0141614 -1 4 -1 
8540 6 0.732885 0.345741 0.0371489 1 0 -2 
5582 5 0.985524 0.340608 0.0128885 -2 -1 -2 
5250 6 0.121194 0.354359 0.100258 -3 -3 4 
7872 5 0.309906 0.361623 0.0741581 -5 3 1 
6713 6 0.954416 0.380776 0.0629637 1 3 3 
8259 5 0.0216489 0.401708 0.0785666 -2 3 -1 
6303 6 0.175039 0.440533 0.0796192 6 -3 -1 
7406 5 0.862355 0.42185 0.0696377 1 2 0 
5329 5 0.481912 0.499826 0.0517703 -2 -1 4 
6424 6 0.806051 0.450302 0.0507184 0 0 0 
7077 6 0.258509 0.50251 0.0596991 -2 -4 2 
5441 6 0.449906 0.490726 0.0534117 -2 5 2 
7925 6 0.43647 0.499931 0.0434751 0 -2 8 
8966 6 0.687353 0.502837 0.0591466 2 0 0 
5583 5 0.697245 0.471404 0.0581265 2 -6 7 
7948 5 0.226319 0.532026 0.0679085 6 -3 0 
5504 5 0.336118 0.466547 0.0768371 4 -2 0 
5411 6 0.472067 0.492883 0.057119 0 -5 4 
5492 5 0.730371 0.499331 0.0713327 -2 1 7 
5967 6 0.0299998 0.546531 0.0629754 0 3 -1 
8355 5 0.273008 0.488441 0.0510304 -1 0 -1 
6307 5 0.928436 0.542147 0.0361077 -2 -1 -3 
7404 6 0.739419 0.556172 0.0928007 -3 -1 1 
8718 5 0.740653 0.590806 0.0214376 3 -6 -3 
7844 5 0.0916479 0.671368 0.0547561 0 -6 5 
8729 5 0.70524 0.661395 0.0711965 -1 -2 -2 
5046 6 0.755568 0.650131 0.0499174 4 -3 -1 
5652 6 0.298093 0.709213 0.0322503 2 2 0 
5399 6 0.659295 0.736025 0.024614 -1 2 2 
8893 6 0.0424482 0.724217 0.0458984 -10 3 7 
6353 6 0.693682 0.750371 0.0887407 0 -2 -1 
5954 6 0.967237 0.772425 0.0791194 1 -4 2 
7628 6 0.0868899 0.74433 0.0756487 1 2 -1 
8210 5 0.561755 0.774958 0.0679446 1 -2 4 
7037 5 0.5644 0.744064 0.0655415 0 -2 -1 
6839 5 0.933489 0.763591 0.0724933 0 0 -5 
8362 5 0.254573 0.794157 0.0187382 4 0 1 
6363 6 0.802754 0.842266 0.0634529 0 -6 -1 
7233 6 0.927735 0.818899 0.0653658 -1 0 5 
7803 5 0.163819 0.844728 0.0440695 3 3 5 
6053 5 0.953723 0.831744 0.0522063 4 -6 3 
7264 5 0.275378 0.872235 0.0340401 3 -3 -3 
8598 5 0.354384 0.885773 0.0234703 2 -6 2 
7448 5 0.852918 0.858643 0.0767853 -4 -1 -2 
7447 5 0.812831 0.8932 0.0669252 -4 2 5 
7388 5 0.326298 0.88521 0.0602568 3 -1 0 
8182 5 0.114025 0.959785 0.0538511 2 -4 0 
8584 5 0.317562 0.926426 0.114604 0 3 5 
5159 6 0.415853 0.970709 0.0616102 3 1 -4 
5088 6 0.679136 0.0186245 0.0478882 -4 4 -5 
8052 6 0.7187 0.951362 0.0678719 -3 0 2 
8949 6 0.935643 0.0214921 0.0267057 -4 0 -6 
6167 6 0.133152 0.0250679 0.0584141 4 0 4 
5785 6 0.74462 0.988222 0.0647949 -1 3 1 
6455 6 0.510495 0.0443816 0.0991566 0 1 3 
7749 6 0.496817 0.0598995 0.0654321 -2 1 1 
6663 6 0.574939 0.0221049 0.0771963 -2 1 -3 
8938 6 0.989017 0.0931886 0.0629149 0 -3 1 
7627 5 0.0608497 0.106765 0.0173381 -2 0 2 
8361 6 0.68388 0.0474019 0.046867 -1 5 -4 
6759 6 0.923229 0.0736821 0.064442 0 -3 2 
8844 6 0.525292 0.0914806 0.05944 0 -4 1 
5829 6 0.890375 0.106369 0.126149 4 2 1 
8565 5 0.301298 0.10294 0.0613385 2 0 0 
8625 5 0.807207 0.164483 0.0899328 -3 -2 5 
7816 5 0.148912 0.105429 0.06474 -2 0 4 
6622 5 0.350011 0.178513 0.064448 1 -5 3 
5694 5 0.502175 0.153435 0.0634059 3 1 -1 
6969 6 0.511136 0.167681 0.0960204 -1 0 -1 
6990 5 0.556338 0.22641 0.0993494 -2 -1 5 
7460 5 0.74313 0.247713 0.0661677 1 1 2 
7999 6 0.333049 0.284064 0.109517 3 1 -2 
6374 5 0.736193 0.262888 0.0330234 -4 -1 1 
8691 6 0.0453202 0.318615 0.0819585 1 -1 2 
7343 5 0.173429 0.303555 0.0960907 -6 -1 0 
8481 6 0.414169 0.31781 0.0475521 2 0 1 
6898 6 0.107611 0.405028 0.131349 4 -4 5 
6229 5 0.103394 0.353509 0.130843 3 -3 0 
7123 6 0.521413 0.345624 0.088113 -6 6 0 
6825 6 0.277072 0.388379 0.0670748 -4 -1 1 
7773 6 0.296505 0.441751 0.102699 -4 0 6 
5644 6 0.473983 0.407525 0.059719 0 -1 0 
6866 5 0.00954145 0.41961 0.105374 3 4 -1 
7880 6 0.993989 0.471336 0.0713738 0 -4 1 
6262 6 0.180831 0.52636 0.0584249 -4 2 2 
7593 6 0.645436 0.458326 0.0857278 5 5 -4 
6389 6 0.764108 0.456751 0.0731047 -1 1 -1 
5448 5 0.502085 0.508424 0.0909156 -4 -2 0 
8437 6 0.679172 0.510044 0.0985202 4 0 1 
5797 6 0.863584 0.495811 0.0888951 0 -2 -2 
7009 6 0.121047 0.523265 0.0127125 3 0 4 
5900 6 0.827591 0.556253 0.0668046 1 -2 -3 
8252 5 0.890704 0.55776 0.108333 -3 3 2 
7666 6 0.00382836 0.552019 0.0851479 5 1 5 
6767 5 0.33242 0.541093 0.0525448 -1 0 3 
6055 5 0.551676 0.555377 0.101154 -3 -2 1 
5303 5 0.264708 0.61504 0.0535054 5 0 2 
8238 6 0.468542 0.632574 0.0715844 -5 2 2 
8510 6 0.419309 0.602511 0.0758949 -5 -3 2 
8957 5 0.597824 0.625775 0.0646594 -5 0 4 
8727 6 0.662967 0.594174 0.0706909 -2 0 0 
5782 6 0.883611 0.622759 0.101877 2 -3 2 
7786 6 0.798527 0.672784 0.078541 1 3 0 
7704 5 0.830576 0.667251 0.0711182 0 -3 1 
6473 6 0.400905 0.681127 0.0860077 2 -1 3 
7347 5 0.97614 0.640523 0.0936469 3 3 4 
5659 6 0.142561 0.690258 0.0838531 -1 2 3 
7953 6 0.285047 0.669928 0.0566685 2 -3 1 
5718 5 0.606767 0.706425 0.0743453 2 -3 0 
8641 5 0.185058 0.707901 0.042991 2 -1 1 
7961 6 0.320152 0.714756 0.114585 3 3 2 
8482 6 0.348161 0.715685 0.110414 -2 3 1 
5362 5 0.426031 0.732422 0.058927 -1 -3 -3 
5260 5 0.566338 0.758737 0.137257 -2 4 -1 
7661 6 0.748683 0.732122 0.0702383 2 5 1 
6154 6 0.84518 0.732389 0.0519047 2 2 -5 
6689 6 0.554821 0.715433 0.039734 0 2 0 
5081 6 0.947162 0.690111 0.0379814 -1 -3 1 
5025 5 0.264639 0.772428 0.0663945 -4 -4 5 
8079 5 0.226581 0.834297 0.0769894 0 0 -1 
5523 5 0.383879 0.793022 0.0495731 3 2 6 
6001 5 0.196457 0.822137 0.0957485 3 -7 10 
7919 5 0.396414 0.82075 0.0784223 0 -3 7 
6480 6 0.461495 0.872249 0.0539331 6 1 -3 
8427 6 0.909411 0.920337 0.103404 -1 3 -3 
6411 5 0.348295 0.947947 0.0655947 2 3 2 
7360 5 0.2575 0.961938 0.0961789 1 1 0 
8569 5 0.188101 0.997578 0.0763858 0 -2 0 
6352 6 0.025173 0.0273721 0.102951 -5 -2 -1 
6922 6 0.978148 0.991332 0.111873 1 0 -4 
7751 6 0.541051 0.0321564 0.100672 1 -1 0 
7636 6 0.811814 0.00809431 0.144898 4 0 2 
6000 6 0.387375 0.101169 0.11378 -1 1 0 
5936 5 0.419782 0.0714758 0.0528312 -2 0 1 
8929 5 0.433974 0.0377882 0.104722 -3 -1 -1 
7625 6 0.580648 0.0490079 0.139569 -2 3 3 
5096 5 0.314535 0.0572098 0.132702 -1 4 -1 
8749 6 0.407743 0.10037 0.0845133 -1 -2 -1 
7787 5 0.50885 0.105658 0.138406 1 6 2 
5563 6 0.470928 0.155724 0.0950244 3 4 1 
7467 5 0.819337 0.132033 0.115508 2 -4 7 
7150 6 0.124064 0.146429 0.115316 -2 1 2 
6520 6 0.377527 0.155729 0.101817 -2 -1 -3 
7911 5 0.513958 0.139501 0.130371 -2 1 2 
6418 6 0.963148 0.137428 0.104031 -3 2 -3 
8215 6 0.655098 0.157263 0.0638379 3 -1 5 
6587 6 0.723825 0.193001 0.0904004 2 2 -5 
6359 6 0.819792 0.174785 0.101554 1 -4 4 
5427 6 0.239016 0.223271 0.0958337 -2 -2 6 
5317 5 0.824012 0.1777 0.136051 3 3 3 
8478 5 0.185715 0.245853 0.096883 2 -2 2 
7985 5 0.206765 0.209591 0.0940014 4 -1 2 
6957 5 0.830295 0.212075 0.0984048 1 2 2 
8428 6 0.440952 0.246258 0.100025 3 -4 -2 
5207 6 0.416425 0.285685 0.0905801 -5 1 3 
5676 5 0.766094 0.291688 0.0862586 -4 -3 -2 
6457 5 0.922863 0.279227 0.124735 -1 -4 3 
6241 6 0.780383 0.349113 0.0913671 -1 0 4 
6639 6 0.170898 0.334084 0.128182 2 -1 -1 
5119 5 0.192446 0.376825 0.104566 1 -3 5 
5663 6 0.281927 0.374037 0.155126 2 1 4 
6090 5 0.966744 0.382907 0.0900417 -3 3 -3 
6850 6 0.0512176 0.375564 0.0824507 -4 0 -6 
6731 6 0.279017 0.369774 0.0863455 1 0 1 
5840 5 0.289957 0.412763 0.101276 2 3 3 
6539 6 0.693224 0.374224 0.0820335 0 0 4 
8676 6 0.755029 0.37801 0.0987661 0 0 3 
8782 5 0.0485653 0.38659 0.0795083 -3 9 1 
8091 5 0.369415 0.410211 0.0889098 2 -1 2 
8843 6 0.409026 0.410285 0.108847 -1 5 3 
7309 6 0.699899 0.383192 0.0779494 -4 0 3 
6690 6 0.859388 0.391221 0.118041 1 1 -1 
6282 6 0.952968 0.422991 0.114649 -5 1 -1 
5237 6 0.403378 0.440916 0.103275 4 -3 -1 
6040 6 0.615321 0.472261 0.0898204 0 -4 3 
6178 5 0.809858 0.478808 0.126751 0 2 1 
5318 5 0.952068 0.394256 0.130338 3 -6 1 
6449 6 0.0242299 0.461492 0.125326 3 4 2 
5866 6 0.519599 0.488083 0.0980934 -4 2 3 
5289 5 0.61833 0.439991 0.0968979 1 0 5 
5391 5 0.405831 0.503784 0.0769587 -3 3 1 
7385 6 0.466689 0.546957 0.0770983 4 -2 4 
5313 6 0.751448 0.476948 0.0732849 6 -3 3 
8541 6 0.0424908 0.546573 0.0754528 3 -2 0 
7387 6 0.370416 0.487858 0.143915 -4 -3 -1 
7096 6 0.399389 0.543741 0.0912792 1 0 0 
8326 5 0.572112 0.559285 0.13183 -3 4 -3 
5813 6 0.178353 0.56585 0.135273 2 1 5 
5075 6 0.677451 0.571585 0.0716433 0 2 -4 
7186 6 0.288582 0.551021 0.112651 -1 3 -1 
5059 6 0.579039 0.587414 0.0900744 -1 3 -1 
6556 6 0.1156 0.604166 0.0848838 2 3 -6 
7069 6 0.399707 0.602086 0.0931224 -2 0 -1 
8544 6 0.493683 0.597045 0.0874072 -2 -1 5 
8925 6 0.787431 0.600914 0.0924981 -3 -1 0 
8289 6 0.018773 0.630003 0.111107 3 0 2 
6441 5 0.168044 0.684398 0.091061 1 1 2 
6752 6 0.383589 0.60803 0.100231 1 0 4 
6343 5 0.466863 0.643162 0.0892642 -2 -1 -2 
8256 6 0.476917 0.643495 0.0933615 -1 1 0 
6971 6 0.121427 0.617936 0.0847915 10 -1 -2 
7005 5 0.638044 0.656435 0.062831 1 -2 0 
8083 5 0.227609 0.691849 0.0918624 3 -1 5 
5846 6 0.510731 0.710496 0.0952859 0 3 4 
7705 5 0.134826 0.724254 0.0942961 -5 5 1 
5189 6 0.704715 0.705203 0.121836 2 5 0 
5171 5 0.929122 0.687929 0.0974473 3 -1 -4 
8314 6 0.990885 0.726558 0.0950015 -1 -3 1 
7312 5 0.228593 0.764755 0.0925438 3 5 1 
8547 6 0.208292 0.773331 0.13325 3 -2 -2 
7227 5 0.0792662 0.820905 0.0890068 -3 0 2 
5458 5 0.374941 0.824167 0.08865 -3 1 -2 
5145 6 0.773219 0.756971 0.0938142 2 -2 1 
6799 6 0.801904 0.858724 0.068891 1 4 2 
8972 5 0.210334 0.853261 0.0872656 -4 -1 -1 
8298 5 0.541785 0.86651 0.101852 2 -4 0 
7068 6 0.886334 0.861164 0.187344 -1 -5 -2 
8027 6 0.500821 0.886671 0.123818 -4 -1 -1 
5137 5 0.690377 0.869025 0.103637 2 2 3 
6412 5 0.728302 0.893366 0.0846731 3 -2 -2 
7066 6 0.00510615 0.921901 0.0718284 3 -2 4 
7709 6 0.141376 0.927742 0.0981451 -5 0 -1 
8601 6 0.747142 0.934956 0.0716066 1 -5 0 
5883 5 0.0565731 0.987345 0.129203 -1 -3 3 
8171 5 0.31122 0.996265 0.0683841 0 -4 -1 
6630 6 0.873574 0.98123 0.0906846 3 -2 -4 
8257 5 0.453267 0.0311275 0.138339 3 7 -5 
5058 5 0.601457 0.020003 0.143829 0 0 5 
8927 5 0.116697 0.00646144 0.143622 -5 2 2 
8197 5 0.762591 0.0562768 0.0908955 -1 6 2 
7624 5 0.490173 0.0276026 0.127681 0 -5 -1 
8699 6 0.713388 0.0831978 0.128626 -1 2 1 
8044 6 0.71814 0.0808729 0.0965409 -3 0 -1 
7299 6 0.133046 0.070968 0.111834 -1 8 -3 
7243 5 0.759611 0.0945368 0.112448 1 -1 5 
6058 5 0.962441 0.0914859 0.121382 0 -3 -2 
8119 6 0.125522 0.126571 0.123519 0 -4 4 
8944 6 0.957897 0.150823 0.130314 1 -2 4 
6680 5 0.449731 0.186336 0.141831 -2 3 0 
7752 5 0.185144 0.212675 0.128605 1 2 5 
6212 5 0.436979 0.215571 0.125961 -5 0 7 
6868 5 0.136968 0.186907 0.12512 2 -5 1 
5647 6 0.390579 0.236939 0.102593 2 0 1 
8960 6 0.401727 0.225129 0.102492 0 4 3 
8107 6 0.488421 0.238737 0.142816 -1 3 -3 
7134 5 0.96769 0.240866 0.0845399 1 -1 -1 
8202 6 0.300818 0.241015 0.129221 -2 -1 -5 
5181 5 0.310285 0.213911 0.100383 3 2 4 
5127 5 0.304842 0.237963 0.117958 -3 -5 -3 
6057 6 0.430594 0.249869 0.138085 3 2 1 
7742 6 0.574486 0.229055 0.112923 2 3 1 
8901 6 0.910932 0.322028 0.113722 0 1 1 
7757 6 0.109914 0.332977 0.0952429 1 -2 -4 
5789 5 0.543837 0.29078 0.123409 1 4 -8 
7468 5 0.139083 0.335633 0.102441 -4 3 1 
7615 5 0.580885 0.353136 0.121654 -1 4 2 
5091 6 0.36882 0.400557 0.119631 1 -5 2 
7000 5 0.0116367 0.340363 0.127173 0 -1 1 
8872 5 0.249366 0.391022 0.135902 3 2 0 
7444 5 0.908296 0.4311 0.129273 0 2 6 
7269 5 0.0851267 0.452303 0.10697 3 3 3 
8431 5 0.515523 0.439642 0.0967186 2 -2 2 
8722 5 0.244133 0.448886 0.12641 2 1 -3 
8447 5 0.37426 0.457972 0.146303 1 1 -4 
8390 6 0.776908 0.462229 0.143024 -1 1 3 
6810 5 0.845518 0.459262 0.126204 -2 1 3 
6744 6 0.251962 0.493145 0.161833 -3 0 -4 
7703 5 0.193735 0.514986 0.0996998 2 3 0 
8963 6 0.592325 0.541167 0.0912739 0 5 3 
6014 5 0.599895 0.495321 0.11679 -1 -1 0 
5468 6 0.82527 0.509292 0.0754898 -1 -3 -1 
5480 5 0.106679 0.522683 0.0727015 0 6 2 
8495 5 0.180576 0.512659 0.146242 0 -1 5 
5356 6 0.232736 0.539809 0.123357 -5 6 2 
6682 5 0.852686 0.52139 0.110624 1 4 2 
6024 6 0.522306 0.574112 0.139875 -1 0 1 
6611 6 0.622307 0.57346 0.120629 2 7 -2 
8775 6 0.772303 0.576356 0.136205 2 0 -1 
6482 5 0.091051 0.621705 0.122145 -3 -2 2 
5704 6 0.355119 0.570867 0.0769476 -3 7 6 
7934 5 0.789044 0.569379 0.117132 -2 -4 -3 
7403 6 0.0393148 0.613387 0.124887 3 2 -3 
8845 5 0.330353 0.649373 0.163465 -7 -1 1 
6019 5 0.326701 0.645339 0.105022 2 0 2 
8170 5 0.573208 0.652962 0.0862768 -1 -3 0 
8700 6 0.912814 0.654186 0.152108 -3 1 -1 
8072 5 0.126423 0.649493 0.140121 2 -3 0 
6613 6 0.520854 0.666264 0.124541 4 2 2 
8071 5 0.296727 0.684022 0.114604 2 0 3 
6413 5 0.656997 0.686368 0.133399 -3 4 2 
8952 6 0.703121 0.702096 0.140991 3 -1 4 
7645 5 0.962274 0.705324 0.109867 -1 -1 4 
5699 5 0.0696785 0.684691 0.106711 0 -1 -2 
5834 6 0.570955 0.703224 0.142721 -2 -1 -1 
7111 6 0.497855 0.795709 0.156052 3 -4 4 
7525 6 0.637247 0.766968 0.150872 -3 1 1 
8890 6 0.752044 0.814013 0.121029 2 0 -1 
5064 5 0.600412 0.809037 0.125805 2 -1 1 
7613 6 0.222131 0.916408 0.0958137 2 0 0 
7276 6 0.484992 0.835254 0.131881 3 -5 -3 
7834 6 0.522737 0.884001 0.138266 2 0 -2 
8769 6 0.541372 0.902614 0.121544 -7 -2 -1 
5665 6 0.611119 0.969973 0.14909 3 0 5 
7846 5 0.741759 0.950892 0.107957 -1 -3 -2 
5166 5 0.161285 0.00693046 0.120403 -5 -6 -2 
8294 6 0.401088 0.936874 0.152586 -1 -3 -3 
7088 5 0.636726 0.944939 0.177245 5 -4 -1 
5814 5 0.788398 0.970168 0.148912 -1 3 0 
8867 6 0.876725 0.0250558 0.111067 -3 2 -3 
7248 5 0.118118 0.984782 0.117998 -2 3 -2 
7372 6 0.18458 0.98773 0.152145 5 0 1 
7866 5 0.274985 0.0171525 0.144389 2 -3 -1 
6972 5 0.381382 0.0461627 0.145233 -6 -2 -1 
6805 6 0.449899 0.969358 0.132055 1 0 1 
8248 6 0.957781 0.0615598 0.153395 0 -2 1 
8194 5 0.390717 0.063503 0.185062 4 1 4 
8863 5 0.784966 0.0568249 0.158695 -1 1 -2 
5322 6 0.995717 0.098758 0.134025 -1 2 -1 
6687 6 0.153468 0.112833 0.14215 -1 4 1 
7426 6 0.143127 0.116258 0.129683 3 6 4 
8350 5 0.578102 0.0397224 0.154328 -1 4 5 
5146 5 0.616545 0.12114 0.111241 -1 6 1 
5415 5 0.377098 0.132986 0.161127 0 3 5 
5177 5 0.228293 0.19179 0.170772 1 -4 1 
5992 5 0.37052 0.161228 0.144645 -2 2 2 
6965 6 0.0946948 0.228493 0.168812 -3 -1 2 
8474 6 0.34022 0.227133 0.128834 2 -3 -1 
8941 5 0.55233 0.18309 0.139029 -4 -2 0 
6902 6 0.755275 0.238692 0.162725 0 0 3 
7693 6 0.176595 0.246104 0.110311 2 -1 1 
6145 6 0.440707 0.257824 0.131168 0 1 4 
5244 6 0.722227 0.254963 0.141335 0 -6 -2 
7521 6 0.529599 0.286387 0.129715 4 1 -4 
5566 5 0.100215 0.294027 0.167361 0 4 0 
7510 5 0.763082 0.315601 0.140644 4 -2 2 
6835 6 0.511502 0.357692 0.125901 3 4 3 
7598 6 0.990048 0.317174 0.115665 2 3 2 
8369 5 0.308327 0.380905 0.120788 1 1 1 
7067 6 0.883017 0.337852 0.157794 -1 5 3 
8067 5 0.431249 0.40096 0.140173 -2 -1 -1 
5355 6 0.789711 0.335463 0.147134 2 0 0 
7105 5 0.344984 0.37324 0.141563 -4 2 1 
7495 6 0.136133 0.413169 0.185476 2 -1 -3 
6928 6 0.432075 0.402941 0.168269 1 5 -2 
5342 5 0.409198 0.439523 0.128821 -4 -1 -2 
8250 5 0.577677 0.467155 0.178692 3 0 -2 
6617 5 0.0998189 0.496093 0.181436 1 2 2 
6575 6 0.0839707 0.463041 0.156942 -4 3 4 
6298 6 0.472314 0.50071 0.173058 -5 -3 -1 
5057 6 0.023701 0.513115 0.148285 -5 -4 0 
8996 6 0.436491 0.52947 0.177161 5 -3 3 
5947 6 0.524723 0.542533 0.149122 0 -1 8 
8988 6 0.649621 0.537371 0.154996 1 0 1 
6938 6 0.210089 0.567741 0.110979 -3 -2 0 
6760 5 0.947361 0.544284 0.156832 -1 3 -1 
8819 5 0.710875 0.563099 0.1411 -9 0 0 
8124 6 0.851357 0.594389 0.143989 3 -5 -1 
6648 6 0.97066 0.557266 0.118068 -3 1 6 
6506 5 0.258616 0.614678 0.162103 -4 3 2 
7822 5 0.727524 0.597572 0.146717 -3 2 -1 
5892 6 0.365112 0.593501 0.122567 0 0 4 
8588 5 0.397201 0.628559 0.188334 6 -1 2 
8771 5 0.447511 0.578376 0.121149 -3 -4 -1 
8340 6 0.952441 0.656952 0.152449 0 -5 -3 
5006 6 0.87682 0.666774 0.136478 -3 -2 2 
6062 6 0.988874 0.718529 0.173075 5 1 3 
8980 5 0.268087 0.745133 0.143458 -2 -3 -3 
6149 5 0.557658 0.703939 0.15661 1 2 2 
6756 5 0.872762 0.733148 0.169451 4 0 -1 
6792 6 0.629374 0.760731 0.120509 -2 -4 -1 
5561 5 0.265767 0.76635 0.158807 1 -2 4 
5526 6 0.986173 0.784976 0.126637 -1 -1 2 
8190 5 0.665001 0.776466 0.14655 5 0 5 
5312 6 0.136503 0.830918 0.157383 0 1 -4 
6293 5 0.162115 0.826088 0.161222 2 3 -2 
8591 5 0.936174 0.803503 0.153824 1 -1 -2 
6837 6 0.198194 0.879755 0.164375 2 -1 1 
6685 5 0.513889 0.893719 0.168092 4 3 2 
5830 5 0.369838 0.959579 0.125493 2 2 0 
6681 5 0.433493 0.911775 0.132613 2 0 0 
8888 6 0.510334 0.949022 0.158569 2 -2 -1 
7775 5 0.380526 0.901293 0.179274 -1 3 6 
6387 5 0.511723 0.9402 0.168414 -3 0 0 
7325 5 0.0737792 0.954371 0.164097 1 2 -3 
7451 6 0.309824 0.968037 0.126225 -1 -4 1 
8681 6 0.259565 0.0468171 0.165345 -2 -1 -5 
7912 5 0.314111 0.0158135 0.192049 1 0 -6 
7249 5 0.509361 0.0373954 0.179111 -5 -4 -3 
7541 5 0.58879 0.0869961 0.157226 -1 8 6 
6165 6 0.64983 0.0820505 0.155457 -6 3 -3 
7376 6 0.936775 0.09131 0.15598 2 -5 -3 
7051 6 0.00130231 0.109944 0.219001 -2 2 1 
6052 6 0.901186 0.10673 0.163912 -2 -3 -3 
5261 5 0.25578 0.12113 0.174449 0 2 0 
5795 6 0.66652 0.128796 0.138545 2 0 0 
8277 5 0.933782 0.139428 0.175082 -2 -2 1 
5716 6 0.767494 0.170055 0.2092 1 1 3 
8964 5 0.499213 0.202511 0.173945 2 -2 2 
6808 5 0.0208756 0.246203 0.175644 -3 2 -3 
5445 5 0.185756 0.214638 0.184061 -3 2 -3 
7332 6 0.554284 0.201481 0.183322 -1 -2 4 
7315 6 0.0842619 0.219686 0.178353 -3 -5 -3 
7321 5 0.40537 0.241105 0.131652 -1 -2 5 
7997 5 0.558525 0.286129 0.188894 -5 -2 3 
7103 5 0.478339 0.278028 0.150696 4 1 2 
7489 5 0.55288 0.24212 0.197876 7 5 0 
5210 6 0.800792 0.278678 0.188714 3 8 -4 
8692 6 0.269818 0.295704 0.142313 3 0 1 
8993 6 0.539102 0.303154 0.160493 -1 0 3 
6585 6 0.554363 0.29936 0.178649 2 -1 -2 
6227 6 0.0777084 0.317261 0.177431 1 -1 -1 
5833 5 0.829571 0.304136 0.173382 1 1 -1 
6100 6 0.352588 0.357789 0.170769 -1 0 3 
5403 6 0.542041 0.347347 0.198041 5 5 3 
8803 6 0.122023 0.423446 0.14489 -4 3 5 
8185 5 0.990454 0.434431 0.168551 -1 1 2 
8224 6 0.611172 0.470156 0.160918 -2 1 -1 
8206 6 0.806499 0.461978 0.16469 -2 4 -3 
7023 5 0.249889 0.532215 0.175893 -1 -4 -3 
8672 5 0.654373 0.514663 0.212589 -3 -1 0 
8037 6 0.74895 0.499657 0.201582 3 -3 -6 
5469 5 0.0618415 0.534964 0.121871 4 -2 2 
8537 6 0.406249 0.533698 0.162275 6 6 -1 
5238 5 0.270909 0.544944 0.175459 6 7 -2 
6843 6 0.550532 0.54435 0.144353 -1 3 3 
8585 5 0.515741 0.611476 0.141686 -5 -2 0 
8175 6 0.978071 0.638562 0.158142 2 2 3 
8439 6 0.473954 0.601223 0.154643 2 0 3 
6777 6 0.382414 0.640826 0.198847 2 3 2 
6492 5 0.726088 0.662836 0.119146 -1 3 4 
8869 6 0.0850153 0.701837 0.171993 2 -1 3 
7200 6 0.196449 0.661405 0.167472 0 -1 1 
7161 6 0.30251 0.642016 0.18209 5 -1 2 
5891 5 0.363105 0.657217 0.170961 6 3 0 
6597 6 0.0721426 0.677806 0.173734 1 2 3 
8099 5 0.157085 0.719121 0.147968 3 -6 0 
6930 5 0.541987 0.738342 0.176663 0 1 -2 
8937 6 0.933671 0.708949 0.143777 -4 -3 0 
7439 6 0.599594 0.718927 0.186457 -3 -3 -4 
5762 5 0.570862 0.696118 0.181494 3 -3 0 
6709 5 0.672409 0.714635 0.191348 1 3 -2 
8286 5 0.411088 0.818037 0.177638 0 -2 0 
6164 6 0.954093 0.842339 0.160483 -1 1 3 
5157 6 0.0130459 0.775876 0.157903 0 -1 -6 
8705 5 0.156895 0.814894 0.1749 0 1 -2 
7538 6 0.451992 0.83357 0.148179 0 3 -1 
8828 6 0.678166 0.814671 0.179 -2 1 0 
7988 5 0.959702 0.849033 0.148905 -6 -2 -2 
7588 5 0.241306 0.80398 0.182142 -6 1 3 
6141 5 0.48134 0.818294 0.187196 -7 0 0 
6202 6 0.490514 0.859315 0.185645 4 2 2 
6115 6 0.156771 0.884214 0.201439 0 -5 3 
6377 5 0.898922 0.875964 0.167216 1 5 2 
6407 6 0.0398177 0.863244 0.134411 -4 0 -1 
8578 5 0.150332 0.868521 0.162845 -2 6 -3 
7298 6 0.449848 0.847892 0.150391 -5 -3 -5 
8525 6 0.423176 0.875511 0.189097 0 -1 -2 
5191 6 0.485239 0.874091 0.133918 0 0 -3 
6914 5 0.70309 0.844368 0.160014 4 -2 -5 
5002 5 0.957956 0.881028 0.170418 -2 0 0 
7349 5 0.275446 0.901606 0.132819 -5 -3 3 
6093 6 0.704845 0.930859 0.196101 -3 -3 3 
7843 5 0.865932 0.872382 0.165708 -1 -5 2 
7528 5 0.384884 0.932787 0.180172 -2 -3 -7 
7365 6 0.587819 0.907175 0.117653 0 -1 2 
5735 5 0.933958 0.915439 0.17916 4 1 0 
6736 6 0.279815 0.921735 0.173492 -3 0 -2 
5886 5 0.189384 0.986798 0.173742 -4 -5 0 
5486 6 0.701639 0.928587 0.185016 3 -4 2 
6895 6 0.407284 0.953752 0.199631 4 2 -5 
6521 6 0.389845 0.994839 0.17411 1 -5 0 
8453 6 0.921514 0.0161184 0.164541 1 3 2 
6886 6 0.260345 0.0301099 0.213979 0 0 2 
6937 6 0.562403 0.0944968 0.228586 3 1 3 
5661 6 0.724402 0.066866 0.188477 1 -2 -1 
8948 6 0.833876 0.0961142 0.170673 5 -4 -2 
7784 5 0.946728 0.0667696 0.185089 -1 -2 3 
6302 6 0.51891 0.119691 0.173115 1 3 1 
7994 6 0.58397 0.0743805 0.18934 1 0 -4 
8360 6 0.770547 0.137807 0.156793 1 0 4 
5014 6 0.159728 0.145464 0.178602 5 -3 -1 
5198 6 0.348944 0.122758 0.193755 -3 1 -1 
7357 5 0.0268039 0.124471 0.19899 4 -4 -1 
5618 5 0.530411 0.136766 0.225866 0 2 -4 
8230 6 0.804129 0.151741 0.189794 0 0 -7 
5519 5 0.432928 0.181979 0.188571 -1 4 -1 
5881 6 0.570352 0.162426 0.175722 -1 1 1 
5319 6 0.902571 0.213065 0.194758 1 -2 4 
6487 5 0.158371 0.233703 0.194384 -1 1 -2 
5379 6 0.459201 0.202708 0.202651 2 2 2 
5540 6 0.845452 0.214378 0.209849 0 1 -4 
6039 6 0.00829943 0.247491 0.205222 5 -4 -1 
6379 5 0.129689 0.249063 0.162245 2 -1 -3 
5033 6 0.113654 0.286078 0.199579 0 -3 -3 
7129 6 0.457497 0.273551 0.192067 -2 1 1 
6330 6 0.528487 0.249318 0.182113 2 -1 -1 
5286 6 0.988584 0.314765 0.197862 0 2 -1 
8504 6 0.261155 0.281006 0.214563 3 -1 -2 
5875 6 0.31544 0.258368 0.183039 -1 4 5 
6967 5 0.639807 0.288759 0.20255 -3 4 -2 