ITEM: TIMESTEP
20000000
ITEM: NUMBER OF ATOMS
9000
ITEM: BOX BOUNDS pp pp pp
-75 75
-75 75
-75 75
ITEM: ATOMS id type xs ys zs ix iy iz 
5865 6 0.0050917 0.991325 0.0160287 1 4 2 
6798 5 0.265417 0.994857 0.993057 -3 -1 -3 
8799 5 0.424756 0.0384951 0.961821 1 2 -3 
5951 6 0.508199 0.054071 0.00832075 3 0 0 
8332 6 0.0874831 0.066057 0.972946 0 0 0 
6548 5 0.200214 0.086118 0.00463059 2 2 1 
5960 5 0.225924 0.0334317 0.0269687 -3 4 -7 
5667 6 0.607292 0.0847653 0.0258792 1 -6 5 
8195 6 0.609848 0.13735 0.0343686 0 2 1 
5566 6 0.975894 0.137953 0.00887528 4 2 1 
7054 5 0.282775 0.115122 0.00176964 0 -3 2 
7957 5 0.143725 0.181629 0.00114339 -1 -1 -1 
7041 6 0.321643 0.192659 0.0336997 3 -3 5 
6770 6 0.663503 0.225418 0.046208 3 0 0 
7735 5 0.183367 0.254913 0.0452357 1 3 4 
7503 5 0.349145 0.198111 0.0374056 0 3 3 
8184 6 0.833581 0.217271 0.0258319 -2 1 0 
8039 5 0.60691 0.233959 0.0177894 3 5 -3 
6951 5 0.0144207 0.234113 0.0336219 4 1 -2 
8701 6 0.718066 0.275889 0.00346647 -1 -1 -2 
8576 5 0.526833 0.299485 0.00834304 -2 1 0 
5277 6 0.959681 0.275722 0.0159535 -4 -3 2 
5786 5 0.989627 0.351023 0.995107 -1 -4 -1 
6863 5 0.175137 0.370266 0.0503888 -1 0 3 
5579 5 0.387159 0.373095 0.0113793 -3 -1 1 
7375 5 0.74844 0.39309 0.976029 0 4 -1 
7195 5 0.432679 0.385269 0.0299158 -1 1 -2 
5122 6 0.187136 0.417521 0.0171472 1 -3 3 
6748 5 0.281331 0.473006 0.0177281 -5 0 3 
8320 6 0.50682 0.46749 0.00909602 -1 1 -3 
6303 6 0.907708 0.486032 1.0016 -7 -2 -1 
5177 6 0.392864 0.534959 0.0375941 3 -1 0 
6410 5 0.641442 0.532983 0.0108994 0 3 5 
6393 6 0.126232 0.577951 0.0581961 7 0 0 
6682 6 0.0310516 0.613644 0.98474 1 -2 -3 
5266 5 0.476804 0.603108 0.998026 1 -2 -1 
7727 5 0.977844 0.588285 0.00839723 -1 2 3 
7159 6 0.979942 0.574658 0.972127 0 0 4 
7704 6 0.176198 0.630144 0.98886 -3 0 -2 
6794 5 0.658504 0.604056 0.0329667 6 0 3 
6157 5 0.176831 0.638725 0.997597 3 -3 -1 
8855 6 0.48645 0.66022 0.0605068 0 5 4 
5269 5 0.524123 0.692357 0.0479013 2 -2 7 
7331 5 0.933857 0.672373 0.0272182 -1 -4 -4 
6335 6 0.684034 0.686025 0.989398 -4 0 1 
7693 6 0.682407 0.654567 0.989276 2 2 1 
6465 5 0.0638556 0.671867 0.98933 -1 5 1 
7402 5 0.283575 0.683104 0.00449631 -2 1 -1 
7334 6 0.349683 0.686995 0.999883 -4 -1 -4 
6164 5 0.810551 0.730666 0.023518 0 6 -2 
7490 5 0.0373601 0.805562 0.0493909 1 0 0 
7779 5 0.123172 0.780299 0.0273567 4 7 -3 
7097 6 0.228605 0.79313 0.00683811 1 7 1 
7802 6 0.732403 0.844951 0.0315939 -3 4 1 
8833 5 0.22801 0.856591 0.99825 -1 1 -3 
6740 6 0.699829 0.871942 0.0104454 0 3 1 
7897 5 0.748566 0.887743 0.0195405 -6 -2 2 
7870 5 0.180003 0.923809 0.00837913 2 0 -1 
6286 6 0.578214 0.918797 0.00811585 -4 2 -3 
8312 5 0.237475 0.952732 0.986631 4 -2 -5 
7378 5 0.992522 0.934056 0.0265685 2 0 4 
6017 6 0.239197 0.972296 0.0388292 -2 -4 -2 
6355 6 0.32006 0.991307 0.0192165 1 -2 4 
6248 6 0.472113 0.993366 0.0395598 -1 -1 2 
7408 6 0.521179 0.934879 0.00931334 0 1 3 
7995 6 0.98084 0.968653 0.988173 2 -2 2 
8235 5 0.957133 0.999432 0.982559 1 1 -1 
6584 5 0.0936431 0.941044 0.0144868 1 -2 -1 
7778 6 0.188983 0.957777 0.982643 2 -1 1 
5312 5 0.742603 0.98645 0.996373 1 2 -6 
5818 6 0.557886 0.0260521 0.0177166 1 2 2 
5145 6 0.762901 0.0222653 0.0248536 3 -1 0 
6210 6 0.987882 0.0465642 0.0823696 0 -5 -5 
8530 5 0.511278 0.045115 0.0441687 5 0 2 
7752 6 0.247155 0.133676 0.0420553 1 -2 0 
7898 6 0.168362 0.144819 0.0439138 3 6 1 
7176 6 0.204038 0.141656 0.0030085 -3 1 0 
8884 5 0.671989 0.199439 0.0231088 -3 4 2 
5497 5 0.974482 0.171853 0.0254716 1 0 -2 
8930 6 0.219223 0.180352 0.029488 3 2 -4 
8651 6 0.41258 0.203805 0.00956106 1 1 -1 
8285 6 0.652176 0.229331 0.0204305 -4 -1 1 
6764 6 0.205291 0.256969 0.0304721 4 4 6 
6005 5 0.456385 0.292061 0.0291157 3 0 1 
7900 5 0.102254 0.31213 0.0170278 -3 0 2 
6991 6 0.145807 0.357908 0.0344307 2 0 3 
8903 5 0.765062 0.384404 0.0463228 -4 0 2 
6862 6 0.611992 0.384072 0.00571069 4 3 -5 
8337 5 0.188461 0.427341 0.0665102 -2 -4 -1 
7069 5 0.798294 0.406464 0.00702413 -6 -1 -1 
8216 6 0.316268 0.458926 0.0633345 -3 -2 1 
6283 5 0.697313 0.443322 0.0219917 0 5 3 
5431 5 0.0342059 0.440086 0.982695 2 1 3 
7206 6 0.344585 0.460289 0.0364095 -6 0 -6 
7680 6 0.830393 0.476445 0.0284793 2 -1 4 
7138 6 0.230064 0.512014 0.0538682 -1 -3 -2 
6898 5 0.212245 0.524617 0.0315399 1 -1 -3 
7307 6 0.0148967 0.577854 0.0228114 -3 1 0 
8703 6 0.853169 0.578293 0.0620246 -2 2 1 
5188 5 0.987201 0.594078 0.0391215 -4 0 -1 
6445 5 0.35068 0.648235 0.0257843 1 2 6 
5851 6 0.610331 0.605271 0.0156076 1 -3 4 
6140 6 0.666599 0.572507 0.0608955 -3 0 0 
6506 6 0.259804 0.625933 0.00659678 2 -3 -2 
5466 6 0.0846032 0.649506 0.0912452 3 1 2 
7287 5 0.334521 0.662024 0.0294495 -7 -1 3 
8301 6 0.555572 0.626805 0.0270769 -1 4 3 
5061 5 0.244191 0.642994 0.976984 -6 1 -5 
8263 5 0.433728 0.677695 0.0126604 -3 -4 3 
6524 6 0.984428 0.644513 0.0357679 0 2 2 
7913 5 -0.00153575 0.671853 0.0470854 -1 3 -1 
7683 5 0.198602 0.683363 0.0266561 1 0 -2 
7675 5 0.688047 0.703593 1.81148e-05 -1 -7 0 
6508 5 0.925056 0.69221 0.0308931 3 0 -1 
8563 6 0.485618 0.829285 0.0432431 -2 5 2 
5350 6 0.570936 0.839068 0.0379588 0 -1 2 
8288 5 0.182379 0.827593 0.00783889 0 -5 1 
5480 5 0.197636 0.857808 0.045189 -5 0 5 
7310 6 0.625862 0.833185 0.0306209 1 6 2 
7231 5 0.862397 0.849581 0.030003 0 3 -2 
5169 6 0.252319 0.835812 0.0325459 -1 -3 2 
8200 6 0.52775 0.884295 0.0322495 0 -3 4 
7866 6 0.938239 0.837302 0.00489369 -5 -7 1 
5707 5 0.603466 0.894703 -0.00336132 0 -1 1 
8340 6 0.799838 0.886749 0.993155 3 -1 -1 
6609 5 0.105485 0.934088 0.996795 1 4 -5 
8525 5 0.610628 0.948355 0.0620748 -2 0 1 
7122 6 0.970561 0.953223 0.0762775 -3 -2 -1 
8314 6 0.831092 0.958516 0.0846302 0 4 1 
5967 5 0.439521 0.0158366 0.0348081 -5 -3 6 
6665 6 0.590187 0.0205171 0.0648782 -1 5 -6 
8700 6 0.196807 0.0298777 0.0370604 -1 7 -1 
6425 6 0.329416 0.0124288 0.0454842 0 -2 -1 
5874 6 0.88866 0.0216422 0.0363814 -2 0 -3 
7253 6 0.237463 0.0836105 0.0771103 -2 -1 1 
8626 6 0.11031 0.103944 0.0585521 -1 3 2 
7685 6 0.199973 0.103307 0.0588458 -3 2 5 
6332 5 0.506284 0.170448 0.0469034 3 -2 3 
5788 6 0.469528 0.183431 0.0662423 -1 -4 2 
6254 5 0.475274 0.165976 0.0558431 -1 2 1 
6363 6 0.0343915 0.221079 0.102979 -4 -7 2 
7002 5 0.185813 0.236298 0.0445375 -1 -1 -2 
8826 6 0.56785 0.25216 0.0513157 0 -2 0 
5478 5 0.801066 0.192835 0.0446786 2 2 2 
8867 5 0.379163 0.281895 0.0664558 -4 -3 3 
7911 5 0.696795 0.250818 0.0620677 -5 5 3 
5011 5 0.774508 0.241112 0.0366552 -2 7 -1 
7091 6 0.347955 0.275553 0.0414174 0 2 2 
5572 6 0.754164 0.281232 0.0686334 -5 2 0 
6132 5 0.236841 0.35025 0.0301615 -1 1 -6 
5474 6 0.418984 0.306086 0.0559429 2 -1 -1 
5693 5 0.0553227 0.381648 0.0631436 -1 -2 -6 
6443 6 0.712232 0.361725 0.0420487 2 3 2 
8131 5 0.110566 0.4504 0.0811707 0 2 0 
7499 6 0.201483 0.42087 0.0736431 2 3 4 
7260 5 0.26342 0.432268 0.0658188 3 4 0 
6602 5 0.73475 0.413437 0.0596346 2 -4 -4 
7858 6 0.631923 0.486102 0.0505157 1 -3 0 
5147 5 0.57547 0.514981 0.0481167 2 -1 0 
8260 6 0.980372 0.545207 0.0600244 -2 0 3 
5835 5 0.151958 0.546847 0.053733 -2 -1 -5 
7367 5 0.521886 0.574024 0.0852995 -1 2 -6 
5330 6 0.863748 0.565934 0.0736309 5 4 -2 
7443 5 0.879488 0.604394 0.084388 0 6 -2 
7792 6 0.721928 0.6135 0.0645309 -2 2 5 
7133 5 0.100295 0.647052 0.0567075 1 -1 0 
7065 5 0.38318 0.619439 0.0207006 0 0 2 
6588 6 0.23127 0.690775 0.0444887 1 -2 1 
5599 5 0.4261 0.722162 0.0894623 5 -2 2 
7912 5 0.763549 0.662382 0.0722178 3 -2 -2 
8079 6 0.827834 0.706039 0.0499478 -1 -5 -2 
8475 5 0.918125 0.723603 0.0427092 -8 4 -3 
6246 5 0.641763 0.755069 0.0320353 0 -3 -6 
5115 5 0.181541 0.785007 0.0860953 -3 3 5 
5443 5 0.355064 0.82519 0.127595 2 1 0 
8476 6 0.134185 0.818138 0.0348289 0 1 -3 
7165 6 0.324467 0.77942 0.0627169 2 1 -3 
7937 5 0.40701 0.813937 0.0431154 6 4 -1 
6637 5 0.801693 0.769754 0.0432148 0 0 0 
7126 6 0.653632 0.785522 0.0612417 0 0 -2 
7566 6 0.391301 0.835495 0.072692 -1 1 4 
5988 6 0.495715 0.840483 0.0574517 -1 0 3 
7639 6 0.563382 0.846928 0.0509949 -2 -3 -4 
6999 6 0.872843 0.872511 0.0362458 -2 -4 -5 
8544 6 0.951436 0.836896 0.0568197 -4 2 0 
6084 6 0.978666 0.857223 0.083495 -1 0 3 
5111 6 0.950743 0.860284 0.0223079 2 3 0 
7645 6 0.0141615 0.89865 0.0442258 -3 1 2 
7808 6 0.27449 0.868968 0.0599868 2 -4 -2 
8751 6 0.413172 0.934181 0.0605702 0 2 2 
6287 6 0.406614 0.882738 0.082757 1 -1 -5 
7380 6 0.760975 0.895356 0.0568543 3 3 -3 
6440 6 0.17487 0.955389 0.039801 4 -1 0 
7401 5 0.780049 0.918902 0.0447426 1 -5 2 
5917 6 0.95614 0.925422 0.0489555 0 -1 0 
6512 5 0.266922 0.930607 0.103387 -1 -4 0 
7520 6 0.736674 0.0108339 0.04411 4 -4 3 
7941 5 0.154502 0.0259909 0.0946868 2 -2 1 
5876 5 0.374832 0.00572546 0.0661412 4 6 1 
8590 5 0.845962 0.981057 0.0678435 -1 3 3 
7335 5 0.950006 0.0372212 0.0675911 0 1 -2 
6326 6 0.26896 0.0266916 0.07862 -3 0 5 
7241 6 0.778321 0.0345193 0.0817811 3 2 0 
7633 6 0.0807596 0.069256 0.111477 0 -1 -6 
5784 6 0.400557 0.0581896 0.0347936 0 3 0 
5899 6 0.473001 0.0447249 0.0850269 -2 2 -4 
7514 5 0.886105 0.115738 0.0646922 -2 5 -3 
6278 6 0.415158 0.0605192 0.102882 -1 -8 1 
6302 5 0.116621 0.114777 0.0976346 2 -1 -4 
5485 5 0.5686 0.0839074 0.0855962 -1 3 -2 
6094 6 0.899809 0.109204 0.0429145 -3 2 3 
5842 6 0.0417302 0.132373 0.073504 2 3 1 
7056 5 0.0748653 0.15436 0.0628125 1 -3 3 
7816 5 0.0899818 0.220945 0.048707 1 1 3 
6346 6 0.0965356 0.220427 0.0594462 3 2 -1 
7108 6 0.269696 0.19645 0.0983922 -5 7 3 
7896 5 0.829692 0.258664 0.0522732 3 3 -1 
6385 5 0.910696 0.191598 0.0830314 4 -4 1 
6268 6 0.237586 0.255682 0.0723492 -1 -1 -1 
5901 6 0.304472 0.270442 0.0984811 2 -1 1 
5403 5 0.789857 0.251141 0.0448178 1 -1 -3 
8521 5 0.0817288 0.320389 0.0722917 -2 3 1 
7594 6 0.632731 0.283753 0.0713117 -1 -4 -2 
7423 5 0.678761 0.318894 0.0809239 -2 -3 -1 
7588 5 0.0625163 0.353133 0.0525531 1 1 -4 
5705 6 0.121089 0.35993 0.068156 -2 -3 4 
7944 5 0.496278 0.345732 0.0794458 -1 -2 1 
7863 6 0.712391 0.347769 0.144592 2 1 0 
7517 6 0.0647626 0.373184 0.0720848 1 -3 0 
5816 6 0.492085 0.360508 0.0524469 2 4 -3 
8526 6 0.503742 0.389255 0.0771277 -6 7 0 
7448 5 0.320651 0.391167 0.0823319 3 -2 1 
5261 5 0.476828 0.389903 0.0735842 -4 -1 -1 
8232 6 0.128111 0.438787 0.0672698 2 4 0 
6469 6 0.488166 0.461924 0.0892547 3 3 -3 
8659 5 0.100832 0.464924 0.0527 2 -5 5 
6175 5 0.145491 0.46031 0.122317 -2 2 -1 
5360 6 0.396475 0.449547 0.0774798 3 -1 3 
5657 5 0.458714 0.439018 0.0723568 -3 0 -1 
7342 5 0.930149 0.463364 0.0853732 -3 -7 -2 
5367 5 0.877136 0.466925 0.108996 -1 7 1 
5606 6 0.55551 0.474668 0.0637439 5 1 -2 
7565 5 0.829407 0.529885 0.0497 -1 2 -6 
6656 6 0.952599 0.503699 0.0590774 -3 3 4 
8993 6 0.61177 0.560612 0.0543901 0 -1 -3 
5120 5 0.889588 0.533107 0.0644244 -1 -3 -4 
5247 6 0.0228794 0.56742 0.0790793 8 0 -5 
6184 5 0.730985 0.588181 0.0476255 2 3 0 
7006 6 0.258527 0.560423 0.127213 -5 -2 -7 
7323 6 0.819901 0.569002 0.102826 -2 -1 3 
8531 6 0.0555613 0.582541 0.0808081 0 -4 1 
6786 5 0.975065 0.585276 0.0781421 1 5 -6 
5662 5 0.448957 0.595546 0.107188 4 -1 3 
5253 5 0.946022 0.625057 0.0821304 -1 2 -1 
8203 5 0.949807 0.637047 0.0640102 -4 0 2 
5218 6 0.461694 0.657943 0.0888472 0 6 0 
6249 5 0.264866 0.669854 0.0967364 1 2 4 
5461 6 0.692099 0.680451 0.0785395 -2 0 2 
8446 5 0.857009 0.635722 0.0814181 -3 3 0 
5889 6 0.348893 0.657315 0.0820108 1 0 1 
6435 5 0.630358 0.740671 0.056702 1 -4 6 
6009 6 0.404432 0.745377 0.0546597 5 1 3 
8508 5 0.545631 0.75034 0.0925595 0 -1 0 
6916 6 0.599752 0.752608 0.0749481 -2 2 2 
8069 5 0.146937 0.740596 0.0447172 -2 5 -2 
6614 5 0.675563 0.752328 0.105349 4 -5 0 
5455 6 0.0285204 0.789266 0.091125 2 4 -5 
8839 6 0.533614 0.795631 0.0823495 4 3 1 
7567 5 0.673054 0.814993 0.0901017 5 1 0 
5789 5 0.0367863 0.806472 0.101614 -3 5 -3 
5510 6 0.172111 0.852247 0.10078 2 4 -2 
7437 5 0.769123 0.846346 0.111507 -1 -2 -1 
6149 6 0.937834 0.844593 0.0559783 -1 0 4 
8304 5 0.310268 0.884706 0.0862642 2 -1 -3 
5039 6 0.530889 0.891816 0.0772153 6 0 3 
8902 6 0.642841 0.862755 0.0732969 1 4 -2 
8769 5 0.839356 0.8889 0.0817521 0 6 -1 
7876 6 0.924973 0.928117 0.122974 1 3 3 
7519 5 0.186476 0.972924 0.0660199 -1 -5 -3 
6185 6 0.695167 0.925034 0.0836067 1 1 3 
5737 5 0.691714 0.925772 0.056858 1 -1 0 
6839 6 0.262774 0.896033 0.0773946 0 -1 1 
7556 5 0.310649 0.950013 0.0995573 -1 0 -4 
6215 5 0.579014 0.0101401 0.0982645 -2 -1 2 
7830 5 0.0512651 0.989151 0.106972 0 3 1 
8558 5 0.739119 0.99624 0.103953 1 -1 -3 
6480 5 0.763842 0.978349 0.0888479 -3 3 -2 
8326 6 0.233501 0.0339818 0.0688444 0 -1 -4 
7186 5 0.885252 0.0127484 0.115166 -2 -3 5 
7614 6 0.185008 0.0357831 0.110734 2 -4 3 
5434 6 0.772198 0.00627664 0.088585 7 6 -1 
5552 6 0.0928833 0.100737 0.110985 3 -2 -7 
8749 6 0.242028 0.0778952 0.121302 0 4 -1 
6252 5 0.78199 0.0609955 0.0918144 3 0 3 
5762 5 0.00623301 0.11459 0.12514 -3 0 1 
5441 6 0.884884 0.091379 0.0996258 -1 -3 2 
8961 6 0.369581 0.119007 0.111353 -2 1 1 
8557 6 0.541577 0.130484 0.109551 4 1 1 
8632 6 0.568946 0.151503 0.10754 -2 0 -4 
6464 6 0.221826 0.141 0.111966 -2 -1 -1 
7174 6 0.659253 0.218723 0.0849468 0 2 6 
7288 6 0.165752 0.222091 0.091652 5 -5 0 
5469 6 0.256061 0.240631 0.101603 2 4 3 
7891 6 0.00825242 0.255996 0.0839522 5 3 6 
5800 5 0.360704 0.271828 0.118861 -9 6 0 
8331 6 0.868143 0.302268 0.104392 -2 3 2 
7679 6 0.928154 0.276086 0.0840457 2 -3 4 
8567 5 0.3214 0.31526 0.127269 5 -4 0 
7047 5 0.951804 0.341091 0.155516 4 3 -1 
5567 6 0.502165 0.32377 0.104539 5 5 -2 
7236 5 0.246559 0.400476 0.120917 0 -2 2 
5204 5 0.547285 0.36827 0.107251 -3 -2 2 
5582 5 0.773224 0.378897 0.0891889 0 -2 1 
8251 5 0.976985 0.408528 0.130357 1 -1 2 
8354 5 0.799602 0.411418 0.0892054 -1 -5 2 
6028 6 0.0291202 0.402508 0.0785887 -4 5 -1 
7650 6 0.0948226 0.468051 0.0998698 1 2 -2 
6055 6 0.29559 0.509913 0.101606 3 0 1 
5066 6 0.658257 0.45562 0.0913927 -2 -3 -4 
6530 5 0.731629 0.496076 0.115552 -2 -2 5 
7723 5 0.200803 0.530472 0.0764217 6 4 0 
8932 5 0.34379 0.493901 0.0794617 0 1 -3 
5660 6 0.905041 0.489402 0.131916 1 2 1 
7569 6 0.00832499 0.562781 0.110815 1 -2 5 
8652 5 0.122103 0.544995 0.0907858 2 -3 2 
5698 6 0.224538 0.561817 0.109427 0 -1 -5 
6291 5 0.372928 0.567242 0.104756 -8 -9 -7 
5317 6 0.575553 0.589035 0.0984823 3 1 2 
6957 6 0.489871 0.64046 0.0922353 -2 1 6 
8324 6 0.617921 0.614141 0.103647 -1 -3 7 
7104 6 0.270161 0.632898 0.101584 -2 1 2 
8190 6 0.432092 0.647121 0.1115 -3 -3 0 
5270 6 0.578016 0.645102 0.144943 4 -1 -2 
6516 6 0.427995 0.639267 0.0858715 1 1 0 
5896 5 0.893777 0.645083 0.0869086 1 -2 0 
5858 6 0.984259 0.644464 0.11441 -3 -2 2 
6504 5 0.120321 0.686384 0.0935635 1 -2 1 
7089 6 0.670508 0.746591 0.16754 2 7 0 
6694 5 0.443891 0.746362 0.103081 0 0 3 
6634 5 0.69258 0.721815 0.0877757 2 3 6 
8431 5 0.680775 0.695124 0.122231 3 2 -5 
5140 5 0.750162 0.759786 0.083882 6 -2 2 
6086 6 0.749108 0.76705 0.105196 0 -6 -2 
6878 6 0.0689412 0.764084 0.108821 2 3 2 
8536 6 0.486025 0.746479 0.0973105 -1 5 -2 
6018 5 0.535413 0.766554 0.0986651 2 -2 -2 
5513 6 0.0379896 0.80317 0.111909 0 2 -1 
7468 6 0.0353267 0.824954 0.100742 0 -3 4 
7289 6 0.232632 0.816067 0.114387 -4 0 0 
7358 5 0.255457 0.81333 0.103814 4 5 1 
6724 6 0.460591 0.80036 0.096781 1 0 -2 
8417 5 0.925018 0.804542 0.0771832 0 1 0 
7582 5 0.0160496 0.836852 0.0695001 -6 -3 -3 
8765 6 0.61706 0.851111 0.135564 -2 3 -5 
5129 6 0.158995 0.865871 0.150877 0 3 1 
5280 5 0.28052 0.843716 0.121169 2 -2 -6 
5880 6 0.824884 0.794877 0.102368 -5 -4 -1 
7785 5 0.90979 0.879557 0.0895429 -3 -3 -5 
5682 6 0.150068 0.905701 0.120074 3 -1 2 
6412 5 0.727843 0.827568 0.115988 -5 0 0 
5811 5 0.688008 0.892255 0.0738641 0 1 -1 
8022 6 0.814531 0.876596 0.0905167 -4 2 -5 
5264 6 0.207326 0.959383 0.0697679 2 4 1 
8920 5 0.275517 0.914637 0.125608 -1 3 4 
6773 6 0.582622 0.909549 0.0955934 -2 -4 6 
5168 5 0.808798 0.941428 0.098848 -3 0 1 
5641 6 0.822117 0.922272 0.087998 3 -2 -4 
5162 6 0.960147 0.871015 0.104918 0 0 1 
8126 6 0.228657 0.988031 0.0702322 3 -6 2 
5954 6 0.763936 0.963464 0.0956348 1 2 1 
5551 5 0.247394 0.989059 0.14064 -4 1 3 
5725 5 0.759941 0.00294575 0.102892 4 -3 -6 
8689 5 0.345716 0.0397613 0.0891947 3 -4 1 
5401 6 0.729053 0.0426212 0.143317 -1 -1 -4 
5337 6 0.973085 0.98838 0.120191 6 -5 -4 
7523 6 0.0962722 0.0624528 0.137392 2 1 0 
6165 5 0.220161 0.101757 0.119666 2 -4 0 
7555 5 0.217948 0.0801476 0.120861 0 -5 3 
8252 6 0.64275 0.0658831 0.0741202 -2 1 3 
5744 6 0.708069 0.0838696 0.120571 -1 0 0 
7663 6 0.989244 0.0825593 0.13286 1 2 2 
8609 5 0.242244 0.140811 0.143063 1 -4 0 
6921 5 0.434394 0.176079 0.073477 2 0 2 
5535 6 0.512956 0.117608 0.12387 0 0 1 
6119 5 0.781328 0.142943 0.12258 -1 -3 2 
5559 5 0.461874 0.191172 0.127337 1 -1 1 
8161 6 0.582396 0.14793 0.152943 2 0 -4 
7327 5 0.211581 0.182989 0.129899 -2 1 7 
7600 6 0.842008 0.270551 0.112058 -1 -2 -2 
6942 6 0.904359 0.18707 0.125148 0 3 -5 
6376 6 0.0334323 0.23314 0.111874 2 4 2 
5232 5 0.0198722 0.274512 0.0501988 -1 3 3 
8619 6 0.270006 0.297558 0.136665 -3 1 0 
7394 6 0.355385 0.286591 0.141785 0 6 2 
6888 5 -0.000135734 0.294841 0.115453 -3 4 4 
7210 6 0.199897 0.301974 0.0799096 0 4 0 
5833 6 0.531434 0.275975 0.134691 0 0 -1 
7277 6 0.799183 0.296408 0.0984384 -1 5 1 
6956 5 0.374977 0.323116 0.10722 -2 2 -2 
5937 6 0.3351 0.296506 0.160121 1 -4 -3 
6628 5 0.900322 0.358196 0.129448 6 -3 -1 
8707 6 0.462653 0.392929 0.109778 1 -4 6 
7571 5 0.0600081 0.395031 0.140077 -4 -1 -2 
5645 5 0.405839 0.377978 0.143194 -1 1 -1 
5942 6 0.494476 0.398415 0.100843 1 0 -2 
6776 5 0.462156 0.433429 0.119376 1 -3 -2 
5148 5 0.00521735 0.41151 0.141329 -2 2 6 
8230 5 0.129102 0.442399 0.133187 -1 0 3 
8496 5 0.349551 0.472175 0.196028 -1 2 4 
8106 6 0.900685 0.445518 0.0901906 5 -3 2 
6257 6 0.305438 0.469967 0.10265 -1 -6 1 
8958 5 0.162784 0.570517 0.115327 -1 -5 -2 
8165 6 0.915748 0.513118 0.131491 -3 -1 7 
8241 5 0.0682427 0.541334 0.138314 4 -1 -2 
6674 6 0.718614 0.554947 0.142462 2 4 2 
8030 6 0.764977 0.57271 0.0941699 -3 1 5 
7532 6 0.139688 0.59553 0.122164 3 1 1 
5895 6 0.217922 0.604689 0.124856 0 -1 1 
5227 5 0.72631 0.593867 0.128144 1 -1 -3 
5575 6 0.923026 0.629759 0.110886 5 -4 1 
5105 6 0.947466 0.638701 0.0879567 1 0 7 
6984 5 0.524876 0.648075 0.112757 -3 3 2 
5987 5 0.0402957 0.634136 0.140505 2 -1 0 
8568 6 0.0891756 0.679791 0.0924279 0 -2 1 
5635 6 0.42154 0.69349 0.0829238 -5 2 4 
6964 6 0.770405 0.702153 0.094369 -2 -2 -2 
5057 6 0.252423 0.759318 0.105914 -3 5 -1 
5293 6 0.82574 0.77595 0.128376 -5 4 -2 
6805 5 0.673783 0.734101 0.0882466 -4 2 4 
8975 6 0.833847 0.782516 0.122842 -2 -2 1 
6045 5 0.192655 0.767458 0.127248 1 3 -1 
8709 6 0.680596 0.813779 0.143106 6 0 4 
8500 6 0.7085 0.793283 0.116603 0 2 3 
6944 5 0.0751517 0.817522 0.0916513 -4 2 1 
5193 6 0.720032 0.796266 0.089638 -7 5 3 
8104 5 0.576027 0.830454 0.143333 3 -2 6 
7649 5 0.0567596 0.837401 0.11196 0 0 0 
8716 6 0.107867 0.854954 0.107669 -2 -3 1 
6235 5 0.490124 0.897411 0.114941 -5 -4 -1 
6485 6 0.430607 0.928661 0.104714 5 -1 -4 
8179 5 0.573231 0.860097 0.160979 6 2 4 
8041 5 0.628239 0.902829 0.162287 1 5 0 
5158 6 0.972301 0.901928 0.0980263 5 7 1 
6994 6 0.0193448 0.930851 0.119428 5 -4 -2 
6105 5 0.260011 0.867247 0.0729953 -1 1 1 
8346 6 0.533154 0.920283 0.10221 -1 0 -3 
7929 6 0.273685 0.0100837 0.123754 0 0 3 
8918 5 0.140081 0.0279348 0.121204 2 -1 0 
5699 6 0.413901 0.00764302 0.119328 -1 0 0 
8974 6 0.0719789 0.0361077 0.152796 -4 0 -2 
8225 6 0.497793 0.983535 0.197159 3 -1 4 
8175 6 0.729696 0.0159886 0.161008 1 1 5 
8145 6 0.150586 0.0516199 0.143417 -1 1 -1 
5986 6 0.861395 0.065334 0.176773 1 1 -2 
5560 6 0.967973 0.0379832 0.151153 4 3 4 
8217 6 0.983493 0.0723497 0.147128 1 1 -1 
7004 6 0.126872 0.0692514 0.166566 5 -3 3 
8664 6 0.338616 0.04586 0.115078 0 -5 0 
6533 5 0.327981 0.0430457 0.141977 2 3 6 
7258 6 0.509684 0.0522022 0.159827 -3 1 -1 
8422 6 0.438475 0.101666 0.146782 -1 -1 -3 
6568 6 0.623804 0.0894844 0.132873 2 6 7 
6405 5 0.88616 0.0666537 0.157022 1 0 3 
5182 6 0.00758403 0.0720759 0.168936 -2 1 -3 
5748 6 0.271497 0.0898605 0.136107 -3 -4 -3 
7814 5 0.501791 0.0791039 0.13518 0 2 2 
8597 6 0.346947 0.148337 0.125465 -2 -4 -3 
5109 6 0.448576 0.121463 0.175483 4 0 4 
7297 5 0.165983 0.139453 0.100711 -4 -3 -4 
5618 6 0.515917 0.15341 0.162524 -1 3 -2 
7489 6 0.758966 0.171119 0.148466 3 -1 0 
5053 5 0.688456 0.146879 0.154144 3 1 5 
6293 6 0.78004 0.187166 0.139834 0 5 4 
6545 6 0.117752 0.182604 0.142061 0 0 -1 
6953 5 0.156273 0.191576 0.140687 -4 1 -2 
6489 5 0.193024 0.222133 0.151678 0 1 -6 
8248 6 0.575728 0.159394 0.13409 3 4 6 
7856 5 0.900296 0.195674 0.178889 -5 -1 -4 
6467 5 0.0940909 0.211455 0.129335 -3 -4 0 
7887 6 0.738636 0.306986 0.137296 4 -1 1 
8874 5 0.746724 0.24506 0.152226 1 -2 3 
7635 5 0.415552 0.289786 0.173782 -1 4 2 
6318 6 0.994687 0.284734 0.126098 -1 7 -8 
8375 5 0.662139 0.318627 0.151432 1 -4 0 
7083 6 0.710141 0.271722 0.123876 0 3 2 
6490 6 0.894745 0.300185 0.147712 -1 -2 -1 
7508 5 0.212158 0.276038 0.142193 -1 0 3 
8058 5 0.617371 0.313687 0.130403 -7 -5 0 
7306 6 0.359091 0.361453 0.138556 -5 5 0 
5064 5 0.389466 0.400226 0.147798 3 4 -1 
5397 5 0.479868 0.394491 0.142328 2 5 3 
8584 5 0.618709 0.412063 0.164093 0 -1 -4 
8660 6 0.695051 0.45411 0.0920154 -2 3 -2 
8188 5 0.33584 0.502919 0.172818 -1 2 0 
8752 6 0.986878 0.530353 0.122885 2 3 -1 
5021 6 0.149676 0.495244 0.135848 4 -1 -3 
6691 5 0.948921 0.526335 0.178348 3 1 4 
5869 5 0.1033 0.556872 0.187536 2 4 -3 
7827 5 0.545065 0.55478 0.153234 2 -6 1 
7661 5 0.458154 0.602752 0.130888 7 0 2 
7880 5 0.510675 0.571122 0.133001 -3 1 0 
7275 5 0.626382 0.610171 0.125592 -1 0 4 
8989 5 0.8477 0.583528 0.136262 -2 -1 -3 
6767 6 0.185077 0.57734 0.117468 1 0 2 
6191 5 0.162579 0.604731 0.139812 -3 1 1 
6603 6 0.189393 0.62364 0.142116 -2 4 2 
5151 6 0.889009 0.620233 0.172978 -5 4 1 
7889 6 0.218605 0.633198 0.128629 3 2 0 
8836 6 0.388181 0.652763 0.169551 -2 -3 -5 
8096 5 0.570591 0.703984 0.153259 0 -1 -1 
7447 5 0.376808 0.673426 0.152601 1 5 0 
6868 6 0.624189 0.656668 0.157047 0 -6 2 
7549 5 0.374679 0.697015 0.140172 -1 4 -3 
5163 5 0.809818 0.680311 0.117905 -4 -1 -2 
7707 5 0.821342 0.707431 0.134602 2 3 2 
6816 6 0.0698763 0.715902 0.173192 -1 0 1 
6787 6 0.598965 0.721375 0.135738 4 -3 0 
8143 6 0.63649 0.716468 0.149619 4 0 -2 
6297 6 0.302827 0.710581 0.179188 5 -5 4 
8196 6 0.0919273 0.760819 0.171856 0 -1 -1 
8471 6 0.914851 0.722284 0.131404 2 6 2 
9000 6 0.275685 0.811034 0.159078 -3 0 -1 
7431 6 0.227068 0.787291 0.149012 -1 -2 -3 
5123 6 0.163882 0.853436 0.149175 2 3 -2 
5373 6 0.305397 0.772813 0.107585 -4 1 5 
5726 6 0.481833 0.874322 0.149059 -2 2 1 
8246 5 0.859727 0.825753 0.133293 2 2 1 
6857 5 0.895513 0.87805 0.13619 0 0 5 
6990 6 0.967502 0.866251 0.159733 2 2 -1 
5249 5 0.160139 0.89233 0.116816 7 4 0 
5922 6 0.769816 0.916789 0.117816 2 -2 5 
7469 5 0.0745957 0.917422 0.138896 5 -7 2 
7578 6 0.436453 0.947194 0.140539 2 0 0 
6563 6 0.821154 0.906342 0.178366 -3 -3 1 
6447 5 0.283412 0.938937 0.121253 5 -2 1 
8871 6 0.496785 0.954266 0.177229 -1 -3 4 
8548 5 0.737304 0.962061 0.137947 1 0 2 
8317 5 0.126778 0.981197 0.185654 3 0 -5 
6531 6 0.519646 0.976818 0.196131 -1 0 2 
5149 6 0.753538 0.00441867 0.195594 2 -1 0 
6982 5 0.842648 0.0179376 0.180333 -1 -1 -1 
5476 6 0.870803 0.062172 0.157556 4 -3 3 
7450 5 0.106575 0.0685145 0.19356 -1 0 1 
5709 5 0.337647 0.130998 0.182025 -2 0 -4 
5436 6 0.845295 0.0601813 0.120342 -3 3 -2 
7515 5 0.894292 0.0672497 0.164055 2 5 -3 
5958 6 0.987309 0.107973 0.177283 -1 3 0 
8762 6 0.247551 0.159598 0.177755 1 2 3 
6463 6 0.606119 0.14278 0.13389 2 2 1 
7295 5 0.254732 0.161801 0.164129 -1 0 -3 
6041 6 0.359387 0.179565 0.156525 3 3 8 
6802 6 0.00982386 0.195837 0.131955 -1 3 2 
6543 6 0.971572 0.176622 0.155365 -2 1 2 
8300 6 0.324387 0.183445 0.198 4 -1 2 
5224 5 0.672567 0.194041 0.200972 -3 2 0 
6450 5 0.973865 0.193916 0.169169 3 1 -1 
5989 6 0.736252 0.234047 0.134466 3 1 -4 
8639 5 0.172411 0.241669 0.126721 2 4 -2 
7221 5 0.353509 0.250305 0.159541 1 4 0 
7801 5 0.921495 0.226481 0.118672 -2 -2 -2 
6540 6 0.560265 0.31244 0.140872 -1 2 0 
7324 5 0.882406 0.319374 0.17295 -4 0 -2 
7058 5 0.202787 0.361665 0.175773 4 -3 -5 
5953 6 0.118384 0.426445 0.202083 0 -1 0 
5595 6 0.377192 0.385679 0.171419 -3 -1 3 
5268 5 0.366634 0.426789 0.175293 4 0 1 
6256 6 0.036611 0.464905 0.142392 -2 2 -2 
5999 6 0.121403 0.460303 0.186684 -1 2 -1 
6243 5 0.465625 0.480943 0.168824 2 -1 5 
5019 5 0.878333 0.492148 0.192001 2 -2 -4 
7862 6 0.90884 0.461935 0.159025 -1 -3 -1 
6572 6 0.740137 0.477249 0.149537 2 3 1 
5060 6 0.901296 0.496369 0.182171 -2 -2 -2 
6945 6 0.943296 0.478024 0.16807 -6 2 2 
6843 5 0.639422 0.50372 0.145823 -1 0 1 
7917 6 0.84875 0.508138 0.175967 -3 -1 -2 
8894 6 0.730307 0.543123 0.172283 -3 -2 -1 
7084 5 0.240592 0.5434 0.19404 0 -1 2 
5530 5 0.0268856 0.560756 0.228454 -1 -4 4 
7865 6 0.953342 0.610864 0.18103 -2 -3 1 
7590 6 0.524225 0.621031 0.141419 -1 -2 0 
7001 5 0.785624 0.65499 0.164141 0 -3 -3 
6745 5 0.907516 0.616072 0.130742 3 -3 -2 
8432 5 0.0276156 0.602384 0.1885 0 2 4 
5898 6 0.0642354 0.642772 0.161994 1 2 0 
6914 6 0.0953561 0.62233 0.146636 3 2 -2 
8890 5 0.489487 0.643221 0.175512 -5 2 -1 
6939 5 0.521412 0.631551 0.175601 -7 -3 -1 
6253 6 0.727909 0.677003 0.209138 0 3 -3 
8680 6 0.986171 0.625355 0.176782 1 5 3 
6920 6 0.421569 0.666911 0.187287 2 5 -2 
5454 6 0.75949 0.630929 0.169901 -1 -3 7 
8012 6 0.953296 0.639008 0.174737 -4 -5 -2 
7219 6 0.995516 0.656167 0.169099 3 -1 4 
6133 6 0.8909 0.704339 0.190883 2 -2 1 
5630 5 0.0444274 0.658144 0.169615 4 -1 -1 
6597 5 0.685133 0.726695 0.150057 1 -4 3 
6109 5 0.409495 0.709038 0.18398 6 0 1 
6247 5 0.501293 0.715144 0.221091 -4 -2 -2 
5352 6 0.9457 0.7393 0.198656 1 0 -3 
7552 5 0.21183 0.763439 0.179951 3 3 4 
5508 5 0.396747 0.782237 0.148937 -2 -3 -2 
7420 6 0.403507 0.785411 0.183399 -1 3 4 
5957 5 0.482965 0.737 0.166688 1 -3 3 
8756 6 0.0875656 0.802823 0.189316 -5 2 -4 
5381 6 0.791601 0.770009 0.188495 -4 4 -4 
8586 5 0.891519 0.832869 0.158462 -1 -4 -3 
7130 5 0.787501 0.82906 0.166661 6 -1 -4 
5082 6 0.142361 0.886328 0.161041 1 0 -2 
5087 6 0.358695 0.82753 0.176977 -6 1 2 
6893 6 0.891557 0.839845 0.182173 1 0 1 
7415 5 0.684412 0.911295 0.175952 -2 2 -3 
8193 6 0.100455 0.894174 0.142184 2 -9 5 
7145 6 0.847431 0.878947 0.151617 -4 -1 -2 
7178 5 0.538232 0.953391 0.185411 3 0 -1 
6669 6 0.156776 0.954331 0.137679 0 8 -2 
8094 6 0.765454 0.966068 0.181654 0 -2 0 
6711 6 0.896132 0.921579 0.123359 2 0 3 
6112 6 0.907441 0.936855 0.177824 -1 4 1 
8738 6 0.351789 0.981091 0.176707 4 0 2 
7509 6 0.716235 0.985763 0.154392 -2 6 2 
8886 5 0.623241 0.998833 0.198296 0 0 0 
8984 5 0.347281 0.0609308 0.17365 3 0 4 
8430 5 0.6533 0.0251992 0.17956 0 1 -2 
8073 6 0.917219 0.0195176 0.224702 -1 1 3 
6778 5 0.153679 0.0669864 0.169563 0 0 0 
6194 5 0.335942 0.0765111 0.207794 2 -1 -4 
7881 6 0.931826 0.0690688 0.167582 2 3 -3 
7806 5 0.349639 0.0701762 0.195812 -2 3 -3 
7765 6 0.0781847 0.14718 0.232794 -1 5 3 
7212 6 0.877144 0.118474 0.145143 -3 2 -5 
7993 6 0.944 0.124474 0.207554 -1 -2 1 
7799 5 0.440936 0.105479 0.183807 2 1 -2 
6606 6 0.504906 0.160402 0.20701 1 2 -1 
6158 6 0.613592 0.12344 0.214536 2 -1 1 
6061 6 0.932982 0.202606 0.207229 2 0 8 
6273 6 0.343525 0.212293 0.206684 -5 -1 0 
7768 5 0.772452 0.225629 0.17428 -2 -5 0 
5640 6 0.914319 0.265303 0.213756 8 -1 -2 
7786 5 0.940152 0.232087 0.213716 2 0 -1 
5161 5 0.0478802 0.240388 0.149362 5 -1 -7 
6145 6 0.297604 0.258683 0.22695 4 -1 3 
7480 6 0.43065 0.259213 0.208388 -5 -3 5 
8236 5 0.111063 0.273868 0.228708 4 -3 -4 
8009 6 0.217096 0.288958 0.204453 1 0 2 
6012 5 0.162798 0.283882 0.147792 -3 3 0 
7374 6 0.930495 0.255195 0.219191 0 0 -4 
8549 6 0.742307 0.326522 0.217944 -2 -1 5 
6865 5 0.0116408 0.356631 0.171472 -2 -5 7 
7273 6 0.270918 0.371147 0.212984 -2 1 3 
6557 6 0.361081 0.355346 0.189777 -2 2 3 
8046 5 0.620484 0.361675 0.240295 3 -1 0 
7318 5 0.706713 0.410234 0.169249 5 2 6 
6734 5 0.453887 0.380287 0.204059 0 3 4 
6459 5 0.307091 0.455839 0.180641 0 -5 5 
8816 6 0.920684 0.387514 0.226332 4 -3 0 
5965 6 0.0282848 0.444707 0.150064 2 2 1 
5144 5 0.725114 0.488564 0.213018 4 2 -3 
8180 6 0.989595 0.478446 0.165274 -3 4 -5 
7632 6 0.87207 0.499379 0.179715 3 0 7 
6204 5 0.493338 0.506006 0.160115 -1 -1 -2 
5065 6 0.563111 0.525988 0.194834 -6 -2 -4 
8579 5 0.833754 0.547838 0.178155 -2 1 -1 
6272 5 0.852393 0.493262 0.160353 -1 -4 5 
8474 6 0.887427 0.534171 0.207147 0 2 2 
8861 5 0.137366 0.607913 0.181711 -3 2 -2 
8537 6 0.470065 0.601714 0.182561 3 -4 2 
6647 5 0.763353 0.618736 0.176868 1 4 -4 
7511 6 0.873591 0.570792 0.204755 3 -4 -3 
8197 5 0.223809 0.601387 0.181464 2 0 5 
6008 5 0.0804957 0.658296 0.20324 0 0 -1 
5422 6 0.677277 0.660831 0.194419 1 1 2 
5812 5 0.870289 0.638714 0.185021 2 1 0 
5824 6 0.536928 0.685766 0.196678 3 0 0 
8111 6 0.931737 0.656252 0.152376 -1 4 -2 
5649 6 0.726762 0.658577 0.21309 0 2 3 
6520 5 0.0900442 0.761053 0.205528 1 0 2 
6564 6 0.324445 0.725422 0.182698 2 -1 2 
8922 6 0.863683 0.727079 0.215334 1 2 -3 
8529 6 0.246192 0.772964 0.188237 6 -1 -1 
6170 6 0.692756 0.769239 0.213591 0 -7 1 
5804 5 0.0805235 0.858328 0.186191 -4 -5 -2 
7112 6 0.557239 0.799116 0.18352 -2 -2 6 
8849 5 0.776599 0.83873 0.206994 1 -1 6 
6645 5 0.212023 0.893944 0.175779 1 -2 5 
5685 6 0.0509044 0.922612 0.179854 0 -2 1 
6752 6 0.0484332 0.9043 0.153809 4 -2 -3 
6822 5 0.135739 0.905595 0.201321 -2 -3 -1 
5133 6 0.866419 0.963367 0.198853 3 4 0 
8382 5 0.115548 0.968475 0.148069 0 5 -1 
7234 6 0.124782 0.950718 0.190817 1 -4 2 
8385 5 0.155346 0.989928 0.184615 8 -1 -1 
8653 6 0.709529 0.975972 0.216052 -1 -5 -5 
8479 5 0.858777 0.988363 0.19696 1 -1 7 
8976 6 0.593544 0.0721162 0.177061 1 1 -5 
6151 6 0.148646 0.0421189 0.225644 -2 -8 0 
7811 5 0.257062 0.0590128 0.266069 -1 2 -3 
5069 5 0.815665 0.0574476 0.215139 -4 4 2 
7067 5 0.314379 0.082865 0.208312 3 3 -2 
8817 5 0.96717 0.109173 0.224997 -2 2 -1 
6864 6 0.627151 0.114754 0.190021 3 1 -1 