ITEM: TIMESTEP
20000000
ITEM: NUMBER OF ATOMS
9000
ITEM: BOX BOUNDS pp pp pp
-75 75
-75 75
-75 75
ITEM: ATOMS id type xs ys zs ix iy iz 
6783 6 0.0947008 0.0418506 0.00773769 0 -1 2 
8232 6 0.090599 0.0104012 0.967081 5 -4 -2 
8050 5 0.41591 0.983639 0.982591 0 -4 1 
7758 5 0.431772 0.0395049 0.996263 -2 2 -3 
5437 6 0.223467 0.0109743 0.0147262 3 2 1 
5965 5 0.000201684 0.0495845 0.00162308 -1 0 1 
7346 6 0.43796 0.0880424 0.0216467 -6 -2 5 
6212 6 0.779965 0.073671 -0.000560168 -1 2 -1 
7990 6 0.0300478 0.0785464 0.04636 2 4 1 
7054 6 0.497318 0.120276 0.98991 -2 0 -2 
8662 6 0.714344 0.131718 0.0460645 4 -1 -1 
5654 6 0.351866 0.156168 0.0491693 2 4 -2 
6812 5 0.532857 0.169697 0.955965 2 3 -2 
6263 6 0.599143 0.211095 0.996844 -1 -2 -1 
8796 6 0.869137 0.168014 0.00285407 -5 0 2 
7241 6 0.0237227 0.203017 0.0329033 -3 1 1 
7733 5 0.152681 0.207685 0.00580869 1 -6 5 
7161 6 0.187465 0.232124 0.0262279 4 -2 -1 
6755 6 0.575086 0.185771 1.00112 0 1 0 
7623 6 0.780967 0.209347 0.990172 -2 -2 3 
7744 5 0.0590714 0.264844 0.946905 -3 6 3 
5005 5 0.339545 0.241592 0.987709 3 1 -6 
8806 5 0.392402 0.224811 0.0163468 -1 9 1 
6289 6 0.868209 0.224449 0.045982 -2 1 -1 
8210 5 0.995159 0.26193 0.0523632 2 3 0 
8321 5 0.299364 0.253261 0.991465 7 2 -1 
7767 5 0.606966 0.247511 0.957781 2 0 1 
7288 6 0.718864 0.257734 0.0572594 2 3 1 
6572 6 0.104252 0.287489 0.0407893 1 -4 1 
6823 5 0.849107 0.315437 0.973137 -7 -3 -2 
5524 6 0.668364 0.361559 0.972346 2 1 1 
8607 6 0.849847 0.355751 0.0121018 3 1 -3 
6285 5 0.454357 0.379016 0.0161091 -2 2 -6 
5081 6 0.783184 0.405943 0.0427009 2 -6 1 
5210 5 0.533502 0.417094 -0.00127635 0 -2 -4 
6631 6 0.638304 0.427463 0.023053 0 -5 -2 
8299 6 0.828539 0.43385 0.976583 -2 0 -2 
8162 6 0.91784 0.487807 0.000171421 2 3 0 
6283 6 0.337414 0.48986 0.0183979 2 -3 -2 
7446 6 0.647973 0.50584 0.973145 4 2 6 
8894 5 0.671026 0.521452 0.996035 3 -1 2 
5432 5 0.168286 0.57708 0.0350028 3 -3 4 
5141 6 0.53387 0.518681 0.0313134 -1 3 2 
5847 6 0.712617 0.540846 0.000143855 1 3 -1 
5315 6 0.72835 0.514947 0.0228638 -4 4 1 
8223 5 0.797352 0.50096 0.00953297 -2 -1 3 
5190 5 0.415357 0.539227 0.00906962 -2 -1 -1 
8610 5 0.507849 0.596274 0.0348961 -5 -1 0 
5837 6 0.524211 0.5572 0.0109721 -2 4 1 
5098 6 0.714098 0.612121 0.978395 0 0 -3 
5353 5 0.430157 0.615685 0.0325901 -3 4 -3 
6848 5 0.645486 0.644421 0.0340604 -2 -3 -2 
5215 6 0.218912 0.651855 0.942474 -1 2 -9 
8977 6 0.341254 0.639619 0.0191667 -2 3 1 
7043 5 0.68985 0.635285 0.0286702 -2 0 2 
6775 5 0.74984 0.641877 0.0173752 3 1 4 
7095 5 0.778167 0.605425 0.066507 3 -3 1 
8684 5 0.203026 0.662898 0.986154 -1 0 -2 
6337 6 0.381351 0.673662 0.0262097 2 2 -3 
7748 5 0.723847 0.670801 0.0241173 4 1 3 
8282 5 0.708076 0.693793 0.0175892 3 -2 7 
6304 5 0.408734 0.773361 0.994031 -3 2 -3 
8433 5 0.858147 0.699082 0.0138899 0 3 -1 
5135 5 0.973703 0.76502 0.972692 -2 -4 -3 
8243 6 0.659354 0.800414 0.998119 2 2 -2 
5494 6 0.610459 0.812939 0.00632466 3 -5 1 
7671 5 0.793026 0.791809 0.950175 -2 0 0 
5644 5 0.915262 0.843769 0.0537536 1 -2 -3 
6214 5 0.807328 0.862137 0.0306192 3 -3 4 
8719 6 0.554111 0.898658 0.017265 -2 -1 1 
5088 6 0.612351 0.912331 0.996734 -1 -5 2 
8721 5 0.00379487 0.838599 0.977555 7 2 0 
6282 6 0.761299 0.928259 0.0470631 -1 5 0 
6016 6 0.264171 0.968717 0.00549658 4 -1 1 
8199 5 0.0203692 0.95759 0.990003 -2 -5 4 
7957 6 0.0864569 0.990937 0.00586478 0 3 -1 
5185 6 0.3073 0.045376 0.0445742 1 5 4 
6679 6 0.437591 0.0189245 0.0673718 3 -4 -1 
8135 6 0.186692 0.0839561 0.0392588 -1 1 0 
5221 5 0.413991 0.14465 0.0337574 -1 -1 -3 
6177 6 0.131875 0.125358 0.0902167 -1 -1 2 
6677 6 0.251426 0.152853 0.0272192 5 0 -3 
8238 5 0.421051 0.13217 0.0285182 1 3 4 
6438 6 0.984455 0.0963396 0.0393653 -4 -3 2 
6931 5 0.434689 0.11584 0.0123713 -2 4 0 
8807 6 0.429441 0.154462 0.0640371 2 -3 6 
7540 5 0.55082 0.152387 0.0147739 2 5 -2 
5041 6 0.583608 0.160447 0.052353 3 -2 0 
5457 6 0.398055 0.233377 0.0174827 -1 -6 3 
7459 6 0.375813 0.237849 1.00002 -3 2 -1 
5309 5 0.322571 0.269489 0.0118053 -3 1 6 
7335 5 0.88916 0.254427 0.0292567 1 3 -6 
8429 6 0.926645 0.276834 0.0276779 -6 -1 1 
7605 5 0.524261 0.279563 0.0251957 -2 6 2 
6244 5 0.350519 0.268779 0.98167 -4 0 -7 
7450 5 0.41896 0.319332 0.0259087 -2 -5 -2 
7478 6 0.438542 0.310065 0.0192144 1 3 0 
5257 5 0.404139 0.353223 0.0154049 1 -1 -1 
5575 6 0.829084 0.362523 0.0276371 2 0 -1 
7389 5 0.254169 0.466442 0.0453087 7 0 2 
5179 6 0.671053 0.465869 0.0404611 -5 1 1 
5698 6 0.956179 0.453453 0.0128393 1 1 -2 
8387 6 0.68395 0.531512 0.0414536 0 3 1 
7383 6 0.482841 0.461306 0.985634 -3 -3 2 
5561 6 0.209073 0.57337 0.0237257 3 -3 2 
6059 5 0.752525 0.535989 -0.00215419 0 1 -1 
8390 5 0.17044 0.604535 0.984994 3 3 -3 
6453 5 0.619477 0.595144 0.0250629 7 -6 -2 
6696 6 0.971885 0.63906 0.0123754 7 1 3 
5261 6 0.442412 0.61543 0.046908 0 0 6 
6397 6 0.572056 0.614351 0.0393238 3 2 0 
7594 6 0.0821965 0.681881 0.0217563 -3 0 -5 
7267 6 0.0379586 0.675189 0.992454 -6 0 -3 
7324 6 0.651044 0.631445 0.028541 3 2 0 
7601 5 0.161082 0.693572 0.0531598 1 -1 1 
5336 6 0.471589 0.665534 0.969209 3 2 -1 
7445 5 0.847817 0.631072 0.0281067 8 1 7 
7247 6 0.914156 0.66217 0.0333999 3 1 -3 
5112 5 0.330527 0.691626 0.0360495 -3 -7 1 
7507 6 0.795157 0.723744 0.0553979 -5 0 3 
6786 6 0.279256 0.741906 0.0465363 1 -1 -8 
5216 5 0.525623 0.753591 0.0486538 0 8 0 
7645 5 0.760497 0.788113 0.0185836 4 -2 1 
7058 6 0.189961 0.792778 0.0429678 2 -3 -2 
5083 6 0.289768 0.832585 0.0618422 1 5 -4 
6086 6 0.35378 0.797269 0.0315734 -2 4 3 
8524 5 0.586033 0.843995 0.987852 -3 1 6 
6747 5 0.778128 0.879358 0.0434012 7 -3 4 
6702 5 0.77001 0.886144 0.0318848 4 1 -2 
7732 6 0.965279 0.867994 0.0190161 -3 2 4 
5934 5 0.997403 0.878429 0.0620131 -2 2 2 
7853 5 0.459819 0.919224 0.0678746 2 1 -2 
5130 6 0.177119 0.939096 0.0826624 -2 -1 4 
7498 6 0.6738 0.916478 0.018883 -2 -3 2 
6782 5 0.149764 0.989195 0.0305487 4 -4 2 
5818 5 0.209519 0.991585 0.0240694 -2 1 -5 
7905 5 0.0619085 0.030202 0.0383238 0 -2 -1 
6411 6 0.739532 0.0487114 0.0566924 1 -3 -1 
7938 5 0.0394061 0.0659152 0.0639819 1 -1 0 
5143 6 0.484824 0.0583194 0.0397916 -1 3 -2 
7047 5 0.573241 0.114009 0.0572463 3 3 -5 
5778 5 0.363032 0.118743 0.0990962 1 1 -1 
7812 6 0.583704 0.151657 0.0444913 -3 1 0 
6517 5 0.907956 0.148105 0.0917303 -3 0 -2 
5224 5 0.276079 0.153848 0.0527969 1 2 2 
5197 6 0.335425 0.195012 0.0512544 0 1 0 
7824 5 0.334579 0.14694 0.0255616 -5 -3 3 
5323 6 0.0350069 0.250854 0.026933 0 -1 5 
6482 6 0.289889 0.239109 0.010588 3 2 -1 
7222 5 0.240505 0.265834 0.0897826 -4 4 7 
8649 6 0.843455 0.206433 0.0440501 -1 4 1 
8173 6 0.558139 0.272385 0.0747832 3 2 -1 
5531 5 0.0940404 0.279028 0.0396876 -2 -1 -2 
8289 6 0.168111 0.281448 0.0440206 0 0 4 
5017 5 0.220111 0.260876 0.0380458 0 2 2 
8377 5 0.900823 0.288362 0.0453803 1 1 5 
5855 5 0.179269 0.274272 0.0966626 -1 0 -1 
6240 6 0.217173 0.326172 0.0503801 -2 -5 0 
5339 6 0.247834 0.313146 0.0870388 2 3 -3 
7728 5 0.548561 0.286108 0.0903881 -1 -1 0 
5642 6 0.287712 0.335382 0.0683942 0 1 -4 
8542 5 0.732221 0.338491 0.0384169 4 1 1 
5509 6 0.93346 0.322264 0.0525356 -4 -2 0 
5881 6 0.154949 0.375502 0.0408891 3 2 1 
5308 5 0.0735529 0.433973 0.0895315 2 -2 3 
7703 6 0.538839 0.429108 0.0815536 -1 2 1 
7874 6 0.271128 0.43175 0.016161 -3 -1 1 
8049 6 0.72867 0.451157 0.0449551 -1 3 1 
5059 6 0.798044 0.460407 0.0413546 -2 -1 -4 
5479 5 0.210839 0.523041 0.0350894 2 -1 6 
5485 6 0.881857 0.514917 0.0634859 1 2 2 
8844 5 0.343184 0.575227 0.0574516 1 2 -2 
5034 6 0.57493 0.548665 0.0614707 -3 6 -6 
5908 5 0.904214 0.594481 0.07607 2 -4 -1 
5178 6 0.147177 0.596797 0.0632412 0 1 0 
7750 6 0.65008 0.619944 0.0324706 3 3 -4 
6006 6 0.705898 0.591966 0.0215523 1 -1 0 
7179 5 0.116187 0.667505 0.0502889 -2 4 2 
7876 5 0.224687 0.625112 0.0497541 -2 0 -2 
5734 6 0.796969 0.654728 0.00652768 -4 -3 -2 
7839 5 0.817618 0.615633 0.0399226 -3 0 -2 
5601 5 0.00129916 0.637702 0.0247167 -6 -5 1 
7778 5 0.919019 0.635574 0.0417295 1 -2 3 
5200 5 0.664939 0.627788 0.0225545 -1 0 -1 
7397 6 0.947808 0.6632 0.0052529 -5 -3 5 
5434 6 0.576614 0.680435 0.0400636 0 1 0 
7652 6 0.604467 0.699915 0.0577892 -5 1 2 
6166 6 0.325218 0.680163 0.0864605 3 0 2 
7400 5 0.704914 0.735804 0.0731597 7 0 0 
7017 6 0.260273 0.796315 0.0417298 1 4 -4 
7000 5 0.299303 0.745054 0.0441708 4 -2 5 
8381 6 0.821228 0.723049 0.0820332 1 7 1 
5254 6 0.975669 0.770268 0.0465592 1 -2 5 
7808 6 0.216213 0.7767 0.0442273 1 0 -5 
7334 5 0.769355 0.826846 0.0527047 -4 -1 3 
5758 5 0.992479 0.861423 0.0850922 0 2 -1 
8146 6 0.0903324 0.859582 0.0743324 3 -1 -3 
8075 5 0.675817 0.821368 0.0396856 5 1 -1 
5684 5 0.407397 0.883402 0.0552824 5 -2 -3 
6813 5 0.948918 0.878643 0.0407931 -3 0 0 
8904 6 0.00935376 0.860499 0.030108 0 -1 4 
5219 6 0.775285 0.941173 0.0420393 -2 -2 3 
7580 5 0.193071 0.902914 0.0596558 -3 2 0 
6982 5 0.994589 0.933204 0.0790857 0 1 6 
7626 6 0.23513 0.937825 0.0653438 2 -3 -3 
5743 5 0.311263 0.958184 0.0552658 1 -4 -2 
5770 6 0.368321 0.0565989 0.0851006 0 -1 0 
6590 6 0.362945 0.011769 0.0884404 -3 -4 -2 
6928 6 0.731488 0.994495 0.100671 -3 -3 3 
7197 5 0.87758 0.998767 0.101264 6 -1 1 
5094 5 0.035773 0.0130166 0.0716172 4 5 -1 
8569 6 0.821613 0.0565913 0.0783684 2 -2 4 
7515 5 0.531758 0.0366026 0.096266 0 -4 1 
5619 5 0.688984 0.0698938 0.090911 0 -4 -1 
8558 6 0.786455 0.0501091 0.0569097 -5 -1 1 
8065 5 0.312221 0.0763048 0.0658152 -1 5 4 
5946 5 0.939615 0.0983598 0.046385 0 -1 3 
5180 6 0.814139 0.118038 0.0756649 -1 5 -3 
8214 5 0.331455 0.113257 0.0479821 -1 -3 4 
7187 5 0.531983 0.135144 0.047855 1 -2 2 
8563 5 0.498503 0.117013 0.0932063 2 0 3 
8867 6 0.652608 0.146072 0.048761 -3 0 -5 
7648 5 0.472671 0.182325 0.0795716 1 0 3 
7203 6 0.239247 0.179349 0.0765325 3 -3 6 
8940 6 0.364217 0.21144 0.0965413 4 5 4 
6701 6 0.797574 0.17934 0.0652131 3 -2 -1 
8942 6 0.118944 0.193068 0.0828737 -1 -2 -2 
8351 6 0.302295 0.213158 0.100498 2 3 0 
5470 5 0.657289 0.238818 0.0619464 -8 -1 2 
6859 6 0.497493 0.248169 0.104348 3 0 -2 
8045 5 0.90463 0.229082 0.0379823 -1 4 5 
7606 5 0.589904 0.251495 0.0593591 -4 -2 0 
6737 5 0.310762 0.341537 0.0956417 3 -2 4 
5669 5 0.696579 0.356406 0.0712077 -1 -3 2 
5173 6 0.813279 0.323523 0.117266 -1 0 1 
7619 5 0.146697 0.41128 0.100982 -2 -1 2 
7416 6 0.436197 0.382591 0.108683 1 3 -2 
6039 6 0.735556 0.35494 0.0650498 -4 2 4 
7511 6 0.650369 0.386708 0.10314 -1 4 1 
6855 5 0.765713 0.427831 0.0868004 3 -2 -1 
8726 5 0.541576 0.443286 0.0775023 -1 -2 8 
7822 6 0.93236 0.409175 0.106231 0 0 -1 
6395 5 0.524251 0.389129 0.0909015 0 -4 1 
8005 5 0.014314 0.440135 0.0660212 0 2 1 
5716 6 0.391429 0.516909 0.0766501 2 -5 0 
7582 5 0.999519 0.458749 0.0837308 0 -5 0 
6567 5 0.403607 0.470701 0.0616319 8 -1 -1 
6420 6 0.695954 0.531464 0.0736058 4 -2 4 
7056 6 0.872601 0.498963 0.0784638 -5 -1 -2 
6547 5 0.423305 0.509906 0.0922967 -3 -4 -1 
8263 5 0.146379 0.516017 0.0916363 -1 -1 -6 
7138 6 0.243102 0.600332 0.0689296 0 0 3 
8170 6 0.620856 0.54033 0.0711859 -4 0 0 
6920 6 0.281832 0.552292 0.0653776 -1 2 -3 
5420 5 0.48096 0.558236 0.0797121 1 -1 3 
7834 6 0.0334525 0.565247 0.0562386 3 1 -3 
7661 6 0.805255 0.606224 0.0755941 -4 1 2 
5096 6 0.925577 0.639814 0.0622058 0 3 -3 
8227 5 0.246648 0.607858 0.0371708 -4 3 1 
6810 5 0.791931 0.610687 0.0707173 -1 -1 -3 
8193 6 0.708579 0.65203 0.0477272 -4 -3 0 
7460 5 0.189553 0.713964 0.0893972 0 3 4 
5836 6 0.474973 0.705274 0.0427493 0 -1 1 
7924 6 0.796426 0.725543 0.104005 -2 -2 -1 
6211 5 0.0907843 0.724494 0.0956548 1 4 1 
6856 5 0.504871 0.722656 0.0957365 2 1 -5 
7220 6 0.875278 0.747232 0.0831299 3 0 -1 
7931 6 0.867084 0.748106 0.0875404 0 3 2 
6318 6 0.159822 0.820944 0.0788709 6 -1 -3 
7042 6 0.612851 0.808223 0.0771407 5 1 2 
8849 5 0.602599 0.791567 0.10261 -2 -6 -2 
5740 5 0.0541254 0.80931 0.104244 -1 4 1 
6068 6 0.151409 0.79217 0.0469266 -4 2 0 
8029 6 0.893978 0.807288 0.0893633 6 -2 1 
7795 6 0.489719 0.882724 0.105647 -3 3 5 
5125 5 0.637114 0.852753 0.118538 -6 0 4 
5840 5 0.214842 0.876148 0.0478732 1 -3 -1 
5478 6 0.225542 0.898482 0.0735394 4 1 -4 
7877 6 0.424985 0.843809 0.116978 1 -3 1 
7561 5 0.0254377 0.927957 0.10522 0 0 -3 
6112 5 0.526991 0.900677 0.0898677 4 -1 3 
6249 5 0.998339 0.938237 0.0846549 -4 -1 1 
6766 6 0.631611 0.965078 0.0686811 -7 -2 -1 
5360 6 0.408344 0.981968 0.0611393 4 8 1 
7514 6 0.477025 0.945938 0.0893665 -2 -1 0 
5462 5 0.221692 -0.00576504 0.0586749 2 -1 4 
8024 6 0.0136632 0.0185466 0.118389 -1 4 0 
6394 6 0.399041 0.00659662 0.147073 1 -2 -1 
6587 5 0.430667 0.074005 0.123458 1 3 1 
8834 6 0.494097 0.0220943 0.0674787 -2 -3 1 
7837 5 0.719902 0.0714892 0.0926394 0 -3 2 
8124 5 0.847759 0.0702014 0.111817 0 -5 3 
7989 6 0.21567 0.0985767 0.131182 2 2 -5 
5515 5 0.666901 0.0727045 0.0999384 -8 1 2 
6173 5 0.983441 0.07504 0.107108 2 2 -4 
8395 6 0.521359 0.145578 0.102778 0 -1 0 
8439 6 0.529429 0.0971266 0.120034 -2 6 3 
5807 6 0.0125323 0.0871779 0.103295 -1 3 0 
7918 6 0.0424886 0.129611 0.0985501 1 1 1 
6793 6 0.92352 0.118685 0.113339 3 -1 5 
6884 6 0.0331286 0.150155 0.134972 -4 0 7 
5231 6 0.80937 0.164158 0.119555 2 0 -2 
7901 5 0.0320276 0.144701 0.0723391 1 4 -2 
8151 5 0.401405 0.177339 0.143518 0 3 2 
7451 6 0.718258 0.206043 0.138292 -2 3 2 
5375 6 0.977456 0.190627 0.12491 -2 5 -6 
6824 6 0.983185 0.188082 0.0829928 -6 -4 2 
8783 6 0.0516316 0.201462 0.119208 -2 0 1 
6792 6 0.120447 0.207291 0.0807895 2 -3 1 
7966 6 0.278018 0.222843 0.160808 -1 1 1 
7551 6 0.525515 0.179012 0.10215 -7 -5 3 
7327 5 0.572992 0.205725 0.119866 -2 2 4 
6991 5 0.731099 0.197328 0.0925499 -2 -4 6 
6575 5 0.758454 0.199671 0.0839452 1 3 1 
6511 6 0.0978065 0.203109 0.128179 0 7 1 
7640 6 0.219752 0.229511 0.123486 2 1 -4 
7663 6 0.811538 0.217447 0.0865079 0 3 2 
6265 5 0.168607 0.262751 0.0973522 2 -4 4 
8105 6 0.264833 0.219757 0.106751 -3 -5 2 
8665 5 0.459077 0.273969 0.127657 -1 -2 0 
6565 5 0.686025 0.321936 0.089595 -4 0 -2 
7158 6 0.913954 0.315555 0.0936638 -2 -2 0 
5977 6 0.997948 0.334066 0.0716046 -3 0 -2 
8984 6 0.4587 0.368105 0.059283 -4 2 -3 
5164 5 0.727823 0.341417 0.0713735 -1 1 1 
7074 6 0.619594 0.354457 0.0629363 4 2 3 
8518 5 0.637857 0.351509 0.11838 3 1 -3 
7917 6 0.297066 0.42692 0.14592 -1 3 -2 
5021 6 0.167323 0.454882 0.101582 1 1 4 
5293 5 0.220834 0.390489 0.0928791 1 -3 0 
6691 6 0.824984 0.416921 0.132566 5 1 -2 
8527 5 0.545756 0.470173 0.116249 -3 -3 0 
6067 6 0.607009 0.471846 0.0982553 4 -3 0 
6475 6 0.686546 0.472656 0.126644 -1 4 2 
6134 6 0.771367 0.488808 0.0924065 3 4 2 
8266 6 0.188557 0.477303 0.0945268 -3 4 -2 
8737 6 0.314543 0.510114 0.104322 1 -3 2 
5699 6 0.338139 0.475902 0.105825 8 -3 -3 
7347 6 0.0694989 0.51881 0.0457218 2 3 1 
7714 5 0.414413 0.557833 0.0870835 4 -1 -4 
5438 6 0.659008 0.532979 0.106063 5 -3 0 
7945 5 0.615411 0.560154 0.113132 1 2 -1 
5820 5 0.553488 0.607275 0.115677 -3 0 2 
7850 5 0.684545 0.553315 0.0722941 0 4 -2 
8732 6 0.102907 0.616928 0.0735286 -6 1 1 
6292 5 0.414698 0.661457 0.0772259 -2 1 -1 
6354 6 0.519474 0.718579 0.117662 -5 -2 5 
8564 5 0.574886 0.739337 0.0958775 -1 1 -1 
7765 6 0.87878 0.671701 0.140681 2 0 2 
5808 6 0.947061 0.692728 0.0641026 -1 3 -2 
7520 5 0.482538 0.719242 0.131358 2 -5 -4 
6477 6 0.17519 0.791456 0.0889339 -1 4 2 
5971 5 0.50409 0.79368 0.0958708 -1 0 -1 
5402 6 0.85831 0.783169 0.0897482 1 3 -1 
5374 5 0.37932 0.818838 0.103481 2 6 0 
6301 6 0.701593 0.801886 0.104896 1 -1 6 
6063 5 0.146002 0.841717 0.108838 0 1 3 
8629 6 0.185605 0.808448 0.0900076 -1 0 2 
7840 6 0.542753 0.847646 0.106555 -1 1 3 
5897 5 0.556093 0.858197 0.107917 -3 -1 6 
5292 6 0.118897 0.902667 0.0771402 4 3 0 
5803 6 0.343751 0.8607 0.0860604 0 3 2 
6921 6 0.522444 0.897186 0.130649 -9 -3 -3 
5363 6 0.801594 0.895773 0.11258 0 0 0 
6431 6 0.673785 0.95249 0.0541612 -2 -4 -1 
5361 5 0.820077 0.912453 0.128529 3 1 1 
8612 6 0.947483 0.92649 0.0749135 2 -1 -2 
7148 5 0.574934 0.994444 0.0801094 -1 -6 -1 
8691 6 0.724557 0.96848 0.0822094 0 -4 -3 
5500 6 0.4478 0.96236 0.153031 -1 -4 -2 
8340 5 0.774109 0.0563601 0.157313 -4 -6 5 
8420 6 0.317138 0.062402 0.103532 0 -6 1 
8372 6 0.592245 0.0572404 0.127286 -4 4 2 
5956 6 0.915875 0.0919036 0.145253 -1 -4 -2 
8011 6 0.106247 0.0688721 0.109531 7 1 5 
7146 6 0.667771 0.110114 0.0992594 -1 -1 4 
6056 6 0.274473 0.120659 0.138316 3 1 3 
6157 6 0.761256 0.0821342 0.135878 -1 5 -1 
8873 6 0.908885 0.114231 0.122815 -3 -3 2 
6881 6 0.265794 0.182677 0.103581 3 1 4 
8337 6 0.802774 0.138993 0.115551 1 -2 0 
7574 6 0.053106 0.16202 0.133109 0 1 0 
5331 6 0.529164 0.147088 0.0931112 3 0 1 
8191 5 0.910934 0.184081 0.104648 -3 3 1 
6770 5 0.184035 0.203354 0.133981 4 -5 1 
5744 6 0.565478 0.207382 0.110022 -1 1 4 
5204 6 0.134835 0.27195 0.158998 3 0 1 
6358 6 0.566702 0.286561 0.151725 -2 1 3 
7965 6 0.590296 0.255876 0.105447 -5 5 -3 
7940 6 0.216848 0.281941 0.129692 4 -3 2 
8669 6 0.273814 0.248871 0.15271 1 -1 1 
6179 5 0.12295 0.31973 0.121874 2 -1 -2 
8804 5 0.954647 0.294727 0.12415 0 -1 0 
8030 6 0.847873 0.338247 0.138752 -4 0 -1 
8274 5 0.371691 0.322916 0.121864 3 0 -1 
8828 6 0.719 0.395385 0.158267 -2 -2 0 
6862 5 0.118267 0.380618 0.114555 -4 -2 0 
8586 6 0.728694 0.408988 0.127151 -1 0 4 
6758 5 0.845579 0.435062 0.0988017 4 -3 5 
7339 6 0.211625 0.445919 0.115839 -2 3 1 
7012 6 0.280133 0.541253 0.149786 1 0 2 
7600 6 0.338343 0.481361 0.127804 -2 -1 1 
8478 5 0.83582 0.499274 0.103106 0 0 1 
5506 6 0.204075 0.514281 0.15576 0 2 -1 
7262 6 0.778686 0.510897 0.133303 -2 -1 -2 
6001 6 0.815392 0.54754 0.136986 0 -1 3 
5255 5 0.145526 0.539245 0.0969254 3 1 5 
6201 5 0.0983466 0.576107 0.132887 0 -1 2 
5446 6 0.137671 0.586614 0.116593 2 2 0 
6769 5 0.964676 0.547878 0.126385 -2 7 0 
6994 6 0.518331 0.641153 0.116948 2 3 -3 
7126 5 0.563384 0.596728 0.116183 -5 5 3 
7100 6 0.662963 0.634498 0.113937 0 0 -3 
6711 5 0.760766 0.629383 0.0888806 -3 -3 -2 
5555 5 0.289268 0.681791 0.120247 -4 3 7 
5423 5 0.410585 0.702976 0.148542 -2 2 -4 
6203 5 0.688113 0.718309 0.140764 -2 -5 -3 
5163 6 0.775022 0.719398 0.126027 -1 -1 1 
8914 5 0.937935 0.721828 0.108754 -3 6 1 
5866 5 0.980065 0.688606 0.159125 -5 1 1 
6113 5 0.662789 0.663218 0.132152 2 -2 3 
8671 5 0.0727818 0.74604 0.105088 -1 2 0 
6069 6 0.958223 0.739489 0.142651 -2 0 0 
7742 5 0.41586 0.755679 0.137696 -2 0 3 
7838 5 0.489973 0.728408 0.141882 6 -3 2 
7039 5 0.828339 0.786214 0.151107 2 -5 -2 
5811 6 0.416678 0.741284 0.109381 -2 -1 -2 
8140 5 0.455688 0.81278 0.115131 1 2 -5 
7214 6 0.512727 0.756185 0.120194 -2 0 -2 
7987 6 0.110733 0.855862 0.115576 1 5 -4 
8153 6 0.369986 0.801721 0.1229 6 4 0 
7392 5 0.552497 0.827037 0.11467 -3 -4 -2 
7787 6 0.610037 0.851785 0.160517 3 -2 5 
8237 6 0.00178971 0.897631 0.130789 2 -2 0 
8374 6 0.312551 0.850988 0.15098 -3 -2 -3 
5850 6 0.00999178 0.950008 0.155431 -1 0 -1 
8272 6 0.372159 0.937227 0.09336 7 1 1 
7568 6 0.126643 0.913497 0.0917223 6 0 2 
6163 5 0.444928 0.944359 0.113714 -1 1 -6 
5517 6 0.0290124 0.952206 0.137595 0 1 3 
6380 6 0.625093 0.956539 0.127406 3 -4 -4 
5020 5 0.802384 0.945416 0.117121 -3 2 0 
5891 6 0.0315302 -0.00138749 0.14675 0 -1 0 
7299 6 0.950017 0.987671 0.129353 -5 -3 -5 
5205 5 0.947744 0.991409 0.141697 2 1 -1 
5107 6 0.655647 0.0653677 0.176013 -1 0 4 
5313 6 0.184507 0.0582476 0.179071 -4 4 -5 
8187 6 0.317849 0.0520122 0.1506 3 3 0 
7499 6 0.364474 0.0315751 0.109865 7 -2 4 
5923 6 0.0329366 0.0506712 0.172494 1 1 -3 
7675 5 0.0928009 0.0749855 0.130029 4 -5 1 
8791 5 0.571916 0.0581795 0.180223 1 5 3 
8967 6 0.905234 0.0604838 0.149453 -2 0 -3 
5175 5 0.269619 0.108711 0.175986 0 4 0 
7083 5 0.0496059 0.139281 0.151642 0 3 -2 
5844 5 0.844761 0.204305 0.154805 6 -3 2 
6041 6 0.158134 0.191462 0.143365 0 2 -3 
8032 6 0.737876 0.20687 0.173385 2 4 -5 
8682 6 0.777374 0.171451 0.146554 -5 4 -1 
7934 6 0.0479515 0.221095 0.146034 -2 1 3 
6893 6 0.606619 0.222538 0.161428 -2 3 2 
5442 6 0.792662 0.208697 0.120091 3 4 5 
7190 5 0.905199 0.226117 0.156609 2 -2 4 
6656 5 0.409633 0.234729 0.158198 0 -2 -1 
8228 6 0.161162 0.309017 0.176862 -1 -1 4 
7792 5 0.447978 0.307581 0.145388 -2 1 0 
7116 5 0.540991 0.298999 0.146741 -3 0 0 
7461 5 0.11424 0.367649 0.112027 -2 4 2 
6882 6 0.565805 0.39406 0.162049 -1 0 3 
5904 6 0.407897 0.387902 0.149993 1 -7 4 
5306 5 0.630871 0.408649 0.15125 -2 -3 2 
5001 6 0.77938 0.358138 0.11486 0 3 -3 
5800 5 0.286922 0.467533 0.142038 -3 4 -1 
8463 5 0.456674 0.437641 0.135608 -6 1 5 
8730 6 0.728775 0.438567 0.163542 -1 -1 5 
7066 6 0.849871 0.4677 0.0821618 -4 1 -2 
5481 6 0.154797 0.462028 0.219302 -7 -2 3 
6161 6 0.202561 0.468433 0.141789 -3 4 -2 
5511 6 0.279402 0.526175 0.160282 1 -4 2 
7038 6 0.584977 0.500912 0.165198 -4 5 0 
5985 6 0.776345 0.486253 0.122682 0 4 -2 
8667 6 0.816908 0.459657 0.184889 2 3 0 
7536 6 0.366349 0.491939 0.112805 0 0 0 
5838 5 0.979258 0.468826 0.150388 -2 7 0 
5999 6 0.685648 0.535838 0.185965 -5 -2 -1 
7709 6 0.836938 0.572804 0.146016 -1 2 -2 
7496 6 0.117405 0.606087 0.148177 -1 -7 -7 
5657 5 0.226695 0.632475 0.139125 5 0 2 
6205 6 0.939155 0.652883 0.143827 -6 3 -2 
6652 5 0.307296 0.627107 0.145861 3 -6 -4 
5373 5 0.478107 0.686892 0.133605 5 0 -1 
6738 6 0.855822 0.69653 0.149833 -2 -1 3 
6797 5 0.955967 0.716911 0.150439 -2 5 1 
6486 5 0.335523 0.724482 0.138496 -1 1 -1 
6731 5 0.354036 0.773067 0.12275 -4 0 0 
6723 6 0.868151 0.743854 0.166749 4 4 4 
6315 5 0.346792 0.751786 0.121998 1 -1 2 
8820 6 0.632373 0.772412 0.135877 -1 -4 2 
6324 6 0.607348 0.801723 0.117252 -10 2 2 
8472 6 0.926334 0.757152 0.145415 -4 -2 -3 
6131 6 0.332435 0.77566 0.141467 1 -4 2 
8290 6 0.63599 0.795494 0.16415 5 -1 -2 
7013 6 0.651685 0.782203 0.147095 -1 5 1 
8508 6 0.0794548 0.807712 0.137939 -3 1 -3 
7257 6 0.0961416 0.773197 0.14014 -6 0 -3 
8297 5 0.315973 0.790401 0.142438 1 2 0 
7649 5 0.534323 0.805739 0.168868 2 -2 -5 
7543 5 0.90474 0.812697 0.147582 0 7 1 
5145 6 0.819777 0.837755 0.120838 -1 3 0 
8036 5 0.932004 0.827404 0.173459 0 -1 1 
8655 5 0.0994933 0.926072 0.151544 3 -2 0 
6272 5 0.165908 0.902886 0.148381 -1 -2 5 
6945 5 0.191306 0.963121 0.144513 -3 -1 1 
5080 5 0.502133 0.965248 0.158647 -5 -2 -1 
6708 6 0.677223 0.933713 0.113643 -2 3 1 
6335 5 0.446441 0.954371 0.154061 -4 1 -2 
7142 6 0.542892 0.982568 0.149901 -2 -3 -3 
6537 5 0.925482 0.961036 0.150757 -4 -1 3 
7719 5 0.0656683 0.0222487 0.149351 -3 3 -1 
5387 6 0.345915 0.00214458 0.193779 4 0 2 
6111 6 0.572844 0.0299735 0.178514 -2 -1 -4 
6372 6 0.794159 0.0676777 0.156033 -2 -2 1 
7368 5 0.900424 0.0575557 0.162346 1 3 3 
7060 5 0.303596 0.0412297 0.159812 -2 -2 2 
6967 5 0.37506 0.0926176 0.143527 0 1 -1 
8539 6 0.820938 0.105422 0.153092 1 0 -1 
7897 6 0.877818 0.0730009 0.172365 -1 0 0 
7170 5 0.893919 0.0827798 0.176028 -3 3 1 
6123 5 0.163607 0.113876 0.174635 5 2 2 
6030 6 0.693186 0.109901 0.199408 0 5 2 
8709 6 0.884335 0.139083 0.206654 -3 3 4 
8861 5 0.357744 0.167663 0.171845 -1 -1 0 
8079 5 0.431556 0.219525 0.122043 2 -1 4 
5166 6 0.48289 0.200782 0.18691 -1 -4 5 
7549 5 0.528483 0.203315 0.179476 2 0 2 
8175 5 0.690893 0.219864 0.189074 6 4 -2 
7969 6 0.155891 0.210137 0.133952 -4 -3 0 
5220 6 0.975868 0.234321 0.146973 -3 -4 0 
7127 6 0.0555973 0.229836 0.186093 1 -2 2 
5641 6 0.0624558 0.238193 0.155364 4 5 1 
5296 6 0.200332 0.2633 0.146729 0 -1 3 
5377 6 0.366804 0.267417 0.142603 -2 -2 -5 
8084 6 0.475465 0.24745 0.157208 3 4 0 
5754 5 0.0737287 0.269842 0.124357 -3 2 -2 
8714 6 0.316814 0.27462 0.177158 -3 5 8 
8887 5 0.775038 0.313716 0.193853 2 2 1 
7502 5 0.92303 0.30086 0.135238 1 -4 -3 
5902 6 0.520375 0.338746 0.136966 1 1 1 
6676 6 0.6628 0.336723 0.180843 -2 -6 2 
7907 6 0.983195 0.288395 0.219297 2 -1 3 
7949 5 0.554489 0.358042 0.183618 3 -2 1 
6356 5 0.250402 0.395521 0.177668 1 3 1 
5912 6 0.385123 0.332093 0.176805 0 4 2 
5196 5 0.716604 0.377445 0.211237 1 4 1 
7153 6 0.57335 0.383662 0.186569 -1 3 2 
8651 5 0.681722 0.391711 0.19177 7 6 0 
7323 6 0.734724 0.35806 0.195643 -4 1 -1 
6745 6 0.808069 0.429144 0.159228 6 1 -1 
8962 6 0.09701 0.444823 0.187319 2 -1 -4 
5105 6 0.366531 0.425185 0.139475 1 8 -3 
6225 6 0.407693 0.49152 0.173912 -3 0 2 
6184 6 0.404593 0.535793 0.144586 4 4 6 
8644 6 0.958988 0.531007 0.159342 1 0 3 
7731 6 0.0654663 0.548341 0.180457 3 1 -1 
8792 6 0.0825684 0.53658 0.170207 2 -5 0 
5251 6 0.22986 0.507203 0.153079 1 5 4 
7301 6 0.481972 0.556514 0.192876 -1 0 1 
5498 5 0.431181 0.596915 0.195097 -3 -1 2 
7607 5 0.623491 0.558809 0.162568 4 3 3 
5119 5 0.896481 0.568983 0.155857 2 1 -1 
7106 5 0.499325 0.586559 0.149146 -2 -5 1 
8781 5 0.84457 0.556401 0.205029 6 4 0 
8839 6 0.182519 0.601643 0.152537 -3 0 -3 
8366 6 0.829966 0.619627 0.194118 -4 -4 3 
5116 6 0.132568 0.562808 0.172449 1 1 1 
7210 6 0.927131 0.619262 0.167057 -1 1 -3 
7401 6 0.188419 0.624925 0.166032 1 -2 0 
7124 5 0.0400982 0.703786 0.151086 -2 2 6 
8950 6 0.136547 0.66653 0.167821 -4 2 -3 
8354 5 0.148485 0.656151 0.180606 2 -1 3 
7718 5 0.888173 0.661151 0.154393 -2 3 2 
5948 5 0.971686 0.715216 0.155015 0 -3 -2 
5562 6 0.0316572 0.718036 0.14549 0 1 -3 
5448 6 0.646553 0.664527 0.152142 -2 -1 -5 
6326 6 0.211192 0.75379 0.209356 -1 -2 8 
8634 6 0.51244 0.75302 0.214446 3 0 2 
7932 6 0.582951 0.75266 0.155597 2 0 2 
6896 5 0.635177 0.756647 0.154334 2 0 1 
5253 5 0.655852 0.769861 0.199013 -1 4 -6 
5973 6 0.402807 0.764187 0.203457 2 -2 -1 
6224 6 0.52112 0.790794 0.140679 1 2 2 
8760 5 0.683125 0.770685 0.203072 1 1 -2 
8504 5 0.892856 0.809395 0.130128 2 -1 0 
8178 5 0.906865 0.839754 0.164914 2 1 4 
7690 6 0.0688825 0.843462 0.177475 2 1 2 
5037 6 0.760307 0.82716 0.206765 -3 4 -4 
7657 6 0.0569454 0.852293 0.173807 1 0 4 
7836 6 0.147269 0.886137 0.167728 -3 -2 -1 
5725 5 0.151389 0.845383 0.189533 0 2 3 
8434 6 0.501048 0.844668 0.16774 -2 2 3 
5372 5 0.510011 0.809345 0.175843 0 0 4 
8078 6 0.539245 0.889593 0.171027 0 1 -1 
6544 5 0.199255 0.942145 0.138291 -2 -2 0 
7029 6 0.581961 0.887855 0.156177 7 -1 1 
5802 5 0.495752 0.920997 0.173248 -1 3 1 
5482 6 0.198231 0.949317 0.202678 0 -1 0 
8617 6 0.169541 0.938059 0.177882 0 0 1 
7230 6 0.213877 0.932708 0.199664 -1 -3 8 
8654 5 0.3596 0.0172302 0.186655 -2 0 2 
7482 6 0.623386 0.963085 0.15375 -3 -2 -2 
8161 5 0.285822 0.992553 0.176417 5 5 0 
7622 6 0.809678 -0.000885537 0.166052 2 -7 2 
5245 5 0.490463 0.0684673 0.181626 -4 3 -8 
8826 5 0.611549 0.0267352 0.180305 -2 -2 2 
7608 6 0.652015 0.0604837 0.17995 0 1 4 
6599 5 0.582138 0.0951351 0.184241 3 2 -1 
5087 6 0.430681 0.10733 0.181813 5 0 1 
6467 6 0.724567 0.134828 0.180578 -5 -2 1 
8814 6 0.806636 0.128872 0.188829 1 2 -1 
7878 5 0.152281 0.171584 0.200778 0 -2 3 
8459 6 0.125912 0.142691 0.190773 0 -3 -2 
8090 5 0.371591 0.145821 0.163561 1 -3 3 
8085 6 0.366942 0.167461 0.204115 1 0 6 
7278 5 0.485228 0.162973 0.189167 4 -1 0 
5757 6 0.682427 0.18594 0.201003 4 4 1 
7517 5 0.417749 0.194728 0.217606 3 4 0 
7289 6 0.520036 0.213056 0.16514 4 1 1 
8376 5 0.540491 0.19229 0.203741 0 1 -3 
8510 6 0.27913 0.259248 0.2145 -2 -4 2 
6413 6 0.826039 0.242312 0.178623 2 2 -3 
5388 5 0.326102 0.300928 0.166037 0 -3 -2 
8689 6 0.388774 0.289539 0.202649 -1 2 2 
7576 5 0.500711 0.301948 0.220986 0 -1 7 
5972 6 0.596072 0.294304 0.154872 0 1 -2 
5028 5 0.846105 0.221024 0.151443 0 -5 -2 
7328 6 0.063982 0.313644 0.199575 -1 -3 1 
8111 6 0.240658 0.268712 0.198846 7 3 1 
6601 5 0.667666 0.330126 0.227784 -1 1 0 
5124 5 0.68871 0.32639 0.219506 -1 2 -2 
6964 6 0.892398 0.316384 0.219978 1 -1 -4 
5843 5 0.00843541 0.344387 0.196254 1 -1 -1 
6539 6 0.295274 0.317996 0.22572 6 3 2 
6907 6 0.0929524 0.396411 0.166354 -5 2 4 
8259 6 0.216967 0.40066 0.192764 3 -2 -3 
8255 6 0.751934 0.387097 0.172186 -4 -2 -1 
5666 6 0.799187 0.416296 0.222931 -4 2 1 
8115 5 0.905447 0.38927 0.188809 -1 6 0 
5907 6 0.382365 0.439643 0.201619 5 3 -1 
6391 6 0.836766 0.439815 0.188215 2 1 4 
7082 6 0.927658 0.442877 0.216679 7 0 2 
7177 6 0.941456 0.398557 0.168872 -1 -1 3 
7384 6 0.227283 0.455685 0.227785 0 4 -3 
8627 6 0.291403 0.467878 0.18489 -5 3 6 
8884 6 0.52253 0.436272 0.206003 0 0 0 
5194 5 0.861875 0.481044 0.195135 2 -2 0 
5846 5 0.881693 0.480137 0.197284 7 1 -4 
7094 5 0.510629 0.477052 0.200547 0 -2 1 
8189 6 0.856945 0.500499 0.174631 -5 0 0 
5075 6 0.38424 0.474089 0.201833 -6 5 0 
7276 5 0.534826 0.529176 0.200361 0 2 3 
6449 6 0.577923 0.503128 0.168715 -1 0 2 
7274 5 0.84003 0.543623 0.183935 1 -3 4 
7763 5 0.108461 0.571269 0.194974 2 3 0 
5270 5 0.247255 0.52149 0.223647 -2 4 2 
6151 6 0.0363063 0.563482 0.187817 -4 4 -1 
8268 6 0.477517 0.627734 0.185507 -1 2 0 
7295 5 0.629884 0.623736 0.167763 4 0 -2 
5871 6 0.631388 0.595093 0.164625 5 -1 2 
5321 5 0.872514 0.557537 0.198646 -2 -1 7 
7005 6 0.97742 0.620112 0.211125 3 -3 -2 
5597 6 0.0814146 0.629685 0.225864 -1 2 -1 
6578 6 0.608227 0.635102 0.212272 -3 4 -3 
6688 6 0.830596 0.668398 0.197543 -6 2 4 
7362 5 0.414224 0.715616 0.147857 -4 0 1 
8056 5 0.428823 0.633603 0.200405 -1 0 4 
8905 6 0.0321949 0.685329 0.188456 1 -2 -2 
8348 5 0.693343 0.715815 0.198745 0 -5 0 
5767 6 0.306833 0.760941 0.214538 -2 1 -7 
7191 5 0.409322 0.774772 0.174611 1 0 0 
5214 5 0.226635 0.742092 0.189029 -2 4 0 
6429 6 0.51401 0.757696 0.152965 2 -1 -4 
6162 5 0.695952 0.761119 0.188812 -4 1 -3 
5689 5 0.813254 0.800055 0.227456 0 -3 -1 
5188 6 0.656157 0.807478 0.228019 0 5 1 
6883 6 0.948911 0.772186 0.218298 3 2 -1 
8608 6 0.570094 0.799555 0.213531 1 3 2 
6038 6 0.91483 0.801535 0.213065 -3 -3 3 
8053 5 0.960952 0.874669 0.233961 -7 3 -6 
6675 5 0.635256 0.833562 0.190439 -1 2 -1 
7336 5 0.228447 0.873935 0.1937 2 1 5 
7857 6 0.402935 0.894579 0.194237 4 -2 -3 
8952 6 0.425763 0.846476 0.194509 3 0 7 
6998 6 0.991787 0.909493 0.184804 -2 1 0 
5569 5 0.687849 0.876078 0.228507 -7 -2 -1 
6868 5 0.673704 0.898606 0.164557 -4 -1 0 
5410 6 0.303219 0.894862 0.185986 0 -1 3 
8589 6 0.593854 0.907494 0.180457 3 1 -1 
5486 5 0.99969 0.940606 0.181949 1 1 0 
6776 6 0.804886 0.951503 0.21362 -4 0 0 
6095 5 0.84912 0.98018 0.20849 -4 -3 2 
5700 6 0.396133 0.0161249 0.23462 -2 2 -2 