ITEM: TIMESTEP
50000000
ITEM: NUMBER OF ATOMS
9000
ITEM: BOX BOUNDS pp pp pp
-75 75
-75 75
-75 75
ITEM: ATOMS id type xs ys zs ix iy iz 
7352 6 0.729647 0.989071 0.0203292 10 2 4 
5994 6 0.921667 0.00775247 0.0220791 3 -2 -3 
5659 6 0.675765 0.0463388 0.00789971 5 -2 -2 
7902 5 0.519909 0.0665929 0.00234883 -1 5 -6 
8390 5 0.881862 0.0827455 0.00663165 -7 3 -1 
6458 5 0.197537 0.109466 0.037099 -4 4 -15 
7245 5 0.766184 0.133684 0.978428 -1 4 1 
8777 6 0.521362 0.14742 0.00935791 3 -1 2 
6385 5 0.980817 0.13717 0.0244428 -5 -2 10 
5185 5 0.226127 0.166336 0.0226699 -2 -4 3 
7871 6 0.449902 0.207273 0.0132782 -1 2 -5 
8998 6 0.659188 0.161248 0.030384 -3 5 -5 
6897 6 0.791954 0.230854 0.0415285 -9 -3 -5 
5279 5 0.808092 0.219 0.0258758 8 4 -4 
5011 6 0.680703 0.18625 0.0118851 4 1 1 
8192 6 0.82295 0.234115 0.976109 2 8 -2 
6593 5 0.395302 0.241135 0.0316419 0 -3 2 
7074 6 0.627474 0.2677 -0.00272229 -12 -2 -4 
8025 6 0.365582 0.292376 0.0194326 7 7 4 
8309 5 0.666311 0.29755 0.993608 -3 -4 -9 
7134 5 0.111581 0.329184 0.993501 3 -2 0 
8935 5 0.14461 0.347514 0.0295433 0 -7 1 
7873 6 0.326033 0.317948 0.0439035 7 3 -1 
8139 6 0.49286 0.387094 0.9797 8 2 -2 
8503 6 0.746256 0.326583 0.0190153 2 -6 -7 
8109 5 0.161319 0.4242 0.00540415 2 4 -1 
6659 6 0.54257 0.412122 0.0205583 3 4 -1 
6889 6 0.833119 0.406543 0.0369559 -2 6 1 
7316 6 0.878081 0.465023 0.0118831 3 3 -1 
5884 5 0.0333105 0.465951 0.0366357 -3 -4 -2 
7283 6 0.392559 0.44578 0.986673 6 -4 1 
7191 5 0.0744591 0.476164 0.982796 5 0 2 
5432 5 0.126731 0.456915 0.989249 0 2 -3 
6601 5 0.401227 0.473463 0.0436813 3 -3 -5 
7671 6 0.000213095 0.506742 0.0113847 3 5 -2 
8467 5 0.110485 0.525211 0.00868114 0 -8 3 
7417 5 0.165689 0.546942 0.00972712 -2 -8 0 
7078 6 0.474515 0.53466 0.00491166 0 -1 -1 
8304 6 0.161918 0.564296 0.00299786 -11 -3 1 
5400 5 0.906991 0.544786 0.0509647 5 -3 0 
5721 6 0.0136561 0.597207 0.0248266 5 1 -1 
6523 6 0.546086 0.595261 0.030919 -2 2 3 
5253 5 0.159 0.580656 0.0122068 -4 6 -4 
5514 6 0.207337 0.594814 0.989619 6 2 -5 
6683 6 0.428268 0.600331 0.991996 3 -1 -3 
7635 6 0.830714 0.579006 0.969089 -7 1 3 
8085 6 0.359199 0.600322 0.00210415 1 -6 -5 
8581 6 0.640632 0.671722 0.00353843 13 0 1 
6379 6 0.7462 0.647368 0.00573137 -2 0 3 
7485 6 0.576202 0.661559 0.0114066 -4 1 1 
6421 6 0.732864 0.655041 0.0101749 3 -2 1 
8196 6 0.663984 0.677636 0.00628431 1 1 10 
6317 5 0.163204 0.704668 0.9736 7 0 -5 
5470 6 0.279518 0.726627 0.0232975 0 3 2 
7184 5 0.443413 0.721211 0.0242087 8 3 -1 
5025 6 0.637791 0.706621 0.0121118 10 0 1 
5022 5 0.815122 0.728269 0.970415 -9 -2 2 
6936 5 0.818901 0.705788 -2.41658e-05 -2 -11 0 
7702 6 0.411318 0.762152 0.991735 -10 -2 4 
5264 5 0.646586 0.755105 0.046874 2 -2 -5 
8283 6 0.89141 0.77877 0.00755768 9 -1 7 
8289 6 0.328457 0.770988 0.00253689 -6 0 6 
8381 5 0.419852 0.762016 0.0195831 2 7 8 
7056 5 0.495506 0.807612 0.00961135 1 0 -3 
6849 5 0.291894 0.869873 0.0191342 1 4 3 
5265 6 0.411673 0.822481 0.0244269 -5 0 1 
8146 5 0.425761 0.855028 0.0116207 7 4 4 
5638 5 0.575604 0.859759 0.00775171 3 -10 -6 
7746 5 0.687316 0.867783 0.0261425 9 3 3 
6594 5 0.373263 0.899623 0.970361 7 -3 0 
7332 6 0.478701 0.868302 1.00437 -2 1 -4 
6638 5 0.217948 0.900083 0.0183524 2 0 3 
8934 6 0.22095 0.897569 0.00645235 -1 3 4 
8606 6 0.499268 0.913519 0.0381365 0 -5 3 
8497 6 0.112309 0.951334 0.0100512 5 -7 -1 
5212 6 0.79445 0.872275 0.973204 8 0 -5 
8367 5 0.884328 0.955418 0.0230037 5 2 -2 
7084 5 0.416307 0.960269 0.970788 1 5 -1 
7583 6 0.0347526 0.959625 0.0177274 -2 1 -3 
7575 5 0.182169 0.999615 0.0011955 4 3 1 
7717 6 0.825762 0.983392 0.0189598 -3 -5 -2 
5226 6 0.903186 0.92007 0.00235801 1 -4 4 
5956 5 0.166968 0.974829 0.0112935 -6 -6 -5 
6530 5 0.190067 0.987755 0.0264322 4 -4 -3 
6374 6 0.305183 0.00177033 0.028202 -3 -1 4 
6811 6 0.42974 0.973107 0.0315563 7 -6 -1 
7378 6 0.593279 0.0144636 0.0105879 -10 3 6 
6073 6 0.842184 0.0112759 0.0560811 10 4 5 
6342 5 0.833852 0.989495 0.00486865 5 5 4 
6979 5 0.0531786 0.0744676 0.0273154 7 3 2 
7381 6 0.136685 0.0169436 0.0299576 2 0 0 
7058 5 0.551471 0.0651106 0.997065 -8 3 -5 
8476 6 0.625513 0.0128425 0.0119164 2 -10 -1 
6292 6 0.646667 0.0538742 0.00401435 -1 4 5 
8005 6 0.364365 0.0461525 0.00622503 8 -2 -3 
6965 5 0.869384 0.0605235 0.03389 -6 1 1 
6021 6 0.117653 0.0742571 0.0427255 0 -2 -1 
6871 5 0.60568 0.0670339 0.0631442 -2 9 -2 
6625 6 0.644619 0.120407 0.04324 -4 -6 1 
5460 6 0.803281 0.0695413 0.0442162 1 -1 0 
6633 6 0.884437 0.0864029 0.0248277 4 3 -4 
7508 5 0.323593 0.123685 0.987054 -3 -1 -3 
8251 5 0.722091 0.125607 0.0356032 8 -2 0 
8616 5 0.5685 0.15715 0.0512218 8 0 -3 
6396 6 0.99012 0.135341 0.999258 0 -9 2 
7055 6 0.471939 0.200421 0.0539724 -5 -4 3 
5999 6 0.164117 0.205587 0.0252937 1 9 -6 
5575 6 0.527724 0.262709 0.00790803 -4 5 -3 
8795 6 0.39417 0.25621 0.0212506 1 -8 -5 
6088 6 0.0819253 0.297694 0.0595691 5 -1 -7 
6724 6 0.243513 0.332661 0.0186121 -3 -8 1 
5413 6 0.331496 0.255771 0.0646723 -6 -5 1 
8533 6 0.780704 0.264983 0.0521438 -2 -7 -5 
8171 6 0.884554 0.257684 0.00748425 2 -2 2 
7076 6 0.428209 0.266561 0.0591777 7 -1 2 
6536 6 0.828538 0.261752 0.0477458 4 1 -2 
7513 6 0.870987 0.321297 0.0130399 3 8 1 
7110 6 0.020728 0.308637 0.0128374 0 3 -2 
7553 5 0.855226 0.302011 0.0634428 2 6 -2 
7535 6 0.328093 0.333259 0.0102165 0 -10 3 
7461 6 0.453703 0.372152 0.0162202 -2 9 -8 
6712 6 0.525741 0.340665 0.0531328 4 1 -7 
6967 6 0.8628 0.343436 0.0382974 -2 -4 2 
5083 5 0.873009 0.323193 0.026195 3 0 -4 
7530 5 0.974023 0.361073 0.0194823 2 -1 -4 
8833 5 0.484484 0.36515 0.0664413 0 2 0 
6157 6 0.0764011 0.400158 0.0246122 1 2 0 
8170 6 0.387591 0.374064 0.0401193 3 2 -5 
7753 5 0.522059 0.366011 0.0496638 1 4 2 
5146 6 0.356825 0.418987 0.044798 -5 3 7 
5021 6 0.61848 0.476369 0.0199748 -2 -4 3 
6235 6 0.922049 0.466483 0.0184213 -1 5 -5 
5454 6 0.355145 0.478727 0.0252801 -2 -2 3 
5757 5 0.0470529 0.483844 0.0116481 4 9 -5 
6282 5 0.505472 0.479356 0.00713181 1 -4 -9 
7048 6 0.54321 0.508196 0.0346282 8 -1 1 
5404 5 0.484815 0.571681 0.0248127 3 6 6 
8074 6 0.508468 0.617858 0.0618043 -3 8 9 
6826 5 0.557706 0.617508 0.0214463 -1 -4 2 
8238 6 0.783767 0.591499 0.0343891 -4 -1 2 
8822 6 0.185138 0.611999 0.0521319 4 -2 -6 
5118 5 0.163039 0.620866 0.0576236 -2 10 6 
5993 6 0.27897 0.601751 0.0606173 6 -5 5 
6391 6 0.527619 0.643883 0.0390833 -2 -3 1 
8489 6 0.907196 0.634037 0.0448068 9 0 1 
6325 5 0.197898 0.668976 0.0653212 2 2 1 
8037 6 0.38724 0.66701 0.0406293 -1 -2 -9 
6896 5 0.38135 0.665884 0.0577767 6 2 3 
5442 5 0.318211 0.710112 0.0143197 3 7 -4 
8168 5 0.274654 0.663434 0.0120101 -5 1 -5 
8817 6 0.64318 0.713565 0.0287091 -7 2 2 
5511 5 0.83442 0.704283 0.0481329 -5 -5 -2 
5992 5 0.203117 0.756116 0.0299532 -1 0 -1 
7219 5 0.280516 0.752974 0.0707812 1 6 4 
6844 5 0.412446 0.749092 0.0456574 0 3 -4 
8048 6 0.671322 0.773972 0.0125281 -6 5 8 
8922 5 0.691625 0.72867 0.0476324 -4 5 0 
7917 5 0.804941 0.752615 0.0474024 -4 2 -3 
6774 6 0.0159456 0.773387 0.030107 4 10 -2 
5210 5 0.423823 0.818149 0.0298583 3 4 7 
5595 5 0.0454652 0.79738 0.014203 3 6 5 
7900 5 0.0521283 0.839428 0.0552471 6 5 2 
8888 6 0.873651 0.753619 0.0302529 3 7 5 
6981 5 0.740403 0.799767 0.0164197 -3 6 0 
8044 6 0.0790741 0.837914 0.0430741 10 3 -11 
8224 6 0.328629 0.861848 0.0471687 -4 2 -6 
7925 5 0.39414 0.851054 0.015115 3 1 6 
8166 6 0.0947982 0.885734 0.00508999 4 -6 1 
5274 5 0.34235 0.893138 0.00859042 3 -12 -1 
7350 6 0.699118 0.864423 0.0295677 -6 3 0 
6919 5 0.711237 0.872755 0.0368756 -9 2 -5 
7080 6 0.3766 0.909174 0.0460589 3 -3 -5 
7403 6 0.0327749 0.951378 0.0577497 7 -10 -2 
7268 6 0.26707 0.889373 0.00347399 6 2 4 
7446 6 0.520597 0.969779 0.0321173 2 -3 3 
5284 6 0.712695 0.943673 0.0208883 2 -2 -1 
6861 5 0.959871 0.935696 0.0371377 7 -1 -2 
5352 5 0.196302 -0.000913706 0.0391693 -2 2 6 
5415 6 0.50631 0.00497257 0.0203625 8 -4 7 
5864 6 0.334027 0.980913 0.039785 8 -1 5 
6473 5 0.663809 0.032236 0.0407834 -1 2 -2 
8561 6 0.923223 0.0167492 0.0462493 -4 5 -5 
6684 6 0.808334 0.0143386 0.0560899 -4 -3 -2 
8498 6 0.433295 0.0287274 0.0622371 1 -3 6 
5697 6 0.471302 0.0404685 0.0218539 1 -2 -2 
8485 5 0.724949 0.0500406 0.0537065 13 -3 -1 
7558 6 0.950934 0.0721581 0.027822 0 1 -3 
6920 5 0.168778 0.108032 0.0602744 3 0 -1 
7968 6 0.443303 0.0635545 0.0944046 9 1 0 
5517 6 0.0445573 0.127724 0.0340947 -5 -4 1 
5434 6 0.111986 0.095152 0.0418477 4 0 7 
7330 6 0.333857 0.163955 0.024632 0 3 1 
5723 6 0.400318 0.111064 0.0429484 9 3 -1 
6348 6 0.206637 0.188793 0.0646046 0 11 -2 
6898 6 0.717784 0.174775 0.0620877 2 1 2 
7667 5 0.985827 0.151739 0.0871062 -1 1 2 
7137 6 0.300879 0.147145 0.0491118 8 1 4 
7921 5 0.222159 0.205941 0.0404156 -2 7 6 
6481 6 0.954907 0.217051 0.0429227 -2 -4 -3 
5490 6 0.0649934 0.223932 0.0622091 -4 1 -6 
6457 5 0.503076 0.234943 0.0886098 1 3 7 
7914 6 0.646289 0.252294 0.0464936 -7 1 0 
8480 5 0.739691 0.221562 0.0663773 4 3 12 
8808 6 0.52788 0.297989 0.106605 -1 7 2 
7559 6 0.604253 0.2831 0.0658301 6 -4 9 
7238 5 0.0507806 0.320803 0.0775931 -8 4 -8 
6329 6 0.0829211 0.317877 0.0879651 -6 9 -7 
5769 6 0.128741 0.352273 0.0300507 -2 9 3 
5160 5 0.192241 0.379677 0.0112635 -5 -5 2 
6055 6 0.452082 0.397432 0.990396 -5 -2 7 
5006 5 0.142612 0.417967 0.0662723 1 -4 12 
6737 6 0.966553 0.403334 0.00797012 -9 -4 -2 
5872 6 0.991555 0.393749 0.081371 -5 -1 0 
6868 5 0.547106 0.410594 0.0621793 4 -3 -4 
5870 6 0.981657 0.42408 0.0418593 -4 -1 -5 
5798 6 0.53461 0.45427 0.0465012 -3 2 -1 
7390 6 0.64452 0.406775 0.0492129 1 2 -4 
6982 6 0.980328 0.451216 0.0562524 5 4 6 
8727 6 0.0561693 0.453522 0.0440637 -1 -1 -2 
6807 5 0.147717 0.481826 0.0531349 7 7 7 
7766 5 0.879877 0.563921 0.0161378 -4 -9 5 
5889 6 0.394773 0.601077 0.0287922 1 1 6 
8908 5 0.477112 0.609889 0.0362888 -3 3 2 
7689 5 0.795167 0.635313 0.0448538 -4 -2 -1 
7399 5 0.252877 0.641438 0.0906012 6 2 2 
6591 6 0.8156 0.650536 0.0578908 4 -6 4 
5746 6 0.9903 0.638279 0.0571226 3 -1 -4 
8805 5 0.981786 0.693157 0.0427546 2 -2 2 
6975 5 0.920354 0.706775 0.0510111 -6 2 -19 
8671 6 0.517174 0.80606 0.0464381 5 3 -1 
5048 5 0.647524 0.773591 0.0834501 1 -6 7 
7600 5 0.83451 0.764116 0.0271245 -2 5 0 
6974 5 0.159476 0.78454 0.0724667 -1 4 2 
8684 5 0.273175 0.772949 0.0114899 0 0 4 
7937 5 0.0647868 0.873449 0.0535829 9 -1 5 
8945 6 0.114165 0.87192 0.0761205 -7 -8 6 
8404 5 0.677755 0.853002 0.0450929 -2 4 -3 
5626 5 0.703898 0.814644 0.0447898 0 -7 0 
7040 6 0.703805 0.830432 0.0461547 -3 4 7 
5967 5 0.602122 0.889209 0.0880585 2 -6 -10 
6793 6 0.116704 0.938622 0.0619981 8 2 -4 
7147 6 0.622717 0.87736 0.0716172 3 6 -1 
5159 5 0.821506 0.949651 0.0881261 4 1 -2 
5106 6 0.830268 0.908136 0.103176 3 2 -3 
5505 6 0.734874 0.946092 0.0799017 7 2 0 
5068 6 0.859902 0.953683 0.053872 2 -7 0 
7578 5 0.908572 0.95731 0.0901924 -5 -1 -4 
7751 5 0.0869504 0.960239 0.0680693 4 0 5 
6763 5 0.370232 0.0272344 0.122879 -2 1 -1 
8116 5 0.905477 0.0303505 0.0735728 -9 0 2 
5518 5 0.760844 0.0447225 0.10156 1 -3 -10 
8245 6 0.964455 0.0586294 0.110754 -2 4 0 
5304 6 0.139403 0.0651282 0.0714579 4 6 7 
8353 6 0.40053 0.0960816 0.122957 -5 -4 4 
6613 6 0.848936 0.0491032 0.061259 5 2 8 
5663 5 0.0817428 0.0941654 0.066436 0 -1 4 
6494 6 0.87194 0.0830623 0.0840621 -4 4 -7 
7418 5 0.0468991 0.0780758 0.0855157 -5 -2 6 
8877 6 0.340789 0.126522 0.085107 -1 -1 0 
8912 6 0.4461 0.0701342 0.0523302 -1 5 5 
6492 6 0.62279 0.120792 0.044909 1 6 2 
8013 6 0.376172 0.161757 0.0781686 -3 0 -3 
5678 5 0.456294 0.153427 0.0808747 -3 -1 0 
6847 5 0.478125 0.136481 0.113477 -11 10 8 
7170 6 0.0245524 0.224436 0.0938866 4 3 0 
5103 6 0.265123 0.200213 0.0795801 -6 8 3 
7696 6 0.247738 0.202413 0.0379505 -8 -3 -7 
7974 6 0.721041 0.19471 0.0778331 1 -4 -1 
7783 5 0.899538 0.183445 0.0682023 -6 0 -1 
7005 5 0.155365 0.225946 0.0618746 0 -2 3 
6605 5 0.272386 0.21348 0.0851502 2 1 0 
8373 5 0.429562 0.228882 0.0538628 1 1 0 
8879 6 0.444899 0.249933 0.0899485 9 -8 0 
8641 5 0.684018 0.231937 0.070554 2 10 -2 
8941 6 0.135559 0.334203 0.0772288 -1 0 -1 
5752 5 0.271294 0.316252 0.0935109 4 -8 -3 
8772 6 0.630392 0.332492 0.0207536 10 -6 2 
8121 5 0.973159 0.333912 0.116057 -5 2 5 
8270 6 0.1442 0.387186 0.0688067 -8 -6 -12 
6062 6 0.659973 0.373981 0.0464267 -4 4 2 
8041 6 0.346071 0.45922 0.0836148 -4 -4 2 
8736 5 0.958677 0.432133 0.0812064 -4 0 5 
6984 5 0.978008 0.429943 0.0710765 -1 1 1 
8024 6 0.136645 0.404497 0.0685977 -3 1 5 
5219 6 0.328364 0.475981 0.0724322 1 2 -2 
7916 5 0.383219 0.441942 0.038739 -3 0 3 
5031 6 0.874872 0.456675 0.0911864 0 0 1 
6009 6 0.833771 0.493084 0.100628 2 -6 -6 
8887 6 0.201244 0.519488 0.0929989 -2 -1 2 
8537 6 0.373778 0.492967 0.0894837 6 2 2 
7216 6 0.929206 0.519808 0.0689765 0 -7 4 
6308 6 0.464935 0.537722 0.106025 8 6 1 
8272 6 0.700375 0.511993 0.0744027 -3 -3 -3 
6413 6 0.858994 0.606342 0.11409 -5 5 3 
6093 5 0.335678 0.586173 0.0795218 0 -5 6 
7834 5 0.126958 0.598885 0.0852826 -5 -9 2 
6789 6 0.32356 0.601831 0.0857878 7 5 -8 
8126 5 0.840689 0.610617 0.0892617 4 -1 8 
6857 5 0.886929 0.601991 0.0446936 -10 4 -8 
7593 5 0.00844565 0.578447 0.0733825 8 0 6 
5365 5 0.0942261 0.611435 0.113041 -1 2 -2 
6003 6 0.50352 0.635878 0.0885732 2 -3 2 
7934 6 0.000534783 0.653848 0.0700152 -2 -3 -6 
5260 6 0.812748 0.646521 0.0408366 1 -13 3 
5377 5 0.219864 0.670445 0.0875743 -2 0 5 
5420 5 0.50756 0.657788 0.098197 2 -3 -3 
6019 5 0.802566 0.674456 0.090232 -2 1 0 
5211 5 0.759504 0.677832 0.101081 -6 -1 -4 
8863 5 0.547127 0.751967 0.0901317 -4 7 -3 
5301 6 0.460178 0.760632 0.082261 2 5 0 
7538 6 0.505963 0.787151 0.0695233 -1 0 3 
5142 5 0.884366 0.74239 0.0380394 -7 -10 -7 
7370 6 0.0923743 0.747995 0.0565724 0 -4 1 
7012 5 0.180441 0.766353 0.0818476 2 -5 -1 
6612 5 0.481453 0.742087 0.0801532 3 -2 1 
8128 6 0.931119 0.782214 0.053192 0 5 -1 
5391 6 0.0792663 0.810769 0.101965 -2 5 -3 
8214 6 0.628785 0.752193 0.0820931 2 -3 -2 
8305 5 0.812386 0.766195 0.100202 1 0 4 
5853 6 0.148154 0.754798 0.0642518 -5 -1 4 
8825 6 0.614782 0.826617 0.0392012 6 -4 -1 
5323 6 0.928511 0.783797 0.0755798 -5 0 0 
7201 6 0.0301083 0.842879 0.0433795 0 -2 0 
8897 6 0.196966 0.81214 0.0761131 -2 -13 -11 
7522 6 0.435687 0.842194 0.118713 -5 4 -11 
5538 5 0.475551 0.826821 0.0689015 2 -4 2 
7772 5 0.679619 0.786806 0.0992674 0 0 3 
7059 6 0.385191 0.855143 0.100769 3 -4 1 
5134 6 0.126711 0.857329 0.0567069 -4 -1 -2 
8842 6 0.334767 0.881339 0.107306 1 2 -3 
5744 6 0.808755 0.8866 0.0803144 -3 -1 -5 
5292 5 0.324373 0.955708 0.0556777 -1 0 6 
8426 6 0.808847 0.900032 0.0624695 2 3 0 
5651 6 0.137391 0.955168 0.0400907 5 -2 1 
6250 6 0.259395 0.972871 0.056125 7 12 0 
7510 6 0.0285728 0.00906634 0.0416453 3 3 3 
6465 5 0.763918 0.0187366 0.0992422 0 4 5 
8788 5 0.301912 0.011903 0.112642 3 -3 -1 
5191 5 0.908794 0.98543 0.0765678 8 -6 -4 
5530 6 0.579487 0.0525892 0.103733 6 0 -8 
8012 5 0.0256052 0.0373863 0.101149 -1 3 -5 
7168 5 0.252423 0.103248 0.117189 5 3 0 
8944 6 0.565792 0.0360189 0.110949 3 -13 2 
8287 5 0.956739 0.0880623 0.111702 -3 3 1 
6584 6 0.427253 0.110609 0.135623 -3 4 -2 
5939 5 0.567236 0.0634024 0.07664 -3 0 3 
6899 5 0.777466 0.109452 0.11181 -5 -1 -4 
5764 6 0.9457 0.0845881 0.123021 -7 3 2 
5739 5 0.127036 0.152005 0.149232 -2 6 -1 
8079 5 0.593189 0.139276 0.0825314 -2 0 4 
6287 5 0.999297 0.133942 0.090783 -3 6 6 
6554 6 0.790236 0.16327 0.117299 -5 -9 -4 
5262 6 0.244976 0.19985 0.109586 3 0 -1 
6435 5 0.856675 0.204976 0.0913031 -2 8 2 
7085 6 0.000989583 0.219787 0.110538 -2 2 2 
6255 5 0.203274 0.208193 0.141967 3 0 -1 
5708 6 0.552139 0.196075 0.0802923 2 0 -5 
7383 6 0.0944976 0.221544 0.076649 -2 0 3 
7972 5 0.0548659 0.25438 0.0782814 -3 2 4 
7326 6 0.0503938 0.288501 0.11268 -9 4 1 
5438 5 0.769818 0.266337 0.0939099 -4 -1 -9 
8406 5 0.261541 0.270826 0.1182 1 -2 12 
6303 6 0.282771 0.278866 0.116604 -4 -1 6 
6685 5 0.861019 0.309522 0.11599 0 1 2 
6499 5 0.926165 0.307138 0.0879488 2 0 6 
8920 6 0.151163 0.286755 0.141855 4 1 5 
8767 5 0.969576 0.350604 0.103768 0 1 -1 
7768 6 0.276383 0.367624 0.072044 -3 -4 4 
7556 6 0.83661 0.369549 0.126959 2 3 -1 
8389 6 0.290478 0.381268 0.099064 -4 -4 -8 
8637 6 0.379548 0.416117 0.149278 8 1 3 
5664 5 0.444474 0.420885 0.106662 -5 -6 0 
7385 5 0.123081 0.418583 0.0807159 0 9 -4 
7440 6 0.218376 0.434891 0.0972615 -3 0 3 
5396 5 0.638905 0.422152 0.083459 -7 -3 4 
8780 6 0.0403552 0.428457 0.0904723 1 -1 0 
5012 5 0.140847 0.478844 0.113724 -2 3 9 
8550 6 0.482823 0.478905 0.094858 -3 -5 -5 
5237 6 0.902409 0.479689 0.104496 -5 5 4 
6075 5 0.237575 0.526121 0.109479 4 10 3 
7598 6 0.312707 0.532787 0.13542 8 -5 4 
6480 6 0.996119 0.503206 0.0905845 4 -6 5 
8819 5 0.866471 0.524452 0.078824 1 2 -6 
7459 5 0.15464 0.554278 0.123652 3 -1 -1 
8924 6 0.379166 0.55081 0.0949612 12 6 0 
6442 6 0.479556 0.561854 0.11096 2 7 2 
5648 6 0.931736 0.581632 0.105382 -3 2 -5 
8462 5 0.0153959 0.603706 0.0934662 1 -1 6 
6812 5 0.62647 0.569971 0.0905266 3 6 1 
6961 6 0.573259 0.612182 0.109562 -5 3 8 
8558 5 0.838201 0.624988 0.10006 -6 -5 4 
6464 6 0.128957 0.652523 0.0794563 -5 10 4 
8002 6 0.111489 0.677135 0.0997417 2 8 2 
7434 6 0.604219 0.661129 0.12062 -6 6 -1 
6372 5 0.636369 0.691946 0.107936 -4 -3 -1 
7899 6 0.294979 0.691728 0.118009 5 2 -2 
8320 5 0.0733377 0.664161 0.112417 -4 -3 0 
8830 6 0.497877 0.704905 0.113177 1 -9 -3 
8418 6 0.510725 0.733169 0.0710476 2 4 1 
5647 5 0.00778826 0.747468 0.120222 5 -3 1 
7413 6 0.394909 0.742626 0.119497 -4 -2 6 
7239 5 0.561959 0.772981 0.103829 -2 0 -2 
8790 5 0.810262 0.810603 0.113091 4 -6 5 
6507 5 0.0622077 0.845344 0.125657 -5 -5 3 
5179 6 0.0752395 0.864917 0.0712336 -6 1 10 
5152 5 0.360773 0.886659 0.108827 1 -4 2 
7781 6 0.635573 0.87177 0.113366 0 -3 -1 
7407 5 0.388084 0.885849 0.0953365 3 0 -4 
7093 5 0.61556 0.849956 0.0891286 0 -3 -2 
8298 6 0.628764 0.891653 0.10507 -2 4 -1 
6211 6 0.370155 0.931737 0.109838 -1 -12 1 
5588 6 0.774226 0.907086 0.146703 6 0 1 
6973 6 0.332118 0.908623 0.0743033 1 -2 5 
8318 6 0.51739 0.972115 0.104901 -6 -6 -5 
6532 5 0.545537 0.0259217 0.0965998 2 -3 -4 
6916 6 0.195441 0.986497 0.11808 4 0 -4 
8625 6 0.377786 0.994332 0.100206 2 1 1 
8073 6 0.146185 0.00914967 0.140985 -9 5 1 
8724 6 0.499298 0.0144784 0.156129 -1 0 -2 
6066 6 0.467583 0.0418462 0.124636 1 -2 -1 
8991 5 0.465037 0.0972306 0.12351 -1 4 2 
6134 6 0.564849 0.0716991 0.110151 0 -7 3 
7704 6 0.701662 0.0440805 0.124636 2 -6 7 
6399 5 0.97194 0.0553233 0.117316 3 0 3 
7274 6 0.96748 0.0607226 0.124279 3 5 1 
6623 6 0.0527626 0.0825098 0.097761 8 1 -4 
6036 5 0.30543 0.0636723 0.126477 0 2 5 
8552 5 0.799704 0.0979762 0.0987219 0 0 8 
7394 6 0.758544 0.123685 0.173261 1 9 3 
5553 5 0.284211 0.181954 0.132896 3 -3 -2 
6165 6 0.110463 0.234261 0.100578 3 -1 -3 
6297 5 0.383028 0.227039 0.125709 2 3 4 
7190 5 0.436444 0.187402 0.141043 6 1 -1 
8046 6 0.0950542 0.207309 0.127052 -2 -5 8 
7144 5 0.208821 0.246803 0.0994366 -2 5 2 
6757 5 0.802296 0.226735 0.141146 6 2 -1 
8513 6 0.96453 0.241026 0.110281 -5 -12 -1 
8872 6 0.437031 0.272659 0.110874 -6 -2 -5 
6819 6 0.546959 0.252135 0.140291 11 5 -7 
8465 5 0.720918 0.259985 0.14183 -6 -1 3 
6814 5 0.963782 0.255269 0.136368 -4 5 -1 
7739 6 0.397392 0.297253 0.151777 -8 1 2 
6952 5 0.892138 0.313434 0.142675 -5 0 -2 
7489 6 0.965851 0.338532 0.118632 1 1 7 
5960 5 0.677347 0.385669 0.157291 4 -2 9 
8255 6 0.513854 0.352699 0.164126 0 2 4 
6260 5 0.701831 0.425405 0.10572 -2 2 -7 
5104 5 0.918561 0.396361 0.128698 -1 -1 4 
5175 5 0.138484 0.454527 0.137323 2 -5 5 
6797 6 0.704274 0.417448 0.121109 6 -6 -1 
5566 5 0.0943897 0.469303 0.126996 4 -2 6 
5440 6 0.888542 0.456138 0.164698 -10 -5 7 
5241 5 0.148328 0.545865 0.134354 2 -5 2 
7936 6 0.711472 0.517578 0.132644 -1 4 -6 
8658 5 0.708848 0.509266 0.164917 -9 3 7 
8312 5 0.637738 0.532223 0.158907 -3 -3 -9 
7384 6 0.62951 0.561936 0.100004 -3 4 -2 
8731 5 0.174015 0.60027 0.144992 1 2 7 
6945 5 0.572341 0.584199 0.117564 1 -10 7 
7363 5 0.562251 0.635879 0.127306 -4 0 0 
7617 6 0.0279019 0.592083 0.142503 -6 0 -3 
7661 6 0.461969 0.64054 0.070566 2 -2 7 
7102 5 0.232842 0.637258 0.134365 9 -4 3 
5120 5 0.222551 0.694438 0.136742 -2 1 -3 
6059 5 0.298591 0.704984 0.153054 -9 -4 -2 
6098 5 0.162654 0.724065 0.12587 0 -6 0 
5643 5 0.68216 0.741005 0.14703 -11 -3 1 
6145 6 0.671551 0.780184 0.168121 1 -1 1 
6971 6 0.951477 0.743259 0.0865268 4 -2 1 
7471 6 0.697167 0.757636 0.10889 -2 1 1 
6839 5 0.353463 0.792325 0.102365 6 -8 3 
7172 6 0.565851 0.814479 0.123376 2 0 2 
7826 5 0.652027 0.854781 0.143419 2 10 -3 
5909 5 0.453307 0.851016 0.168697 4 4 7 
8155 5 0.513006 0.846989 0.123409 0 1 5 
6139 6 0.636486 0.840995 0.12816 -4 -1 8 
7504 6 0.599784 0.846077 0.112833 9 -6 3 
8839 6 0.778378 0.871813 0.135009 2 -3 6 
6158 5 0.846733 0.848107 0.0928954 -1 1 -3 
5326 5 0.453287 0.862773 0.106862 2 1 0 
7589 5 0.885364 0.878921 0.138371 4 -4 -1 
8323 5 0.00456334 0.862783 0.117168 -8 -6 3 
6669 6 0.344299 0.878244 0.118431 6 1 3 
7273 5 0.410358 0.862003 0.12442 0 -2 -1 
7004 6 0.7556 0.901351 0.119446 6 -9 -4 
7740 6 0.0545691 0.975069 0.129363 -1 -5 1 
5932 5 0.405328 0.936333 0.112707 -4 0 5 
5169 6 0.620023 0.963197 0.125238 5 -2 8 
5743 6 0.338789 0.980489 0.140311 3 -5 5 
6804 6 0.624522 0.978738 0.122785 -1 -5 1 
7552 6 0.367284 0.997532 0.147124 1 3 0 
8965 5 0.455577 0.984245 0.120817 -6 0 1 
5148 5 0.239794 0.0479175 0.168883 -6 5 -3 
8806 6 0.854602 0.0606628 0.15108 5 -3 4 
5908 6 0.795898 0.091515 0.114472 -3 7 0 
8852 6 0.779021 0.048801 0.152704 0 1 1 
5416 5 0.3007 0.0995853 0.156928 -1 -2 -10 
7848 5 0.8821 0.0757955 0.153136 -5 -2 6 
8301 6 0.429598 0.0857553 0.177448 5 -1 -1 
6428 6 0.804543 0.101588 0.157944 -3 10 -1 
6143 6 0.193593 0.148159 0.183688 6 -2 3 
7125 5 0.0339583 0.153413 0.142088 0 0 -4 
8178 5 0.248899 0.208285 0.179237 0 -2 -5 
6418 5 0.753505 0.179203 0.154701 -1 1 -7 
7329 6 0.0809334 0.209027 0.160324 1 0 3 
5976 5 0.296697 0.23346 0.160694 -2 2 1 
5611 6 0.683706 0.227548 0.17056 -2 2 2 
8733 6 0.916363 0.186705 0.171318 6 2 -1 
6959 6 0.387813 0.225804 0.117606 -4 -1 4 
6870 5 0.950078 0.234687 0.152741 -1 -7 -1 
6058 6 0.0521591 0.283918 0.149877 4 7 6 
8129 5 0.519858 0.286535 0.129841 2 -4 3 
5334 5 0.205799 0.297487 0.13436 -3 4 7 
5696 6 0.394355 0.287016 0.171857 -11 -5 0 
5248 5 0.828069 0.302355 0.169886 -5 -1 -2 
5008 5 0.315438 0.339925 0.116744 4 0 1 
5129 5 0.782987 0.344749 0.182768 3 -1 -3 
5487 6 0.232732 0.35278 0.159421 1 4 10 
8088 6 0.343736 0.381443 0.152437 4 -1 1 
8138 5 0.3054 0.327785 0.138659 4 0 1 
6501 5 0.978586 0.360636 0.13672 -11 1 1 
8317 5 0.575878 0.376476 0.156878 0 -4 -5 
6500 6 0.678742 0.390761 0.166713 -8 13 3 
8785 5 0.981512 0.384657 0.129757 -2 5 -4 
5933 6 0.995559 0.38662 0.152558 -1 -3 7 
7193 5 0.264584 0.426705 0.144742 5 0 3 
6313 6 0.79158 0.451176 0.134283 3 3 -10 
5358 5 0.524377 0.474047 0.154653 0 -1 -5 
7531 5 0.960708 0.422877 0.178332 -2 -2 1 
6577 6 0.979923 0.460644 0.13817 1 0 -5 
5927 6 0.434676 0.512227 0.165411 1 -1 1 
5574 6 0.591016 0.452387 0.143498 -3 2 -1 
5941 5 0.225592 0.520009 0.160919 3 2 0 
5250 6 0.274064 0.501717 0.170126 -1 8 2 
5639 6 0.395674 0.521096 0.150962 1 3 -3 
6932 6 0.8961 0.55767 0.161451 5 0 0 
8975 6 0.610263 0.550356 0.115336 2 4 8 
7279 6 0.617387 0.608621 0.17801 0 -1 -4 
5494 5 0.789434 0.553192 0.156823 0 0 6 
6759 5 0.893097 0.561495 0.153897 1 6 2 
5482 5 0.593256 0.583546 0.158009 -2 2 0 
6842 6 0.624587 0.600149 0.156356 -5 1 5 
5466 6 0.457801 0.609496 0.139106 4 -9 3 
7473 5 0.120758 0.63023 0.146029 6 -1 1 
8388 6 0.509342 0.627043 0.186656 5 -9 -1 
8952 5 0.544701 0.662631 0.151916 2 -4 8 
7258 5 0.221854 0.632033 0.15213 9 1 6 
7120 6 0.688762 0.675519 0.169721 0 0 -2 
8030 5 0.140361 0.655541 0.155101 -3 3 0 
5368 6 0.814098 0.687502 0.149682 3 -1 -7 
5110 6 0.390774 0.744242 0.175898 -4 3 6 
8699 6 0.474239 0.744038 0.140951 2 -2 -5 
5496 6 0.297698 0.757572 0.151553 7 -2 0 
5010 5 0.204912 0.772244 0.150577 9 0 -7 
7707 5 0.599393 0.784661 0.152992 1 1 7 
5922 6 0.987756 0.759693 0.152663 -10 0 3 
8414 6 0.518399 0.820374 0.109383 0 3 10 
6650 6 0.619206 0.799906 0.135004 -18 -2 10 
7404 5 0.918047 0.815805 0.132454 2 -3 7 
7872 5 0.578513 0.887776 0.126333 2 3 8 
5168 6 0.1037 0.894261 0.134662 5 2 3 
6279 5 0.339973 0.899562 0.113054 -8 -7 -1 
6135 5 0.120116 0.905891 0.164684 2 3 5 
5596 6 0.125281 0.901286 0.127297 4 1 5 
8186 6 0.202776 0.903051 0.147012 1 3 13 
7778 6 0.232978 0.879364 0.153021 -3 5 10 
5240 6 0.574487 0.906 0.14871 8 0 -4 
8221 6 0.484915 0.887409 0.143851 -5 -4 -10 
6053 6 0.313573 0.940842 0.136375 8 5 -4 
6431 5 0.516016 0.933566 0.157984 3 3 6 
8038 5 0.814532 0.899729 0.14943 2 9 3 
8709 6 0.369748 0.994832 0.113575 -3 -4 7 
7333 5 0.345539 0.990933 0.164379 -1 2 3 
8651 5 0.887199 0.0150816 0.155642 0 -2 6 
6739 5 0.112199 0.0508453 0.13195 -3 0 -4 
6834 6 0.600713 0.0395455 0.171121 -9 -1 -1 
7360 5 0.485598 0.132108 0.175707 -1 -4 0 
5685 6 0.889708 0.0704016 0.170068 5 3 3 
8061 5 0.137889 0.140053 0.188569 5 1 1 
8869 5 0.853267 0.128189 0.145395 1 4 -5 
6539 5 0.234165 0.1514 0.174921 3 -4 -7 
6833 6 0.800041 0.149434 0.176237 -1 4 -1 
6467 5 0.145188 0.199656 0.156609 -6 3 -8 
5543 6 0.194429 0.232971 0.167007 -2 3 -1 
5157 5 0.776643 0.171875 0.177229 -9 -1 -1 
5873 6 0.799489 0.194858 0.150425 4 7 3 
6226 5 0.939069 0.203932 0.1982 -6 1 7 
6302 6 0.975375 0.204642 0.153643 7 0 3 
5840 5 0.587592 0.242933 0.213352 1 -11 14 
7295 6 0.0472313 0.253035 0.17081 4 5 -1 
6181 5 0.0870458 0.302277 0.143953 -2 -8 3 
5256 5 0.0784166 0.270166 0.196669 -2 -2 -4 
8499 6 0.326709 0.292253 0.192431 -3 0 1 
8593 5 0.889088 0.245149 0.166651 -8 -3 2 
7907 6 0.538116 0.295992 0.13495 1 -3 2 
5831 5 0.482238 0.34789 0.198442 -5 5 5 
8417 6 0.072611 0.361319 0.144223 -5 3 -1 
5979 5 0.00498581 0.396785 0.183816 0 5 2 
7348 5 0.905233 0.363006 0.163477 1 0 1 
8548 5 0.472274 0.377954 0.177045 -11 6 0 
5038 5 0.459018 0.365065 0.157592 4 2 1 
6069 6 0.575515 0.43761 0.117949 -1 -1 0 
8203 5 0.607538 0.386279 0.195153 -1 -2 0 
8613 6 0.0459534 0.420384 0.177491 4 -3 1 
5836 5 0.463158 0.459919 0.187664 -5 5 0 
7668 6 0.135243 0.445618 0.158073 -1 1 -3 
8980 5 0.919514 0.47632 0.201377 -2 1 -4 
7516 5 0.911588 0.445178 0.146922 5 -4 -4 
8299 6 0.0558796 0.486659 0.14889 4 -2 -3 
6293 5 0.475873 0.490108 0.173866 -5 3 1 
7051 5 0.794995 0.536336 0.199186 -6 -2 -3 
7606 6 0.124912 0.509856 0.200422 -3 1 3 
6715 6 0.418393 0.454362 0.142798 2 -3 3 
8442 6 0.54554 0.496481 0.19718 -7 -4 6 
8366 6 0.720584 0.500686 0.186484 -1 -8 0 
6138 6 0.718411 0.570595 0.166471 1 -2 8 
8540 5 0.0325875 0.532196 0.173195 -3 6 2 
8769 5 0.372909 0.568662 0.18286 1 7 -1 
8836 6 0.506034 0.512288 0.201654 2 3 -9 
7979 6 0.189561 0.638663 0.16289 -3 -6 -4 
8859 6 0.539085 0.593095 0.175828 6 -5 -2 
8797 6 0.657402 0.668065 0.222602 0 2 -5 
8508 5 0.509518 0.718856 0.139709 -6 -7 -3 
6579 6 0.738008 0.703244 0.172818 6 3 0 
5833 5 0.940593 0.710461 0.171967 -1 5 -4 
5299 6 0.277528 0.760863 0.156663 4 -1 0 
5677 6 0.838993 0.756669 0.172973 5 -1 -6 
5683 5 0.209998 0.750756 0.177589 0 1 -1 
5510 6 0.288355 0.814849 0.153899 1 -1 0 
7118 5 0.678375 0.772442 0.158736 5 2 -1 
7705 6 0.280678 0.860261 0.163496 2 9 2 
5649 5 0.0837114 0.836654 0.113577 -9 3 -4 
5716 6 0.114066 0.845235 0.161331 0 5 -8 
8031 5 0.746565 0.806962 0.178742 -2 4 0 
8137 5 0.709636 0.827931 0.188939 1 -8 6 
6972 5 0.776904 0.894499 0.17578 -4 -1 1 
8538 5 0.197047 0.912104 0.153213 -2 6 1 
7999 5 0.274321 0.913598 0.184193 -4 -5 -2 
7585 6 0.228018 0.97975 0.172228 5 10 7 
5641 5 0.60137 0.923681 0.181537 -2 -2 -12 
8152 6 0.605092 0.980418 0.171078 0 2 0 
6461 6 0.806459 0.9736 0.16644 -4 -5 -4 
7254 5 0.621589 0.0358957 0.149728 -1 0 6 
5015 5 0.806819 0.0210653 0.17164 -2 0 -1 
6909 6 0.000992037 0.00202272 0.207004 -6 2 -1 
5745 5 0.313959 0.0335925 0.191391 -6 1 -6 
8094 6 0.512837 0.0935688 0.163415 2 -1 3 
6029 5 0.939966 0.0939964 0.176416 -1 9 2 
6249 6 0.138783 0.109813 0.191384 -7 5 -8 
8445 5 0.296715 0.107515 0.215467 -1 4 -4 
7287 5 0.535746 0.109498 0.219972 1 2 2 
5613 5 0.153694 0.158111 0.172631 1 9 1 
8889 6 0.883048 0.133264 0.180134 -2 0 1 
6663 6 0.167445 0.167715 0.228575 2 -5 3 
6008 5 0.646206 0.181926 0.156804 -4 -3 -11 
8720 6 0.093386 0.221339 0.178317 -5 -2 11 
5687 6 0.233766 0.228842 0.185861 7 3 0 
8130 5 0.330539 0.183096 0.209104 5 -2 -5 
6038 6 0.174002 0.239758 0.196184 0 -3 -8 
8374 6 0.610479 0.225183 0.199918 5 0 2 
5156 5 0.963592 0.248299 0.192837 3 3 4 
8773 6 0.269345 0.244299 0.188128 -2 2 5 
6828 5 0.711633 0.324322 0.171395 -3 2 0 
7285 5 0.802835 0.259716 0.195804 4 1 0 
8706 5 0.214398 0.310539 0.21979 8 -2 4 
8288 5 0.339436 0.311493 0.201919 0 -7 6 
8468 5 0.293039 0.314465 0.145641 -5 4 -1 
6311 6 0.454949 0.31038 0.199827 -9 3 -6 
5001 6 0.945039 0.324342 0.151004 -3 -4 2 
6809 5 0.657724 0.358768 0.167127 2 3 4 
5475 5 0.750926 0.341687 0.209455 4 7 9 
8565 6 0.103213 0.388689 0.188824 -3 4 3 
6548 6 0.578695 0.38428 0.164079 0 5 1 
5455 6 0.13993 0.396642 0.206434 -3 1 -6 
8484 6 0.377089 0.427142 0.214202 -2 -1 1 
7387 5 0.858239 0.380802 0.191552 0 3 0 
6636 5 0.208298 0.454695 0.249302 1 1 -6 
5931 5 0.673105 0.464481 0.173527 2 1 -5 
6242 5 0.857957 0.454515 0.185492 4 1 -2 
7722 6 0.086762 0.496826 0.166481 -2 -3 -2 
8043 5 0.814025 0.462127 0.221631 0 -1 0 
8837 5 0.125254 0.547789 0.221464 4 6 -2 
8868 5 0.420237 0.523047 0.221348 0 3 8 
8481 5 0.565333 0.536724 0.211927 -7 7 -8 
7204 6 0.908613 0.503963 0.186683 5 -2 1 
6076 5 0.373376 0.546003 0.219261 -3 2 2 
8021 5 0.0559147 0.575089 0.183275 -1 1 -1 
5133 5 0.246353 0.596377 0.206641 4 2 2 
6412 5 0.250867 0.552625 0.198825 3 -1 8 
8746 5 0.300269 0.593384 0.198862 0 4 -2 
8971 5 0.771111 0.567943 0.188265 -6 -1 0 
7164 6 0.655519 0.586059 0.138274 6 -1 -5 
5731 5 0.239398 0.619169 0.207807 -2 -1 4 
6995 6 0.387157 0.589722 0.155422 0 5 5 
6086 6 0.639884 0.626948 0.253354 3 2 -9 
5393 6 0.694336 0.669985 0.192657 1 6 2 
8850 5 0.857713 0.619259 0.176201 4 3 2 
7588 6 0.909525 0.62752 0.15248 -2 1 5 