ITEM: TIMESTEP
20000000
ITEM: NUMBER OF ATOMS
9000
ITEM: BOX BOUNDS pp pp pp
-75 75
-75 75
-75 75
ITEM: ATOMS id type xs ys zs ix iy iz 
7353 6 0.959674 0.0176114 0.00605333 2 1 3 
7797 5 0.986304 0.0162761 0.981348 -3 0 -2 
7518 6 0.979622 0.00804999 0.0161113 -1 -6 2 
5172 6 0.554478 0.0385454 0.0159228 -1 0 0 
5141 6 0.419622 0.0660291 0.0110922 -2 1 0 
6671 5 0.834961 0.057769 0.0211571 0 1 2 
5593 6 0.251419 0.0641063 0.00126183 0 2 -4 
6843 5 0.410015 0.100845 0.996746 3 -1 -2 
6151 5 0.485548 0.114525 0.0246945 3 -3 1 
5108 5 0.0359251 0.155539 0.997774 4 2 0 
7068 6 0.504893 0.131461 0.0232359 -3 -5 1 
5628 5 0.913233 0.0998317 0.0273614 -1 1 -1 
7926 5 0.910389 0.140251 0.0201367 3 1 3 
5535 5 0.00398481 0.166666 0.000557546 -5 0 5 
5336 6 0.347621 0.122104 0.00513528 -3 2 1 
5639 6 0.39371 0.135842 0.00283342 -4 1 0 
6834 6 0.388603 0.162084 0.0179949 -6 5 -1 
5177 6 0.768856 0.135684 0.0138512 -5 -7 -4 
5650 6 0.260199 0.236831 0.0393399 3 1 3 
8778 6 0.66908 0.192639 0.981874 -4 6 0 
6212 5 0.408931 0.260073 0.0426479 -2 -8 2 
8808 5 0.14798 0.217228 0.991387 -3 -1 -2 
5961 5 0.40056 0.194536 0.0252269 -3 -1 0 
7287 6 0.92177 0.253536 0.990092 0 8 4 
7230 5 0.111409 0.267153 0.989413 5 1 4 
7385 5 0.178088 0.259317 0.0486722 -3 3 1 
6397 5 0.74657 0.298449 0.0139257 1 1 -1 
8349 6 0.327643 0.296746 0.963915 -2 -4 -5 
7679 6 0.261064 0.350794 0.998674 2 -1 4 
6009 6 0.964956 0.332325 0.0276494 1 -5 -2 
5769 5 0.0911039 0.349138 0.023376 -2 -2 -2 
5479 6 0.321147 0.33544 0.975816 4 1 3 
5027 6 0.652305 0.394517 0.0168016 -3 -7 -6 
7508 6 0.358301 0.379724 0.977575 0 -1 0 
7352 6 0.522309 0.384895 0.939742 0 -7 -1 
8559 6 0.644861 0.439351 0.0094246 3 0 -2 
7705 6 0.688246 0.409111 0.986123 3 6 3 
5531 6 0.74493 0.429018 0.999999 2 4 0 
7136 5 0.322176 0.407782 0.987457 1 4 6 
8437 6 0.585333 0.44875 0.996839 -4 2 2 
7014 6 0.738071 0.491361 0.991105 -3 1 -1 
6922 5 0.953667 0.491934 0.0239694 -5 1 -2 
8686 6 0.961086 0.45426 0.00319202 -3 -1 0 
8296 6 0.73769 0.50491 0.999632 -2 -1 2 
6604 6 0.997132 0.591938 0.0353313 -1 -1 -2 
6171 6 0.383281 0.597334 0.0500871 4 2 0 
6902 6 0.588632 0.572902 0.0178721 -1 -2 -3 
7702 5 0.164224 0.603815 0.0219972 -3 0 3 
8144 5 0.923421 0.632298 0.016854 1 1 -3 
7845 6 0.328974 0.645444 0.986445 -4 1 -2 
7859 5 0.0350444 0.622376 0.0297022 -3 3 2 
7173 6 0.828564 0.707839 0.0207097 -3 0 -2 
8840 6 0.518887 0.697316 0.0245423 0 0 1 
8547 5 0.822277 0.705137 0.979776 3 -1 1 
6216 5 0.141424 0.71821 1.00035 2 2 -3 
7870 6 0.975571 0.764463 0.0208411 0 3 -3 
6810 6 0.188133 0.737134 0.985097 0 -3 0 
6701 6 0.418019 0.740139 0.013536 -4 -1 0 
7431 6 0.668928 0.816426 0.0182316 -2 2 1 
7344 6 0.667831 0.794979 0.0436039 -3 -1 0 
7296 6 0.970169 0.768122 0.00817561 -4 -1 -1 
6578 5 0.253945 0.778503 0.00693303 3 0 -3 
5656 5 0.373018 0.80985 0.995695 0 0 -2 
5545 6 0.0663168 0.824281 0.0104433 4 0 1 
8504 6 0.609334 0.83201 0.00293804 3 0 -3 
5208 6 0.0271806 0.891739 0.0508273 0 1 -1 
5781 6 0.487732 0.840888 0.0171878 -4 -4 4 
7660 6 0.675989 0.847559 0.0219372 3 1 2 
5107 5 0.981926 0.867263 0.99767 0 -1 0 
6030 5 0.701948 0.887279 0.994771 -4 2 1 
8842 6 0.903874 0.833416 0.0352776 1 -3 3 
8401 5 0.928592 0.830755 -0.000158529 3 -2 -2 
7327 6 0.0396301 0.944451 0.00405712 2 0 -3 
8011 6 0.288375 0.918641 0.0417828 -2 2 2 
6855 5 0.705149 0.904164 0.965587 2 3 -5 
7564 6 0.851654 0.897403 0.978923 1 1 0 
7055 5 0.93797 0.968253 0.00766216 -3 -2 5 
7388 6 0.0458225 0.952393 0.000130458 -2 3 1 
8692 5 0.220361 0.976979 0.983322 1 -4 -3 
6748 5 0.408648 0.919734 0.0384068 -2 -7 11 
5674 6 0.865076 0.951864 0.0120841 -1 -2 -3 
5661 5 0.404346 0.0026639 0.962337 1 1 0 
7778 6 0.204611 0.0317318 0.0349649 1 4 0 
8669 6 0.846581 -0.000465226 0.0640589 1 3 0 
6656 5 0.627349 0.0671934 0.049277 0 0 -1 
7305 6 0.647902 0.0764318 0.0425948 4 2 2 
6175 6 0.028385 0.0566593 0.0334245 2 3 0 
6715 5 0.130377 0.0864715 0.0327319 -1 2 4 
7467 5 0.47779 0.0525894 0.0214755 2 0 -3 
8663 5 0.0625355 0.070102 0.0476942 5 -1 3 
8406 6 0.440352 0.114097 0.0221713 0 -2 -1 
7946 5 0.905811 0.102913 0.0542051 1 2 0 
7458 6 0.065286 0.128747 0.000113811 1 -3 0 
7874 5 0.826914 0.152855 0.984632 -3 -1 -3 
8512 6 0.701907 0.124737 0.0443979 -2 -4 2 
6706 6 0.831297 0.147204 0.00542947 -3 2 -2 
6306 6 0.846463 0.180241 0.029167 -1 3 2 
5259 6 0.950074 0.182401 0.0588226 1 -1 -2 
6132 5 0.962017 0.204174 0.0368664 0 2 -3 
7584 5 0.369485 0.179049 0.0627558 -5 2 0 
6979 6 0.41069 0.217605 0.0391201 6 1 2 
5850 5 0.644901 0.196989 0.0500473 -2 -3 -4 
6253 5 0.826239 0.212906 0.0172868 -1 -3 -3 
7855 5 0.663862 0.217562 0.0460736 0 0 3 
8709 5 0.0578496 0.258613 0.0283399 0 3 3 
5541 5 0.330906 0.288897 0.0332967 2 -7 1 
6359 5 0.297526 0.297003 0.0536883 -1 1 1 
5983 5 0.368385 0.282279 0.0278503 -1 1 2 
6308 6 0.988244 0.281063 0.026348 0 -1 -3 
6040 6 0.0629447 0.315965 0.0232942 -2 -1 -1 
5127 5 0.269293 0.352701 0.0327634 3 0 2 
7906 6 0.49629 0.356789 0.0566882 1 1 2 
8711 5 0.649046 0.326741 0.0360541 -2 -1 -4 
5658 6 0.513005 0.351527 0.0625575 0 4 1 
6548 5 0.628676 0.356895 0.0268354 0 1 3 
7275 5 0.90916 0.361704 0.0624754 -4 -7 -3 
7433 6 0.97434 0.429342 0.0304853 -1 2 0 
5633 6 0.648651 0.410338 0.0448242 -1 1 1 
8847 6 0.69338 0.435541 0.0691739 -3 0 -3 
6751 5 0.875258 0.446453 0.0661576 1 -2 2 
8470 5 0.147085 0.43711 0.0100742 4 1 3 
5533 5 0.977564 0.488777 0.0470376 -5 1 -1 
7936 6 0.412128 0.484628 0.00738392 -3 4 2 
6495 5 0.47639 0.446766 0.0574141 2 -1 -4 
6883 6 0.105526 0.512786 0.0287352 3 -1 0 
8991 5 0.353105 0.536084 0.0527215 -4 -4 -2 
8155 6 0.863679 0.522883 0.0264873 0 -1 0 
5268 5 0.357906 0.548276 0.0326427 -2 -1 -1 
8396 6 0.358022 0.536127 0.0251525 -2 -2 -5 
8761 6 0.619733 0.550284 0.0282996 -3 -2 2 
6831 6 0.345932 0.572141 0.0434433 0 1 6 
6315 5 0.479967 0.605393 0.0560894 -3 3 -3 
5911 6 0.244455 0.694402 0.0138676 0 -1 4 
6373 6 0.729855 0.630455 0.0324639 1 1 -1 
7973 5 0.55626 0.661296 0.0595793 1 -2 -3 
8710 6 0.588182 0.664741 0.0331387 -1 0 -1 
7323 6 0.639189 0.664855 0.0473675 1 -1 -1 
6120 5 0.835012 0.71917 0.00940326 0 4 1 
6202 6 0.988652 0.698668 0.0427434 -2 -1 -1 
8399 5 0.189705 0.696903 0.0399534 -2 -2 0 
8239 6 0.388678 0.706333 0.0245448 1 -3 2 
5349 6 0.789763 0.710203 0.00905224 -1 -1 -5 
6338 6 0.097066 0.724738 0.0366156 -2 1 3 
6689 5 0.483663 0.750761 0.0675014 -4 -5 1 
7709 6 0.296464 0.799568 0.0043434 -1 -1 1 
7017 6 0.601811 0.787096 0.0178808 0 -6 -2 
8623 6 0.827742 0.772189 0.0227824 0 -2 -3 
8500 5 0.236816 0.771925 0.000244014 3 -4 2 
8915 5 0.87116 0.836149 0.0340228 3 0 4 
8696 5 0.415713 0.798869 0.0445114 2 -4 1 
7606 5 0.485656 0.856401 0.0208675 5 4 -2 
5164 5 0.130317 0.837093 0.0235378 2 1 3 
8843 5 0.0969857 0.850583 0.0349014 -6 1 -5 
6595 5 0.687991 0.893551 0.0627116 -3 -3 3 
8309 6 0.752124 0.911363 0.0423468 1 0 -1 
7999 5 0.576704 0.929846 0.0309159 4 -2 0 
6478 5 0.0749887 0.888806 0.0189545 0 1 3 
6687 6 0.0350976 0.918265 0.087193 -2 -1 -2 
8798 5 0.086312 0.95788 0.0533882 -2 -2 -6 
6935 5 0.186855 0.927445 0.0173293 -3 -1 -1 
5059 6 0.146815 0.940928 0.0215609 1 -3 3 
8028 6 0.399026 0.955647 0.0442123 -1 0 -1 
7662 6 0.454874 0.952351 0.0183849 -2 5 0 
7671 6 0.520091 0.93142 0.0233567 1 -2 4 
7434 6 0.406437 0.970761 0.0135216 3 4 7 
6428 5 0.798271 0.00677918 0.0493465 -3 5 6 
8949 6 0.284144 0.00696919 0.0323308 1 1 1 
5428 5 0.265469 0.99443 0.00769691 2 2 -2 
7282 6 0.232576 0.0547293 0.0577796 -1 -4 0 
8238 6 0.51514 0.0478068 0.0719759 3 0 0 
8084 6 0.558049 0.00874934 0.0162632 -1 -1 3 
5432 6 0.294439 0.0581418 0.0597871 -3 2 1 
5865 6 0.348401 0.112364 0.0456629 5 1 5 
7927 6 0.299346 0.0624699 0.0406787 -2 -3 -1 
5415 5 0.580815 0.119536 0.0568219 2 1 -3 
7032 5 0.15666 0.125176 0.0949042 -2 1 -2 
6512 5 0.479131 0.140009 0.0431577 1 -1 -4 
8325 6 0.975635 0.133262 0.0467996 -1 -1 -2 
7984 5 0.446048 0.165565 0.0716392 -1 3 3 
6742 6 0.326498 0.148609 0.0845831 7 2 3 
5552 5 0.328432 0.142302 0.0196638 -2 4 0 
8975 5 0.960937 0.155792 0.0340699 -1 1 -3 
6820 5 0.727057 0.225524 0.0850212 -1 -1 -1 
5025 5 0.933021 0.218301 0.0502233 -5 2 4 
6103 5 0.983698 0.185932 0.0884143 5 0 -2 
5512 5 0.188283 0.216697 0.0271664 2 -1 -2 
8934 6 0.234547 0.240539 0.0700167 2 2 -2 
6879 5 0.90126 0.261346 0.0602033 -1 1 -1 
8230 5 0.356818 0.263999 0.00606883 -7 3 6 
5373 6 0.268743 0.282055 0.0976858 -5 4 3 
6745 6 0.879654 0.302715 0.0345434 -1 2 4 
5647 5 0.580826 0.28626 0.0648682 -3 -1 4 
7677 6 0.593148 0.337278 0.0535963 -1 -2 -1 
5523 5 0.631886 0.333354 0.0964508 5 2 0 
7965 5 0.952164 0.316137 0.063819 5 1 -3 
8897 6 0.245108 0.309231 0.0364915 -2 -1 3 
6849 5 0.573581 0.357813 0.0408415 -1 2 1 
7403 6 0.67484 0.37279 0.0585952 5 0 0 
5333 6 0.0556334 0.371314 0.0588886 0 -2 1 
6283 5 0.36871 0.368433 0.0580961 -2 7 1 
5337 5 0.83264 0.404599 0.0802794 -1 1 4 
5023 5 0.108041 0.395027 0.0271446 -2 5 -1 
7128 6 0.383433 0.406425 0.0476393 -2 4 -3 
6697 6 0.935638 0.42444 0.0667795 -2 -2 2 
7862 6 0.0406306 0.431025 0.0497937 6 2 -4 
7656 6 0.0559195 0.444213 0.0490637 -1 -1 1 
5946 6 0.323216 0.422062 0.065817 -1 2 3 
8254 5 0.414194 0.407815 0.040239 -2 1 2 
7026 6 0.944454 0.457268 0.0358279 -6 3 -6 
7842 6 0.141155 0.489075 0.0305259 4 -6 -4 
8454 5 0.219789 0.483322 0.0417185 1 -1 -2 
6304 6 0.768585 0.48496 0.0292035 6 0 -4 
8607 5 0.76542 0.495598 0.0928685 5 -1 2 
6918 6 0.9624 0.493952 0.058471 -1 1 2 
6142 5 0.163087 0.554425 0.0830475 -1 -3 -1 
7226 6 0.175016 0.517141 0.0798621 -3 1 0 
7186 6 0.803312 0.519002 0.0237146 -5 2 4 
6600 6 0.237516 0.591119 0.0635886 -2 -2 7 
6203 5 0.323431 0.585355 0.0471533 2 4 5 
5701 5 0.442978 0.579388 0.0476027 6 0 2 
6113 5 0.409055 0.579868 0.0667199 4 2 2 
5263 5 0.555666 0.573846 0.0823747 -6 3 3 
5476 5 0.784996 0.595666 0.0513096 0 2 -2 
6447 6 0.28787 0.631585 -0.00127281 1 1 1 
5887 5 0.447052 0.629125 0.0449251 4 -7 3 
5846 5 0.693082 0.62948 0.0590738 -2 2 7 
6508 6 0.320606 0.634157 0.0199728 3 -2 3 
5178 6 0.66861 0.685319 0.996651 -3 2 6 
5021 5 0.913755 0.653605 0.0333691 1 -1 0 
6466 5 0.695269 0.68554 0.0871786 3 4 2 
6499 6 0.731901 0.681194 0.0738419 3 4 3 
7738 5 0.367753 0.780434 0.0679613 1 0 1 
8276 5 0.525757 0.747369 0.0698815 3 -1 -5 
6366 6 0.820823 0.770091 0.035209 3 -2 -4 
6377 6 0.510854 0.751961 0.0644669 2 3 1 
7825 6 0.979655 0.75358 0.0765373 -6 0 0 
5399 6 0.680844 0.784847 0.0596612 -2 2 0 
8947 6 0.115971 0.780938 0.035827 1 0 0 
5267 5 0.792309 0.826104 0.0536246 -1 3 3 
7505 5 0.372565 0.858087 0.0752712 -2 -3 0 
6637 5 0.868943 0.856072 0.0814981 -4 0 3 
5795 5 0.128747 0.910931 0.0575717 -1 3 1 
5706 5 0.701948 0.916098 0.0417317 -3 -1 -1 
7181 6 0.894779 0.895744 0.0468821 1 -5 1 
5148 6 0.390056 0.933518 0.052047 3 -2 1 
6876 6 0.247321 0.994519 0.0305672 0 1 -1 
7426 6 0.441409 0.973088 0.0602018 -1 3 -3 
5838 5 0.572427 0.942636 0.0538301 -3 -4 1 
5065 5 0.635838 0.955747 0.0245552 -1 0 -1 
5827 5 0.511514 0.125472 0.0792033 -4 -7 -5 
7178 5 0.591999 0.154099 0.0720734 5 4 -7 
8466 5 0.37959 0.157384 0.0305798 -1 1 1 
8918 6 0.871352 0.191575 0.112789 -4 0 5 
6484 6 0.127063 0.181062 0.109191 1 -4 1 
8347 6 0.62716 0.170252 0.0560926 -4 0 -2 
7011 6 0.871175 0.12438 0.100811 -2 1 7 
6854 6 0.418187 0.255968 0.09695 -1 2 0 
8368 5 0.692232 0.251024 0.0728847 1 1 2 
5970 5 0.99892 0.272465 0.104533 1 2 -2 
5381 5 0.508955 0.283727 0.0689231 -3 -3 -5 
7050 5 0.520203 0.296033 0.0626255 1 -3 3 
8900 5 0.5273 0.321412 0.0979734 0 -2 -2 
5240 6 0.313532 0.337266 0.100528 -5 -2 1 
7107 6 0.79114 0.304864 0.0806665 2 5 5 
7560 6 0.133688 0.376692 0.0761496 -1 -2 1 
8905 5 0.712223 0.38059 0.0760915 2 4 -2 
8336 5 0.829428 0.375133 0.0528188 3 0 3 
5835 6 0.0119333 0.421935 0.0984697 -5 2 2 
8027 5 0.535555 0.362567 0.0839798 3 -7 0 
5530 6 0.850135 0.378889 0.0586437 -1 1 -1 
5622 5 0.156014 0.433775 0.107171 5 1 5 
8493 5 0.210301 0.400871 0.0378518 2 1 -4 
6943 5 0.805545 0.460369 0.0867668 3 -5 1 
7807 5 0.828685 0.472815 0.0758797 1 -2 1 
6585 5 0.68383 0.482704 0.0855997 1 4 2 
5031 6 0.78265 0.46488 0.0619302 7 -1 -1 
6195 5 0.524576 0.474491 0.0753193 5 0 4 
6956 5 0.0271802 0.53244 0.0597837 0 0 1 
8312 5 0.627813 0.537912 0.0195647 -1 4 0 
7235 6 0.723334 0.590258 0.0819386 -2 1 5 
8541 5 0.126243 0.611799 0.0673751 -3 6 9 
7534 5 0.305874 0.615482 0.052017 1 -5 -2 
5045 6 0.443262 0.629299 0.116908 2 1 0 
8965 5 0.448121 0.621078 0.0646213 -1 0 2 
8390 5 0.941036 0.633355 0.076379 -1 0 -5 
6266 5 0.239833 0.632573 0.0441962 0 -3 -4 
6774 6 0.64455 0.680179 0.0984438 -4 -1 5 
8496 6 0.895974 0.707404 0.106887 -4 1 -2 
7877 6 0.371218 0.702552 0.0826269 1 1 2 
5293 6 0.0883329 0.729749 0.0741868 2 -3 7 
8247 6 0.110212 0.752658 0.127195 -2 -2 2 
6196 6 0.299009 0.725299 0.0887354 7 -2 -1 
8724 6 0.294617 0.727505 0.0335158 -1 3 -3 
8867 5 0.844336 0.736023 0.0978269 -3 4 -4 
7427 6 0.135882 0.735734 0.10002 5 2 6 
8932 5 0.264581 0.747608 0.0930607 -3 -5 -3 
5104 6 0.48252 0.757101 0.0953302 4 -2 3 
5429 5 0.470064 0.764419 0.105924 3 -1 5 
5666 5 0.682979 0.773224 0.0760195 -4 0 -7 
7190 6 0.935659 0.75789 0.0502309 0 0 -1 
5056 6 0.269678 0.811454 0.0745425 2 -6 1 
8351 6 0.239981 0.872327 0.0859886 1 0 -4 
7813 6 0.367397 0.923254 0.0467642 -1 -3 -1 
7321 5 0.424864 0.893452 0.101666 3 1 1 
8088 6 0.611047 0.911145 0.0654782 0 2 -2 
6546 6 0.679789 0.894929 0.0634086 1 0 -4 
6682 5 0.788939 0.876736 0.0416588 -4 -2 6 
7424 5 0.669527 0.899705 0.123775 2 -3 -3 
8821 5 0.8439 0.903031 0.0913521 3 0 2 
8475 6 0.781559 0.959566 0.0824833 -3 -1 1 
8251 6 0.306685 0.974129 0.096364 1 -3 0 
8898 6 0.245594 0.994225 0.103349 2 2 -2 
8317 5 0.914354 0.0201054 0.104764 -1 2 2 
5219 5 0.273793 0.0845115 0.0994643 -3 -2 1 
5365 5 0.277234 0.111286 0.0591362 1 3 -4 
5672 6 0.642003 0.0865487 0.116936 -3 -7 4 
8089 5 0.896262 0.0726803 0.115436 2 -4 -4 
7953 6 0.324959 0.103494 0.084045 4 3 1 
7416 5 0.284515 0.0909298 0.0983742 2 -2 3 
5797 6 0.608711 0.0916484 0.146198 -1 -1 -6 
6750 5 0.823986 0.11047 0.0859187 4 3 -1 
7724 6 0.499859 0.159848 0.100235 2 0 3 
5394 5 0.813511 0.15836 0.091791 0 -2 6 
6696 5 0.969466 0.176797 0.105389 1 6 -1 
5325 5 0.185993 0.222324 0.0868846 3 3 -3 
6394 6 0.495049 0.219488 0.0854641 4 -2 3 
8040 6 0.784849 0.1377 0.0984742 -5 1 0 
7269 5 0.0276521 0.222067 0.0949074 4 -1 -5 
8289 5 0.111357 0.260308 0.0907295 0 0 2 
7338 5 0.180752 0.277764 0.136471 -2 2 0 
6771 6 0.62735 0.245187 0.110674 3 -2 0 
6383 6 0.210194 0.30183 0.129081 1 -2 2 
8904 6 0.382991 0.301365 0.101474 -1 -1 0 
5913 6 0.11517 0.362295 0.126746 3 10 1 
5011 6 0.664117 0.370532 0.0594563 1 -5 1 
5728 5 0.813281 0.378039 0.103479 -3 1 -1 
8308 6 0.870153 0.386959 0.0860835 2 3 1 
8037 6 0.276019 0.416126 0.117582 0 -1 3 
7785 6 0.519491 0.414073 0.0901615 -2 0 0 
5757 6 0.59576 0.441996 0.107008 -2 3 1 
8747 6 0.631396 0.416115 0.141363 -2 0 -2 
5993 5 0.685766 0.436051 0.0970325 0 2 3 
7255 5 0.0997693 0.454897 0.113316 4 3 -4 
7795 6 0.480057 0.469022 0.104559 -2 -1 -1 
8482 5 0.826972 0.430971 0.0812739 -2 5 -1 
5147 6 0.448535 0.472879 0.128779 2 4 -1 
5471 5 0.00560665 0.478041 0.105465 1 -2 0 
6726 5 0.337334 0.462307 0.0860279 -4 1 2 
8417 5 0.288435 0.479555 0.125046 2 3 5 
8340 5 0.717961 0.475615 0.114128 3 -2 -3 
8077 6 0.100594 0.527645 0.117988 -2 -3 1 
8558 6 0.222428 0.54198 0.11652 0 -1 2 
6325 6 0.876901 0.603699 0.0911202 1 -2 3 
7769 6 0.884708 0.550087 0.124848 4 0 -4 
5744 5 0.466528 0.638966 0.0697575 2 0 0 
7297 6 0.622862 0.573718 0.132278 4 3 -4 
7527 5 0.105733 0.620289 0.0932918 1 2 -5 
8003 5 0.609327 0.63944 0.0701245 -3 1 0 
6121 6 0.534269 0.710229 0.122896 -3 -3 -3 
8152 6 0.928029 0.686955 0.121827 3 3 4 
8703 6 0.0499675 0.737177 0.146237 -5 1 2 
6038 6 0.660656 0.722125 0.0610027 3 -2 3 
5854 5 0.937961 0.759392 0.0980564 -6 5 -6 
7159 5 0.176931 0.791406 0.0864779 -1 0 -3 
6892 5 0.371383 0.797976 0.112498 0 3 1 
8419 6 0.294376 0.795089 0.110513 -7 -4 3 
7245 6 0.216956 0.827465 0.101684 -3 -2 -3 
6864 5 0.461959 0.883898 0.116111 -4 4 5 
6502 5 0.255044 0.857575 0.0904309 9 -5 0 
7141 6 0.37022 0.88264 0.070017 -1 4 -4 
8958 6 0.164954 0.879259 0.070538 1 -5 -2 
8291 5 0.316326 0.897128 0.0813062 2 3 0 
7903 6 0.827381 0.904233 0.095916 -4 0 -5 
6970 5 0.613352 0.944744 0.0662941 0 -1 -1 
8096 6 0.77237 0.94934 0.079076 8 -2 -3 
7479 5 0.454633 0.976698 0.115455 6 5 -2 
5497 6 0.781982 0.972181 0.0818005 -1 -6 -2 
6537 5 0.876648 0.978875 0.0857456 -3 -4 1 
6924 6 0.0715535 0.971991 0.117574 2 -1 3 
7340 5 0.269482 0.964513 0.100656 2 3 1 
5181 5 0.63377 0.98302 0.11978 -1 -1 3 
6300 6 0.894446 0.982368 0.0965039 -3 -2 1 
7267 5 0.210852 0.0117173 0.114176 1 0 1 
6093 6 0.620771 0.0367455 0.13435 3 -1 -3 
5341 6 0.220853 0.0547802 0.148192 3 2 6 
5625 5 0.476051 0.0234675 0.135274 5 2 1 
7517 6 0.775977 0.0527297 0.131446 -6 -5 1 
8719 5 0.821347 0.0739287 0.0972989 -5 2 3 
7332 6 0.498798 0.0818161 0.133455 3 1 -5 
5615 6 0.493463 0.110317 0.119876 -1 -3 2 
5454 6 0.626004 0.104918 0.0974862 -5 -1 -3 
6551 6 0.12068 0.152569 0.112411 -2 2 3 
7844 6 0.674976 0.114623 0.109853 -5 3 -5 
8440 5 0.732209 0.129929 0.152476 -5 0 4 
8386 6 0.969015 0.182785 0.122289 -5 3 1 
6470 5 0.237025 0.172787 0.144888 -6 -1 -5 
8889 6 0.921296 0.185953 0.150208 2 3 -5 
8786 5 0.406958 0.159135 0.121499 3 1 1 
6596 6 0.424654 0.237805 0.125614 -3 1 1 
5914 5 0.773512 0.19566 0.125515 3 4 -1 
6235 6 0.36211 0.237307 0.161817 -3 7 2 
5354 6 0.898599 0.263067 0.154998 3 -1 0 
7397 6 0.939621 0.240601 0.133469 2 0 6 
8960 5 0.0390142 0.298912 0.109793 4 0 2 
5375 5 0.364051 0.268483 0.143587 0 -4 -3 
5280 5 0.6816 0.267729 0.0960263 -4 4 5 
5359 6 0.813072 0.323694 0.151927 3 5 -6 
5703 6 0.313048 0.315756 0.119586 -2 0 0 
6575 5 0.0868127 0.380945 0.116207 3 2 0 
8222 6 0.487284 0.371794 0.180569 2 -3 1 
7647 5 0.594144 0.330318 0.104621 -1 1 3 
7387 6 0.766826 0.351813 0.149747 -2 3 6 
6404 5 0.157716 0.370425 0.132581 2 -1 -3 
5396 6 0.980735 0.389507 0.133769 -1 -1 -2 
7610 6 0.346966 0.374383 0.132006 0 4 -2 
5510 6 0.423101 0.404697 0.143473 4 -3 0 
8895 5 0.780144 0.37103 0.110209 3 -1 5 
7686 6 0.116263 0.453009 0.116789 7 1 1 
7000 6 0.527362 0.522295 0.138252 -2 3 -4 
5303 6 0.960566 0.497791 0.108977 3 1 3 
8048 5 0.35201 0.506335 0.110134 -2 -1 2 
8371 6 0.766486 0.529549 0.115277 -2 -3 0 
7351 6 0.576274 0.613346 0.143138 -2 -1 0 
6217 5 0.94605 0.576174 0.151165 2 -1 2 
6389 5 0.178725 0.620271 0.135738 0 -3 5 
5327 6 0.509141 0.599856 0.173978 -1 3 8 
7754 6 0.837935 0.589515 0.127918 1 -6 0 
5646 6 0.205279 0.626747 0.124424 -1 -2 2 
6949 5 0.533712 0.674147 0.112862 -2 0 7 
5592 6 0.286896 0.664465 0.183706 -3 -3 -1 
5351 6 0.214209 0.698519 0.126906 1 5 -4 
6236 6 0.604069 0.685206 0.0914078 -2 2 5 
8622 6 0.804732 0.696432 0.133336 -1 -1 -4 
6775 5 0.841076 0.67665 0.100855 -2 -11 0 
7246 6 0.300942 0.727973 0.144165 1 -2 3 
8375 5 0.317953 0.748042 0.139811 1 1 3 
5607 6 0.739432 0.759975 0.100081 -1 0 -3 
5039 5 0.952238 0.724403 0.0977743 0 0 2 
7694 5 0.41352 0.804192 0.118966 -4 1 2 
5452 6 0.988221 0.752671 0.109281 -3 4 1 
7113 6 0.476199 0.754572 0.150824 5 4 1 
8171 6 0.113294 0.784232 0.109755 7 -2 -3 
5714 6 0.598836 0.827344 0.11058 -2 2 1 
6486 6 0.948232 0.780951 0.104178 -4 -3 -2 
5153 6 0.279438 0.843238 0.0932786 -4 1 6 
8646 6 0.152168 0.894537 0.100429 0 1 3 
8574 6 0.302268 0.890551 0.14457 -1 -1 1 
6803 5 0.809161 0.894406 0.127341 -1 -3 -3 
7554 5 0.673545 0.884345 0.140229 0 5 1 
7650 5 0.702861 0.91462 0.0933391 1 -2 9 
6793 6 0.991722 0.954701 0.137888 -2 -4 1 
7232 5 0.536853 0.951069 0.125216 0 -2 -2 
7098 6 0.730326 0.974999 0.136625 -2 6 3 
7916 5 0.945974 0.95835 0.155689 -1 0 -2 
5237 6 0.0269047 0.00457132 0.138637 -2 -6 -5 
8520 5 0.616079 0.973147 0.159391 7 -1 -4 
8377 5 0.540167 0.037992 0.174942 -5 -4 0 
8041 6 0.722885 0.0294588 0.146503 4 -5 5 
7060 5 0.751723 0.962865 0.145153 3 0 -4 
6436 6 0.393372 0.0620476 0.110436 -5 1 1 
7293 5 0.823782 0.0557789 0.148616 4 4 -3 
5820 6 0.858567 0.0297036 0.133847 6 -4 -1 
7826 6 0.157954 0.0801208 0.143022 -2 0 -2 
8563 6 0.150301 0.0815395 0.176259 -2 -1 -1 
5583 5 0.610769 0.0393077 0.133243 1 4 -6 
7405 5 0.754754 0.0584321 0.142145 1 -1 -2 
7827 6 0.659762 0.0762011 0.162149 -6 1 -2 
7980 6 0.875851 0.0828412 0.181713 -6 0 -2 
7090 5 0.220468 0.105172 0.166809 -5 -3 1 
7804 5 0.467796 0.133431 0.131212 0 2 -1 
5883 6 0.756012 0.138943 0.175527 1 2 1 
8174 6 0.685369 0.159781 0.141584 3 2 0 
8021 5 0.850103 0.187717 0.119707 -3 5 -1 
5292 6 0.0491718 0.163316 0.15218 8 6 4 
5892 5 0.345776 0.197262 0.182534 1 1 -1 
6003 5 0.901304 0.224885 0.140811 -3 -3 4 
6248 5 0.239541 0.191906 0.135529 1 -3 -5 
6784 5 0.332925 0.224876 0.145298 -2 2 3 
8645 6 0.790405 0.224165 0.163871 2 9 2 
8515 6 0.230772 0.240679 0.12733 0 -1 -1 
8388 5 0.72348 0.280772 0.155025 -2 2 0 
6432 5 0.820108 0.225275 0.111662 -5 -2 1 
8508 6 0.870351 0.227282 0.144551 0 -1 0 
6806 5 0.921932 0.247473 0.113685 2 -1 2 
5687 5 0.254883 0.255757 0.110822 5 -2 -2 
7496 5 0.731541 0.307496 0.184395 5 4 2 
8665 5 0.727835 0.286139 0.17094 1 0 -2 
6273 5 0.94802 0.243023 0.117588 -5 -1 6 
8901 5 0.722021 0.290103 0.172469 3 -1 -2 
8811 5 0.0662957 0.374396 0.112174 1 2 3 
7337 6 0.211938 0.357241 0.173875 3 6 4 
5353 5 0.0857584 0.358577 0.167634 -3 -3 -1 
8899 5 0.467632 0.32907 0.173998 -4 -3 2 
5686 6 0.961828 0.365141 0.124226 0 -1 1 
6101 5 0.827596 0.35768 0.13408 0 -3 0 
7198 6 0.810851 0.398416 0.120263 0 -2 -3 
6287 6 0.373279 0.414382 0.122066 -4 3 2 
7625 5 0.798423 0.407059 0.165568 4 1 0 
8860 6 0.0892739 0.417846 0.123189 1 4 -1 
7955 5 0.775412 0.461648 0.150626 -4 2 0 
5162 6 0.626032 0.587102 0.104254 2 -3 0 
8112 6 0.699181 0.523604 0.136556 0 1 2 
6379 5 0.762883 0.553507 0.140985 -1 1 -4 
5173 6 0.553097 0.546476 0.166691 -7 4 1 
8507 6 0.421317 0.573917 0.157594 2 2 -2 
7540 6 0.166605 0.621084 0.13787 6 0 1 
7636 6 0.354758 0.614926 0.133654 6 1 1 
5837 5 0.282217 0.64109 0.146262 -3 -3 -3 
7051 6 0.435336 0.608666 0.155463 0 0 3 
6467 5 0.00519048 0.626846 0.158355 0 0 0 
7092 6 0.138564 0.617053 0.154852 -4 -8 -2 
6530 6 1.00065 0.649066 0.155245 1 3 -3 
8743 6 0.92424 0.679004 0.143979 3 -4 6 
8672 6 0.0941278 0.744166 0.136352 2 5 -3 
8779 6 0.0969407 0.768679 0.15963 0 0 -4 
7046 6 0.31286 0.714331 0.142817 2 -1 3 
7261 6 0.473554 0.696519 0.197632 3 -1 0 
7206 5 0.841649 0.711838 0.167772 -6 2 -1 
5959 5 0.847888 0.775827 0.157114 -1 1 -1 
7616 6 0.436167 0.752517 0.125031 3 -3 -1 
6913 5 0.975074 0.840943 0.154421 0 0 0 
6590 6 0.317362 0.813782 0.168497 1 6 1 
5138 6 0.744016 0.75571 0.149361 -1 -1 1 
8352 5 0.407312 0.833491 0.159029 0 0 2 
8044 5 0.582127 0.84978 0.173848 -1 -4 2 
5618 6 0.500804 0.883636 0.148166 2 8 1 
7531 5 0.841764 0.833303 0.16455 2 1 -2 
7547 6 0.877255 0.873717 0.153425 -2 -1 -1 
6446 6 0.00589862 0.889034 0.160812 3 2 3 
5815 5 0.0602671 0.876841 0.146117 2 3 -3 
7565 6 0.947095 0.937739 0.130825 0 -3 -1 
7450 5 0.236595 0.94321 0.160873 -1 2 2 
8993 5 0.313781 0.939694 0.153098 -1 1 -4 
6615 6 0.914344 0.916365 0.0946792 3 -2 4 
8248 6 0.258448 0.948019 0.161122 1 -2 2 
7112 5 0.357441 0.933948 0.115539 2 4 -3 
8275 6 0.57439 0.958547 0.135971 -5 2 1 
6024 6 0.644619 0.951704 0.137971 2 3 3 
8963 6 0.861009 0.941108 0.14024 -4 -1 3 
6953 6 0.0708994 0.977374 0.186661 -1 -1 1 
5877 5 0.978375 0.997389 0.174563 -1 0 3 
5673 6 0.093643 0.0402127 0.149546 -2 5 5 
5979 6 0.337099 0.0107265 0.169722 -1 4 -3 
7154 5 0.379859 0.0854103 0.1441 4 7 5 
7992 5 0.567171 0.032111 0.199335 3 -2 0 
5142 5 0.0249334 0.0780083 0.18543 3 -1 2 
6138 6 0.4637 0.0639329 0.149324 1 3 2 
6959 6 0.186555 0.0649356 0.147502 -4 1 1 
7931 6 0.347911 0.0816776 0.142453 4 6 -1 
8478 6 0.906991 0.103666 0.145246 6 6 -1 
7939 6 0.108712 0.103286 0.144955 5 2 -2 
6332 6 0.147151 0.0914662 0.168887 1 -2 0 
7737 5 0.373265 0.13251 0.177153 0 -5 1 
6415 5 0.111701 0.123589 0.201757 0 0 2 
6186 5 0.320896 0.162767 0.157719 5 2 4 
8175 5 0.389299 0.140964 0.186418 -3 1 4 
8977 5 0.688375 0.146466 0.155989 -2 -4 -5 
8202 5 0.891718 0.132325 0.182691 -2 1 5 
5058 6 0.533071 0.149247 0.17081 1 1 1 
7944 5 0.951007 0.138479 0.18596 -5 0 0 
7590 5 0.957613 0.204591 0.182531 1 1 -2 
5852 5 0.0772417 0.178577 0.185499 -2 5 -4 
6962 5 0.11752 0.178738 0.183932 5 4 -4 
7655 6 0.914455 0.231525 0.17099 0 1 -5 
5648 6 0.181234 0.183298 0.149818 2 1 2 
7366 5 0.749293 0.236219 0.161502 -2 -5 -1 
6957 6 0.830837 0.21774 0.179933 0 0 -1 
7710 5 0.588428 0.283775 0.186026 0 -1 -4 
6938 6 0.664275 0.324219 0.208852 0 1 -3 
5952 6 0.0519027 0.320423 0.192804 7 2 2 
8836 6 0.711839 0.319366 0.206719 -4 -1 -1 
6255 6 0.141037 0.38101 0.168329 4 -1 1 
8868 6 0.199649 0.383384 0.201834 1 -1 -2 
5235 6 0.28236 0.371091 0.138875 -1 3 2 
8780 5 0.986722 0.388497 0.165205 0 0 1 
5411 6 0.095741 0.398917 0.146927 3 0 2 
8886 6 0.718751 0.412085 0.15487 -5 -1 6 
6201 6 0.758206 0.422372 0.159489 0 -3 0 
8104 6 0.864992 0.414159 0.186087 3 0 6 
6346 6 0.545162 0.409764 0.217891 1 0 4 
7253 5 0.342191 0.463911 0.158104 -2 -5 -5 
7562 6 0.768512 0.434876 0.149308 1 -5 8 
6567 6 0.470831 0.473894 0.163132 -2 -4 2 
8910 6 0.698883 0.47205 0.145855 2 2 3 
7005 6 0.780284 0.523708 0.136899 -2 1 2 
5469 5 0.45016 0.584616 0.181003 1 0 -5 
7994 6 0.339471 0.55919 0.162382 6 -1 2 
5814 6 0.813906 0.546415 0.201662 4 2 2 
8698 5 0.889349 0.583312 0.174298 0 0 -3 
5910 6 0.882417 0.553084 0.206467 1 2 1 
6757 6 0.0696073 0.563634 0.203208 9 -1 -2 
5060 6 0.256852 0.580669 0.171143 0 3 -2 
5662 5 0.792745 0.580058 0.198112 -1 5 4 
6191 5 0.945942 0.617378 0.148928 1 4 3 
7276 6 0.941355 0.631581 0.186309 0 4 2 
7329 6 0.568442 0.682907 0.189772 3 -4 -1 
5434 6 0.604474 0.67024 0.199053 -4 -2 4 
5215 5 0.843932 0.662161 0.183822 -1 -1 3 
8315 6 0.209275 0.712015 0.205507 1 2 -2 
5119 5 0.295937 0.708133 0.183672 1 -6 6 
5444 6 0.218319 0.727799 0.149019 -2 -6 -2 
5311 6 0.349591 0.732559 0.140581 0 0 -4 
6609 6 0.622872 0.674401 0.17511 -1 -1 -2 
5664 5 0.473958 0.736487 0.137015 1 -2 1 
5443 5 0.529654 0.736182 0.18447 -2 4 3 
8476 6 0.727591 0.777134 0.185157 0 -4 -2 
5347 6 0.829469 0.758249 0.168291 3 1 2 
6370 5 0.843294 0.814948 0.156469 -4 0 -3 
7497 6 0.909312 0.760942 0.153539 0 -1 6 
6984 5 0.10181 0.758671 0.16436 -3 2 0 
7958 5 0.384992 0.819817 0.15384 3 0 1 
7252 6 0.924485 0.768006 0.163137 3 -2 4 
7415 5 0.580403 0.810958 0.118276 3 -2 5 
8677 5 0.0289933 0.866267 0.168998 -2 0 1 
6778 6 0.240347 0.828491 0.133751 -2 -2 -1 
8680 6 0.222547 0.848161 0.158521 -2 5 3 
8045 6 0.619049 0.852516 0.179232 -1 2 -2 
5736 6 0.899242 0.853392 0.154497 5 -6 3 
8527 6 0.927603 0.846515 0.19469 5 3 2 
8644 5 0.125167 0.917618 0.185131 2 0 1 
7409 6 0.858919 0.871345 0.161243 -2 2 2 
8363 6 0.407069 0.895252 0.1896 -1 6 2 
5044 6 0.875787 0.906029 0.144123 0 -2 6 
6988 6 0.204975 0.00456457 0.175706 4 -3 1 
5665 5 0.289549 0.998695 0.152693 2 -7 3 
6260 5 0.605047 0.977707 0.164455 4 1 2 
7777 5 0.621133 -0.00176083 0.215801 -2 -2 4 
5297 6 0.753307 0.0101642 0.195649 -3 4 3 
6674 5 0.944841 0.950157 0.144639 0 3 1 
6317 5 0.565126 0.00932444 0.16326 0 2 -2 
5977 6 0.592691 0.03785 0.177168 4 0 -1 
7383 6 0.801636 0.0896477 0.191396 -3 1 8 
8033 5 0.0445424 0.0836177 0.224116 1 0 1 
7829 6 0.507418 0.0923089 0.190028 5 -1 0 
8820 6 0.103942 0.16521 0.204304 -1 -3 2 
8146 5 0.448935 0.137432 0.200738 2 -3 -4 
8657 5 0.988672 0.121589 0.181645 -2 2 0 
6034 6 0.0943831 0.138787 0.18426 -5 -2 1 
7489 6 0.342006 0.182231 0.230675 1 -4 -5 
7658 5 0.850091 0.135596 0.195343 -3 4 0 
5575 5 0.996324 0.202997 0.205131 -3 -6 3 
8385 6 0.801796 0.187603 0.212919 -5 1 -1 
7139 5 0.0685007 0.23109 0.196435 -2 0 6 
6515 5 0.331977 0.204886 0.211747 5 0 1 
6694 6 0.963718 0.25095 0.174117 -8 2 1 
6249 6 0.494041 0.239764 0.230203 2 5 0 
6872 5 0.564028 0.307401 0.231152 -3 3 -1 
8851 5 0.483759 0.277092 0.228108 4 2 1 
8148 5 0.920794 0.346021 0.143477 -2 1 3 
7402 5 0.46984 0.365426 0.185286 2 -3 5 
7502 6 0.77617 0.371176 0.191639 0 4 0 
7082 5 0.051647 0.407865 0.147969 2 0 -2 
8659 5 0.251179 0.403041 0.233327 -1 -3 2 
6569 5 0.505452 0.451669 0.200089 2 2 2 
6951 5 0.54168 0.430979 0.189478 0 0 -1 
7908 6 0.752738 0.469877 0.184156 4 3 0 
8950 5 0.211777 0.490601 0.173949 7 3 -5 
7920 6 0.358959 0.436499 0.229559 0 2 2 
8695 5 0.53817 0.447348 0.182699 2 1 0 
6487 5 0.131755 0.495135 0.147171 -1 2 -6 
5483 6 0.460196 0.498062 0.164155 -2 0 6 
5636 5 0.472047 0.454627 0.190328 1 -4 0 
8128 6 0.699002 0.465571 0.192552 0 2 0 
7720 6 0.654302 0.477859 0.196578 0 0 -2 
7809 6 0.288954 0.590889 0.208825 2 -3 -4 
7411 6 0.365842 0.584152 0.171309 -1 -7 1 
6764 6 0.513886 0.578527 0.181629 -1 -1 -3 
7872 6 0.726872 0.528545 0.176238 -2 0 0 
5825 6 0.316021 0.594313 0.168996 -1 -2 8 
8212 6 0.319879 0.623 0.188851 4 -2 -2 
6054 5 0.448821 0.651524 0.177583 -5 6 1 
6179 5 0.501998 0.640465 0.229997 -4 -2 1 
5571 6 0.682423 0.663284 0.221461 -4 2 -2 
8536 5 0.015158 0.678227 0.163837 1 -3 1 
7868 5 0.369565 0.653609 0.1598 3 2 2 
6099 6 0.789377 0.652805 0.174854 -2 -6 6 
5492 5 0.410235 0.701465 0.194728 -3 0 4 
5262 6 0.496941 0.736369 0.165843 2 3 1 
7311 6 0.849029 0.705126 0.173795 -2 6 2 
6749 5 0.13566 0.789885 0.191564 2 -3 -2 
7407 6 0.293828 0.797471 0.186073 -1 0 2 
6150 6 0.363674 0.7928 0.200509 0 -5 0 
6321 6 0.867941 0.751665 0.224286 3 -5 -2 
6886 5 0.398862 0.836264 0.210833 0 4 -1 
5431 5 0.543534 0.838991 0.230703 -2 -2 4 
5190 5 0.992353 0.850655 0.179721 3 2 1 
6912 6 0.755287 0.870251 0.192494 2 1 3 
6889 6 0.810859 0.856325 0.169661 3 0 2 
7038 5 0.14436 0.89185 0.197297 -7 -1 -1 
7938 6 0.914573 0.89947 0.213088 3 -3 3 
5255 6 0.687793 0.910031 0.194573 2 0 7 
8834 6 0.273432 0.929435 0.152865 0 -1 -1 
5907 5 0.143214 0.901658 0.18818 -4 3 2 
7865 6 0.314845 0.912124 0.172206 1 -1 2 
8601 5 0.0532394 0.962988 0.192299 0 -1 2 
7044 5 0.101048 0.989347 0.15995 -2 1 0 
7371 6 0.147024 0.0123589 0.176925 -2 0 0 
6385 6 0.893396 0.96236 0.180346 1 -2 3 
8272 5 0.359703 0.0268154 0.222541 -1 3 4 
8491 5 0.83998 0.065692 0.224396 1 0 -4 