ITEM: TIMESTEP
20000000
ITEM: NUMBER OF ATOMS
9000
ITEM: BOX BOUNDS pp pp pp
-75 75
-75 75
-75 75
ITEM: ATOMS id type xs ys zs ix iy iz 
8826 6 0.189733 0.98115 0.0351915 -2 1 3 
5135 5 0.202147 0.00916761 0.968798 -1 -2 -3 
5072 5 0.462356 0.0482529 0.98306 -1 4 2 
8393 6 0.622301 0.983268 0.0175459 5 -1 1 
6457 6 0.987113 0.0032287 1.00013 3 4 0 
5479 5 0.305648 0.0482548 0.0198516 0 -4 -2 
7855 6 0.962755 0.0640517 -0.00251767 0 1 -1 
6170 6 0.506958 0.0677098 0.0224176 2 2 1 
8619 6 0.557478 0.0860357 0.000764094 -3 2 3 
7366 5 0.993424 0.0547398 0.960294 -1 0 0 
7990 5 0.153419 0.0688638 0.034476 5 5 1 
8202 5 0.305743 0.0704125 0.00575011 2 5 -1 
8205 6 0.790895 0.106341 0.0395715 -6 0 0 
5907 6 0.66898 0.0996034 0.964102 -5 1 -2 
7011 5 0.683408 0.147812 0.974383 1 4 1 
8044 5 0.909347 0.0999512 0.997217 1 4 1 
7625 5 0.752711 0.124974 0.988698 1 -2 1 
7559 5 0.835204 0.127064 0.0265008 4 2 -4 
5608 6 0.135194 0.202344 0.0549862 -6 6 -2 
6554 5 0.451891 0.162988 0.965666 2 -4 3 
6277 5 0.619178 0.179881 0.0404036 0 -1 -2 
5356 5 0.0715806 0.211874 0.997132 1 4 -2 
6006 5 0.772169 0.174721 0.0201658 2 1 -3 
5248 6 0.852709 0.180295 0.999174 -1 -3 -2 
7967 6 0.19931 0.228624 0.994246 7 5 1 
5033 6 0.476573 0.226142 0.977021 3 1 0 
7549 6 0.472744 0.262241 0.993025 -2 -2 1 
7166 6 0.0120353 0.224146 0.0301542 4 -2 -4 
6500 5 0.00572262 0.270629 0.055675 3 3 2 
8255 6 0.0431544 0.302132 0.994195 0 -3 -6 
5126 6 0.164247 0.33888 0.0139692 1 -1 2 
6374 6 0.342417 0.266032 0.970496 -1 2 3 
7665 6 0.684627 0.251769 0.999027 1 1 -2 
7800 6 0.846598 0.287932 0.00107361 1 1 0 
8782 6 0.473473 0.295354 0.00456587 -2 1 5 
5334 6 0.888674 0.30036 0.017827 1 2 6 
6257 5 0.25069 0.348564 0.991954 1 -3 -3 
6650 6 0.295112 0.335145 0.029188 3 1 4 
7719 6 0.858528 0.356617 0.979227 6 0 2 
7575 6 0.728007 0.336324 0.99695 1 3 -4 
5707 6 0.744632 0.359671 0.0246329 0 -2 3 
5887 5 0.753666 0.346599 0.00744922 0 -1 6 
5322 5 0.0316559 0.353351 0.0310087 0 1 -4 
5204 5 0.613394 0.446632 0.994397 -2 -4 -1 
6122 6 0.156207 0.420658 0.979087 -2 -2 -2 
7920 6 0.265829 0.428944 0.991742 3 6 0 
7716 5 0.677359 0.45388 0.0160851 3 4 0 
5681 5 0.0369072 0.506284 0.0182139 1 -1 -2 
6442 6 0.225093 0.506856 0.00633699 -1 -1 -1 
8963 6 0.984483 0.499899 0.0429074 2 0 -4 
7558 5 0.5415 0.530266 0.992124 5 -2 5 
6626 5 0.94197 0.532015 0.0344253 3 0 -2 
7546 5 0.490081 0.553492 0.98391 -1 3 0 
8097 5 0.197196 0.60087 0.012755 1 -1 2 
6077 5 0.253503 0.588443 0.00888937 -1 0 -3 
7480 5 0.265617 0.648158 0.0456539 4 0 4 
5339 6 0.100537 0.640422 0.982985 -4 -1 -2 
5078 6 0.752916 0.638415 0.00111589 2 3 -3 
8196 5 0.0288905 0.665996 0.0222269 2 3 -5 
5252 5 0.208523 0.708713 0.0276395 3 -3 5 
5209 6 0.516589 0.700031 0.000364817 4 5 5 
7112 5 0.136347 0.74061 0.0265184 3 1 -1 
7533 5 0.213862 0.714504 0.034732 3 3 -4 
6403 6 0.541608 0.754837 0.0151709 -1 0 -3 
8680 5 0.194121 0.757636 0.00865207 2 -1 -5 
8008 5 0.887597 0.775523 0.0100612 1 3 0 
8875 6 0.171593 0.810978 0.990081 6 2 -5 
5331 5 0.23062 0.807967 0.0469568 3 -3 0 
5152 6 0.535932 0.796466 0.980125 0 3 1 
6361 5 0.972168 0.858618 0.986059 2 1 -3 
5433 6 0.99626 0.848791 0.0145172 -4 -1 -1 
7638 5 0.152697 0.849177 0.0226365 -1 -2 -2 
8046 5 0.284283 0.855638 0.99695 -3 -1 0 
7715 6 0.865873 0.862812 0.0156348 2 3 0 
8468 6 0.427392 0.892175 0.990621 3 3 3 
8878 6 0.698923 0.89436 -0.000131816 -3 0 5 
6647 6 0.992352 0.936224 0.0187432 -5 0 2 
6366 5 0.00379562 0.92061 0.999699 -1 -3 -1 
7496 5 0.46963 0.86533 0.0315988 5 0 3 
5413 5 0.0789432 0.948476 0.0255801 3 1 -3 
6973 6 0.304338 0.985314 0.0179623 4 3 2 
6491 6 0.5196 0.998417 0.0241412 1 0 1 
6287 5 0.000283048 0.00512216 0.997505 -1 0 8 
5889 6 0.349535 0.0100155 0.00724142 0 1 0 
7117 6 0.435845 0.0445061 0.0519193 0 -1 -1 
5366 5 0.591024 0.00694769 0.0338169 -2 3 2 
6157 5 0.408689 0.0600024 0.00250034 7 -5 1 
7199 6 0.885781 0.0595124 0.00220544 0 -2 -4 
6552 6 0.158449 0.0520282 0.0054351 1 -3 -3 
8825 5 0.423776 0.0722056 0.00768535 -1 -1 2 
5275 6 0.192817 0.119725 0.0285172 0 4 3 
5649 5 0.239047 0.0692173 0.0384106 3 -1 3 
8713 5 0.87889 0.0876132 0.0255077 -2 5 -1 
7313 6 0.307457 0.0970383 0.0426487 6 3 2 
8587 6 0.409162 0.115746 0.0198423 -2 0 -2 
7317 5 0.743822 0.146417 0.018743 2 2 3 
7427 6 0.842073 0.126718 0.0410076 -1 2 -6 
5086 6 0.28209 0.184724 0.0609197 -2 1 6 
5932 5 0.526821 0.206543 0.0480982 1 0 5 
6050 6 0.969554 0.170556 0.00875296 5 2 -1 
7858 5 0.469898 0.228115 0.0377817 -3 -4 2 
5090 6 0.802683 0.232945 0.0348146 1 -2 1 
6367 6 0.094457 0.310584 0.015802 2 3 0 
8327 6 0.717749 0.265006 0.0299723 1 -3 1 
7311 6 0.952752 0.259521 0.00918145 3 0 0 
8426 6 0.46712 0.290524 0.0287547 8 1 1 
6627 6 0.904512 0.278755 0.0462788 -2 -1 3 
7209 6 0.891226 0.293551 0.0370547 -1 -2 -3 
5629 6 0.196744 0.345611 0.030843 -2 -3 2 
5874 6 0.312636 0.357951 0.0585172 3 2 -1 
7132 6 0.484498 0.327371 0.00837471 4 1 2 
8818 6 0.208729 0.396544 0.0588371 3 4 -1 
5064 5 0.269092 0.414667 0.017481 -5 -3 -5 
5775 6 0.54058 0.401639 0.0470091 3 -2 3 
6874 6 0.062994 0.43574 0.0309124 2 4 -2 
5395 5 0.202469 0.404645 0.0499599 1 6 5 
5615 5 0.364268 0.433585 0.047838 -1 -4 3 
7287 5 0.541175 0.435467 0.0201778 1 -1 2 
6061 5 0.582562 0.450848 0.0447792 -4 -3 5 
8696 6 0.21195 0.500809 0.0530506 -1 4 0 
7031 5 0.625096 0.495198 1.00033 -3 0 -2 
6531 6 0.848864 0.484919 0.0324017 1 2 -4 
8930 6 0.674934 0.488176 0.0400353 2 0 1 
6130 6 0.855827 0.51921 0.00786825 0 0 1 
5285 6 0.0725247 0.534612 0.0452357 3 0 0 
6768 6 0.367467 0.572358 0.0182148 -5 1 -1 
6329 6 0.161893 0.55592 0.0266961 0 0 3 
7819 6 0.546712 0.585401 0.0713959 -2 -1 0 
5486 5 0.860407 0.64752 0.0212917 -1 1 3 
7571 5 0.188541 0.693636 0.0311915 -1 0 -1 
5827 6 0.339782 0.672182 0.0651191 0 0 1 
7499 5 0.343716 0.69311 0.027137 3 -1 -2 
6284 5 0.293538 0.69599 0.0475123 0 -3 0 
7100 5 0.909855 0.698215 0.0639182 -2 5 3 
5133 5 0.114428 0.741094 0.00449919 -4 0 4 
6543 6 0.25426 0.722222 0.998834 4 -1 0 
6665 5 0.296816 0.744335 0.0340959 -5 1 5 
5597 5 0.325372 0.786413 0.0316262 -2 0 4 
8670 5 0.657473 0.774719 0.0777942 3 -4 3 
8942 6 0.773179 0.748587 0.0587719 -4 -2 -3 
8369 6 0.501746 0.760991 0.0436621 1 -1 -4 
5966 5 0.914331 0.775719 0.0197944 -4 -6 1 
6386 6 0.0461996 0.823883 0.000611996 1 -4 -3 
8866 6 0.808578 0.822099 0.03998 2 -2 1 
6180 5 0.405394 0.80874 0.0595535 1 -1 0 
7601 5 0.671992 0.857768 0.0361947 0 -7 3 
6084 6 0.905504 0.85386 0.0230362 4 4 0 
8654 6 0.380711 0.858363 0.0103377 -2 -1 1 
5235 6 0.827721 0.839283 0.0561912 -2 -5 -2 
5354 5 0.914371 0.859353 0.0226844 1 1 1 
5866 5 0.221544 0.908471 0.0901246 -1 0 0 
7598 6 0.701837 0.90096 0.0397494 1 -11 -2 
7932 5 0.844026 0.866593 0.0405529 -1 1 1 
7667 5 0.944624 0.854859 0.0464567 -5 1 1 
5327 5 0.14856 0.913675 0.0332802 5 2 4 
8032 6 0.30027 0.924254 0.021249 2 -1 -2 
8694 6 0.785353 0.886647 0.0332879 1 -1 0 
6175 5 0.226511 0.997658 0.0510414 0 1 -2 
5179 6 0.309245 0.954924 0.0509055 -6 -3 6 
5448 6 0.558681 0.947646 0.0338227 1 2 3 
5645 5 0.401736 0.968389 0.0286453 6 3 0 
6848 5 0.669198 0.960822 0.0403471 -1 4 0 
8841 5 0.617717 0.960454 0.015821 -1 0 5 
8423 6 0.297631 -0.000635171 0.984197 1 -3 0 
6281 5 0.454818 0.974018 0.0150628 -1 4 0 
5002 5 0.733146 0.940179 0.0404921 4 -4 0 
6594 6 0.0314885 0.00559235 0.0300773 -3 6 -5 
7740 5 0.151575 0.00793203 0.0166077 -1 4 0 
7867 6 0.596904 0.0670304 0.0634831 -4 -2 0 
8771 5 0.822348 0.0739701 0.0391741 -3 1 1 
6397 6 0.0364676 0.0900755 0.0621181 -2 -2 -3 
6338 6 0.41962 0.0983028 0.0789804 -3 -4 -1 
5321 6 0.829806 0.0860012 0.0213529 -3 2 -1 
6276 6 0.880262 0.0638823 0.0746656 0 5 1 
8035 6 0.0599265 0.114582 0.0712019 1 -3 -2 
5472 5 0.354755 0.153637 0.0535666 -1 4 0 
8738 6 0.129579 0.161462 0.0827175 5 -1 -3 
7629 5 0.334044 0.166988 0.0632284 -5 -1 -2 
8400 6 0.846846 0.180731 0.104285 -4 3 5 
8192 6 0.228793 0.189841 0.0630946 5 0 1 
6186 5 0.0641962 0.243541 0.102642 -1 -2 -4 
5685 6 0.0988887 0.23245 0.0664297 3 -1 7 
6643 6 0.576498 0.198435 0.0682399 -6 -1 0 
5409 6 0.905736 0.2352 0.0468206 -5 2 3 
5087 5 0.20427 0.261596 0.00342128 3 4 0 
6934 6 0.756752 0.288129 0.0417217 -4 0 -4 
6053 5 0.820867 0.242938 0.062771 1 3 -2 
7009 6 0.203916 0.274004 0.0743277 -2 1 0 
5839 6 0.647325 0.306876 0.0634334 -3 4 2 
6210 5 0.0824063 0.274609 0.0250728 1 -1 8 
6447 6 0.473887 0.293619 0.0772831 -3 -7 -2 
6732 6 0.677084 0.292215 0.0797357 -2 3 -1 
8679 6 0.00855396 0.288412 0.0643619 -6 -1 -1 
5713 6 0.211837 0.322781 0.0346511 -2 1 1 
6818 5 0.508432 0.339082 0.0458548 -5 0 0 
6387 5 0.0217534 0.325303 0.0706372 2 2 1 
7959 6 0.118185 0.339748 0.0130498 -8 4 2 
8980 5 0.665051 0.324429 0.0835054 0 2 4 
5335 5 0.743926 0.353321 0.0709863 -3 0 1 
6196 6 0.853438 0.362335 0.0427481 -2 -4 0 
6760 6 0.660902 0.356285 0.0550694 -1 -1 -1 
7690 5 0.0609038 0.394607 0.0576071 0 -3 0 
6190 5 0.218787 0.420062 0.0727955 8 -1 0 
5112 6 0.594349 0.404161 0.063731 2 5 1 
6032 6 0.84983 0.401784 0.0735695 -4 -1 -1 
6549 6 0.841383 0.414758 0.0813182 -1 -5 0 
7181 6 0.308644 0.406158 0.0378621 -2 3 1 
5244 6 0.350433 0.417761 0.0366128 0 2 2 
6795 6 0.409421 0.385941 0.0307925 -2 -2 3 
7192 5 0.475612 0.435607 0.0283052 -1 0 2 
5455 6 0.821499 0.443609 0.023065 0 4 -4 
7131 5 0.169916 0.455841 0.0593701 -1 1 0 
6984 5 0.34554 0.415473 0.0847672 5 2 5 
6172 6 0.621751 0.423882 0.0661547 3 2 3 
7214 6 0.852479 0.453434 0.0773264 1 3 3 
6565 5 0.429469 0.509965 0.0675556 2 -2 3 
8056 5 0.0510644 0.488329 0.0814132 0 -4 3 
5675 5 0.633445 0.469719 0.0526343 0 -1 4 
6376 5 0.64783 0.472211 0.0390684 2 -2 2 
5373 6 0.328173 0.49299 0.0855419 2 2 -1 
8702 5 0.869576 0.528095 0.0682862 0 1 -1 
5611 6 0.86499 0.534212 0.0565301 -4 0 -3 
6777 6 0.982872 0.538938 0.059291 -5 0 -1 
8869 6 0.513072 0.566521 0.0190949 -2 -4 1 
5146 6 0.783557 0.540695 0.0504672 2 -1 -4 
8366 6 0.915717 0.560335 0.0566121 0 2 4 
6689 6 0.166243 0.518898 0.0629625 0 3 1 
5421 5 0.748416 0.544978 0.0703662 0 4 -2 
7633 5 0.424679 0.618318 0.0680036 7 0 2 
5589 6 0.356455 0.709831 0.104581 0 -3 -2 
8994 6 0.598116 0.686853 0.0471864 -5 0 -4 
5468 6 0.413445 0.762813 0.0790125 4 -3 -1 
5541 6 0.30503 0.686746 0.0557516 1 0 -1 
5767 5 0.0788897 0.774771 0.0678545 -4 0 0 
7407 6 0.171196 0.808802 0.0375847 5 0 -2 
7511 6 0.361305 0.796821 0.0576013 -1 2 2 
6141 5 0.449446 0.795512 0.0577149 0 -4 3 
6194 5 0.520248 0.845421 0.0665635 4 -4 -5 
7879 6 0.671019 0.796257 0.0990496 3 1 6 
7873 6 0.877415 0.826031 0.0986934 -5 1 8 
5901 6 0.677611 0.820806 0.0834875 5 -1 1 
6736 6 0.112274 0.890781 0.0888528 -4 -3 0 
5467 6 0.296539 0.814656 0.058925 7 3 -7 
5491 6 0.362714 0.852872 0.0675189 -3 3 2 
5689 5 0.867463 0.838798 0.0723606 -5 0 4 
8982 5 0.979964 0.896245 0.0604505 0 4 3 
8108 5 0.776737 0.880458 0.0569125 -2 -3 1 
8166 6 0.543811 0.928707 0.0607302 2 3 0 
6944 5 0.245084 0.990544 0.0428853 -7 1 1 
5518 5 0.233 0.0165743 0.103417 2 -2 2 
7770 5 0.6585 0.994706 0.104528 3 -1 0 
5261 5 0.241879 0.0469603 0.0807739 -3 5 -4 
6357 6 0.534026 0.0829961 0.074267 6 2 1 
8407 6 0.352173 0.0851927 0.0797252 1 3 5 
6333 6 0.625574 0.0768532 0.0712903 0 -1 2 
8923 5 0.0676942 0.109884 0.102285 2 -2 -1 
8463 6 0.280118 0.0982757 0.0475212 -2 0 -1 
6188 5 0.989501 0.152409 0.0671274 1 3 -2 
8847 5 0.335049 0.176214 0.108709 -3 0 0 
8984 5 0.523362 0.136844 0.057882 -2 0 0 
5699 5 0.883205 0.145688 0.110043 1 -4 -3 
6514 6 0.195168 0.171429 0.0811851 3 2 3 
6922 6 0.664119 0.198676 0.103032 -4 2 -2 
6682 6 0.109537 0.211036 0.0571242 -4 4 -5 
5404 6 0.161154 0.206329 0.0774572 1 1 1 
7339 5 0.387205 0.252505 0.106393 -1 -4 1 
7276 6 0.43762 0.253218 0.0812156 -2 5 6 
6690 6 0.717702 0.231589 0.0804367 -2 -7 0 
5807 6 0.869573 0.273456 0.0577218 -3 0 3 
5926 5 0.0710304 0.270171 0.0662735 1 2 0 
7532 6 0.746647 0.263951 0.0746947 -1 -1 2 
6344 5 0.711071 0.235337 0.0701866 0 0 5 
5581 6 0.850669 0.271183 0.0626773 1 -1 -1 
5610 5 0.12547 0.296863 0.0335234 0 3 2 
6662 6 0.603655 0.346914 0.100674 -1 -2 0 
5996 5 0.830467 0.305255 0.0782611 -3 -3 3 
6707 6 0.265111 0.359551 0.0449096 0 0 -6 
5548 6 0.468727 0.356525 0.06702 1 -6 7 
7675 6 0.955047 0.33511 0.0780109 -5 1 0 
8754 6 0.11122 0.369639 0.0992852 2 -2 1 
7900 5 0.817794 0.337733 0.0790779 -3 -1 -1 
7153 6 0.210322 0.400996 0.0668569 5 3 3 
5540 5 0.274977 0.441828 0.0576662 -2 -1 -1 
8808 5 0.359858 0.41307 0.0896738 -1 2 2 
8953 6 0.904201 0.435711 0.0641864 -2 2 0 
8431 5 0.165068 0.503218 0.0687286 -4 -1 0 
6444 5 0.61953 0.467031 0.0907082 1 1 1 
6158 6 0.99037 0.483038 0.069303 -6 -4 1 
7385 5 0.574349 0.545171 0.0778322 0 -2 2 
7002 5 0.900611 0.581207 0.095902 4 -1 1 
7204 5 0.959342 0.528772 0.071685 -1 2 6 
6089 6 0.668554 0.55626 0.0903223 -5 -5 -1 
6636 5 0.782331 0.575428 0.0665327 1 -2 -6 
7371 6 0.684703 0.600618 0.0419312 -2 4 6 
5476 5 0.808686 0.581035 0.0826721 -3 -1 2 
5995 6 0.116626 0.591563 0.111676 4 4 2 
5590 6 0.125406 0.595122 0.0789345 4 -2 2 
8344 5 0.270642 0.588059 0.0744324 -4 -2 3 
7649 6 0.243773 0.631086 0.060065 -3 -1 1 
5018 5 0.762473 0.659642 0.105289 -2 2 5 
8745 5 0.768728 0.683054 0.102158 -2 -1 7 
8613 5 0.516108 0.692955 0.0980721 1 1 -2 
5808 5 0.496237 0.679905 0.0566946 -3 -4 5 
8707 5 0.746791 0.684138 0.0795372 -1 -1 0 
8144 5 0.388702 0.686126 0.0739135 -1 -3 -3 
8459 6 0.0290098 0.773028 0.0558144 -5 -7 2 
8390 6 0.0590132 0.736438 0.0636413 -5 -6 0 
6521 5 0.514345 0.71153 0.0659547 4 -2 -2 
8068 5 0.741582 0.729312 0.114178 -2 2 1 
7916 6 0.976405 0.747508 0.0549989 0 -2 -6 
6764 6 0.0361834 0.801262 0.0814535 3 -5 0 
5493 5 0.913234 0.73365 0.073864 -1 -1 3 
5551 5 0.0914282 0.783398 0.0929144 -4 -4 0 
8003 5 0.804141 0.792497 0.0710001 1 4 5 
5144 6 0.375203 0.819343 0.0574427 -1 1 5 
7818 6 0.740054 0.783578 0.079294 3 -1 -2 
8564 5 0.0344163 0.848163 0.0870566 -2 5 -3 
7528 5 0.359922 0.800352 0.0457372 -1 1 1 
5632 6 0.430041 0.818429 0.108777 1 3 5 
8583 6 0.220569 0.849375 0.0807482 -2 -2 2 
6522 5 0.649686 0.850875 0.0952352 -2 -4 2 
6316 5 0.00955145 0.912749 0.115891 1 2 -1 
7747 6 0.526936 0.868143 0.0920113 0 -3 3 
7784 5 0.677675 0.888535 0.104345 0 -1 -2 
8777 6 0.404828 0.893846 0.0700114 -2 1 7 
5938 5 0.698803 0.881713 0.0785549 4 0 -2 
8790 5 0.74884 0.906426 0.10401 3 -3 -4 
7231 6 0.885856 0.880171 0.0580704 0 -3 1 
6183 5 0.196527 0.907692 0.0454306 2 2 1 
6381 6 0.343276 0.920167 0.0808941 -4 -2 1 
8510 6 0.466582 0.911262 0.0780782 -1 2 3 
5913 5 0.813824 0.931663 0.0555345 -3 -1 -2 
5318 6 0.641721 0.917361 0.0837121 1 0 -4 
6004 6 0.738391 0.00273222 0.111416 0 -6 2 
6615 6 0.27927 0.0622904 0.0942838 0 -1 1 
5653 6 0.0556717 0.10939 0.0936699 4 3 1 
6102 5 0.311981 0.1195 0.0609283 0 3 3 
8195 5 0.819615 0.100865 0.08227 -3 6 -2 
8473 6 0.67318 0.127822 0.115579 0 3 3 
7936 6 0.705921 0.13941 0.122288 -3 -2 2 
7523 5 0.801209 0.11187 0.128877 3 2 1 
7361 5 0.88297 0.149698 0.134743 -2 -3 4 
7386 6 0.604742 0.19675 0.124395 -6 -3 1 
8889 6 0.463565 0.184369 0.117581 3 3 0 
5814 5 0.0687758 0.250849 0.0859377 3 3 -5 
8643 6 0.0205878 0.230333 0.104635 -2 1 2 
7698 5 0.101641 0.278875 0.0837104 2 1 -1 
5953 6 0.580769 0.256023 0.120801 0 0 9 
6675 6 0.715687 0.290893 0.130805 0 -2 0 
7305 6 0.924849 0.221724 0.117372 -5 1 -3 
7790 5 0.729482 0.300114 0.0607369 -1 2 0 
5660 5 0.803524 0.333862 0.077569 -1 2 1 
8863 6 0.432023 0.356748 0.0965446 1 -2 -2 
5475 5 0.732002 0.314787 0.0937253 -2 -1 -1 
6394 6 0.756143 0.330283 0.111832 5 -3 0 
8114 5 0.0443412 0.341399 0.0903476 -2 3 -1 
7027 6 0.947846 0.385076 0.098279 -1 0 -6 
7728 6 0.472662 0.354389 0.0943217 6 3 4 
5046 6 0.570399 0.444564 0.0876861 3 1 3 
8677 6 0.0738039 0.450828 0.0952574 1 0 5 
8004 5 0.147171 0.390637 0.115598 -3 0 0 
6820 6 0.369166 0.468424 0.0873114 5 -3 -1 
8601 6 0.571702 0.440409 0.118975 -2 -1 1 
6591 5 0.429808 0.441689 0.091379 6 2 0 
8758 6 0.505513 0.497292 0.13737 2 0 1 
7321 6 0.239392 0.466139 0.112871 -3 3 2 
8100 5 0.31652 0.485252 0.109439 1 2 1 
5079 6 0.787832 0.479851 0.0550971 1 0 2 
6431 6 0.464436 0.515226 0.11262 -2 -5 -1 
5411 5 0.564624 0.530126 0.106605 -2 -3 -1 
8309 5 0.699794 0.503516 0.125733 -3 -2 2 
5050 6 0.881959 0.503875 0.101371 -9 0 3 
6697 6 0.886951 0.480787 0.101356 -4 -6 -2 
6698 6 0.785989 0.534573 0.0908534 0 -1 -1 
7404 6 0.0654867 0.568897 0.0910034 1 4 0 
6752 5 0.600071 0.524369 0.0999874 4 0 -3 
8785 5 0.833412 0.527681 0.0986344 -1 2 -2 
7833 5 0.968565 0.536915 0.0942542 0 0 0 
7449 6 0.0526121 0.582209 0.0836643 0 -4 3 
7914 6 0.23007 0.589783 0.129744 0 1 1 
7221 6 0.711619 0.596113 0.0921769 4 -3 0 
7152 6 0.783824 0.58243 0.0932099 2 1 1 
7605 6 0.878378 0.615118 0.0883549 -3 0 -3 
5175 6 0.0729107 0.62203 0.12977 2 -4 -1 
7066 6 0.306126 0.623618 0.08039 -2 5 0 
6562 5 0.416234 0.606971 0.076864 3 2 9 
7652 5 0.932165 0.63641 0.109084 3 3 0 
7241 6 0.216685 0.682616 0.0775529 0 0 2 
5286 6 0.394372 0.658801 0.118425 -5 -1 1 
7612 6 0.426103 0.697811 0.107661 2 2 2 
6035 6 0.696919 0.670159 0.0860378 -2 -3 1 
6115 5 0.233791 0.671406 0.104797 4 -2 0 
5661 5 0.577962 0.712478 0.103948 -2 3 3 
7918 6 0.0979318 0.751391 0.0457269 2 -1 -5 
8297 6 0.33808 0.729527 0.133862 8 0 0 
6703 5 0.800516 0.763009 0.0847426 -1 2 -1 
6010 5 0.347398 0.817064 0.11233 1 -4 3 
7940 6 0.627686 0.788563 0.0890824 6 2 -1 
7577 5 0.96697 0.832232 0.101508 0 0 -2 
6080 5 0.637658 0.82842 0.0755484 0 0 -1 
5997 5 0.522497 0.875527 0.0949967 0 2 1 
8797 6 0.757547 0.868125 0.06018 4 2 1 
7537 5 0.202059 0.908332 0.0850436 -2 -5 1 
5432 5 0.200805 0.898285 0.134133 -1 1 -1 
8795 5 0.870902 0.929109 0.0884776 -3 2 -2 
7049 6 0.0383086 0.929563 0.133059 6 -4 -1 
5800 6 0.269639 0.909188 0.106241 3 -1 -1 
8002 5 0.775421 0.96274 0.0770628 0 4 1 
5609 6 0.726769 0.960382 0.121482 1 3 2 
8454 5 0.509248 0.985911 0.0888823 0 3 -1 
8831 6 0.66468 0.985704 0.10518 0 -4 2 
5036 6 0.348132 0.0108372 0.162428 -4 -1 1 
8894 6 0.739781 0.973706 0.141071 2 -5 6 
5561 6 0.228849 0.0406886 0.147019 2 2 4 
8194 6 0.278754 0.0558463 0.138139 2 1 -1 
8239 5 0.401114 0.0680376 0.0943194 3 0 -2 
5300 6 0.521403 0.0496515 0.127808 4 3 -2 
7536 6 0.836956 0.0479492 0.101755 -5 3 -2 
6392 5 0.167609 0.0829838 0.176684 1 1 -3 
7244 6 0.415519 0.0749975 0.142609 -1 1 1 
5325 5 0.404334 0.0945245 0.0908951 -2 -2 -3 
6835 6 0.822854 0.0534648 0.122653 -5 0 3 
8689 6 0.0209128 0.155175 0.190808 -2 0 2 
6857 5 0.110454 0.0904558 0.115126 5 1 0 
7951 5 0.271296 0.108402 0.113044 -4 3 -1 
7970 6 0.839397 0.0893645 0.0984944 -4 2 -4 
7285 5 0.365105 0.107623 0.117148 0 0 0 
6139 5 0.259002 0.154148 0.109564 -3 -1 3 
5446 5 0.251428 0.182197 0.119534 1 0 -3 
8975 5 0.504725 0.171888 0.127124 -6 -1 -6 
7454 6 0.942365 0.196648 0.0960474 1 -3 7 
6293 5 0.0536899 0.269029 0.15882 -1 3 2 
6791 6 0.0779469 0.210584 0.145156 5 3 2 
5583 5 0.511045 0.230343 0.0990662 2 -3 -1 
5061 5 0.584457 0.20679 0.128651 -1 5 -3 
5852 6 0.629552 0.253823 0.154451 2 1 -3 
6663 6 0.0806116 0.277058 0.117742 6 -2 1 
8851 6 0.583487 0.250799 0.110762 2 0 0 
6419 5 0.961138 0.311443 0.120565 0 -4 -2 
8695 6 0.283716 0.312321 0.144291 1 1 -6 
7864 6 0.447153 0.32238 0.102428 3 1 4 
8379 6 0.944386 0.358762 0.11352 -4 2 1 
7410 5 0.0561611 0.401662 0.102103 0 2 -1 
5272 6 0.222107 0.37396 0.0948349 4 3 -4 
8374 5 0.93118 0.361026 0.0832111 -6 -1 1 
6168 6 0.48407 0.383505 0.116337 -1 3 3 
5106 6 0.617642 0.431476 0.106408 -5 0 -1 
8969 5 0.19521 0.438212 0.114631 -4 -3 -1 
7909 6 0.631736 0.402128 0.16091 -1 -1 -1 
6020 6 0.189697 0.464562 0.120388 2 -1 1 
7592 6 0.61254 0.451744 0.116099 1 4 1 
6573 6 0.732536 0.434993 0.166326 3 0 0 
7893 5 0.0203446 0.489073 0.153306 -3 -3 4 
5911 5 0.740409 0.44996 0.136348 3 0 0 
8128 6 0.711615 0.495402 0.134858 -2 3 -1 
7051 6 0.712439 0.487004 0.112482 -3 1 5 
7868 5 0.817066 0.519297 0.135683 -6 6 5 
6558 6 0.445365 0.550646 0.153842 2 -3 -1 
7788 6 0.626519 0.551417 0.150244 1 0 3 
5113 6 0.748611 0.572368 0.140291 -2 2 0 
5025 5 0.853191 0.53501 0.153936 0 -5 -1 
8245 5 0.881407 0.561837 0.142478 -1 3 -3 
5678 6 0.486044 0.560789 0.109708 -1 3 3 
7059 6 0.0720116 0.627289 0.104711 6 2 -1 
5062 6 0.415251 0.616629 0.125509 -3 -2 -1 
6096 6 0.486303 0.600219 0.115183 2 -2 0 
7415 5 0.699942 0.615172 0.164484 -2 0 1 
7555 5 0.626057 0.614996 0.11918 -1 3 0 
7721 5 0.65584 0.67009 0.0840403 0 0 4 
7235 6 0.166707 0.67799 0.193027 0 0 2 
7109 5 0.189799 0.662141 0.0969321 1 4 0 
6766 6 0.0676321 0.715417 0.116385 -1 -2 -5 
8402 6 0.672525 0.706765 0.115899 2 -3 -1 
5763 5 0.685289 0.729397 0.125619 6 2 -2 
5505 5 0.437197 0.716583 0.170081 2 -2 1 
8970 5 0.408835 0.772406 0.108368 0 1 4 
8547 6 0.800566 0.787658 0.126797 -2 0 -3 
7669 6 0.193703 0.791407 0.118275 0 -3 0 
6044 5 0.575778 0.769344 0.139133 -4 -6 0 
5089 6 0.645505 0.811967 0.107922 -1 2 0 
6532 6 0.755293 0.797448 0.125235 1 -3 -8 
5639 5 0.764687 0.816848 0.141497 -1 2 6 
7832 6 0.550711 0.85795 0.11324 2 -4 -1 
6843 6 0.606163 0.855694 0.138733 5 1 0 
7924 5 0.197623 0.913106 0.0935302 4 -3 -2 
7065 6 0.327762 0.879009 0.0932943 1 1 -2 
8107 5 0.523798 0.904431 0.0914524 8 -5 2 
8578 5 0.201254 0.940923 0.143249 0 2 0 
6651 6 0.726991 0.897896 0.0885433 -2 3 1 
5309 5 0.971205 0.963594 0.138576 -2 0 0 
8865 5 0.612225 0.915552 0.12306 0 3 0 
5013 5 0.305821 0.956869 0.132154 -1 -1 4 
8617 6 0.749659 0.943289 0.166807 1 5 -1 
8937 5 0.105372 0.923954 0.109577 1 1 -4 
6051 6 0.164212 0.0198679 0.176278 -3 -1 0 
7779 5 0.780951 0.000864065 0.171592 0 2 -2 
8105 6 0.844389 0.979822 0.180818 2 -3 0 
8225 6 0.144588 0.00172058 0.123027 0 -1 0 
6467 6 0.244895 0.048053 0.149612 -5 6 -3 
7751 5 0.455417 0.0427717 0.13668 2 -2 6 
8833 5 0.829321 0.0148356 0.158369 -2 2 1 
6508 6 0.939579 0.0135166 0.184935 -1 -1 -6 
6026 6 0.786487 0.0406543 0.124598 4 4 -1 
8936 5 0.768956 0.107219 0.161236 -3 4 -4 
6016 5 0.0548295 0.12649 0.148824 5 0 3 
5528 5 0.13531 0.10741 0.140324 -2 2 -1 
6174 5 0.944718 0.111892 0.182431 4 1 -2 
7840 5 0.466013 0.102211 0.118873 -2 1 1 
7735 6 0.806831 0.105172 0.16647 -1 2 -2 
6616 5 0.0945344 0.144233 0.179385 -2 2 0 
7761 5 0.689964 0.143901 0.143352 0 5 2 
8750 5 0.264788 0.156183 0.137742 1 0 3 
7581 6 0.50007 0.173112 0.16625 -3 -1 1 
6018 6 0.553617 0.159438 0.17887 0 -4 0 
6432 6 0.56612 0.226651 0.146379 -3 -2 -7 
7657 6 0.473323 0.245641 0.158813 0 0 -1 
7337 5 0.560096 0.272507 0.19052 2 4 6 
7570 5 0.153675 0.292794 0.147467 -1 3 3 
6076 5 0.155688 0.268065 0.155443 1 -7 1 
7727 5 0.972358 0.244197 0.124515 4 1 1 
8401 5 0.382191 0.293509 0.138481 -1 -1 2 
8683 6 0.841807 0.262734 0.101392 -2 4 -3 
8329 6 0.690431 0.332672 0.155806 1 2 0 
6666 5 0.05758 0.394472 0.193746 0 4 2 
8437 6 0.542661 0.323736 0.136941 -1 -1 0 
5563 5 0.0136819 0.396855 0.140863 -2 4 1 
8183 5 0.157032 0.46725 0.129616 0 0 0 
7042 5 0.542747 0.40263 0.143208 -2 -2 0 
8175 5 0.093823 0.459617 0.115904 -2 0 6 
5793 6 0.444559 0.434733 0.131904 2 2 -2 
6828 5 0.636644 0.467397 0.158168 2 6 4 
6365 5 0.328809 0.450745 0.13331 4 -2 -4 
7025 5 0.491647 0.486792 0.138905 2 -3 -1 
6065 5 0.675397 0.48834 0.160715 5 3 -4 
6803 6 0.575083 0.54336 0.182806 -1 1 -6 
6109 6 0.860771 0.57609 0.123479 3 4 -2 
6145 6 0.927143 0.588397 0.1295 5 -2 -4 
6324 6 0.00488916 0.591851 0.15261 -1 -2 3 
5664 5 0.928472 0.61616 0.189702 1 1 2 
6208 6 0.370396 0.627942 0.119687 -1 -3 0 
6939 5 0.432825 0.59538 0.151137 0 -5 4 
5054 5 0.0280179 0.682278 0.18285 -8 0 -3 
8732 6 0.510948 0.652079 0.197105 -2 1 2 
6716 6 0.14099 0.66094 0.175335 0 -1 -1 
6931 6 0.73583 0.677717 0.14645 5 0 4 
8290 6 0.482015 0.668727 0.159561 2 1 -5 
6479 6 0.462745 0.714349 0.157695 1 2 0 
6628 6 0.897362 0.710077 0.126867 3 4 3 
8899 6 0.590666 0.749526 0.179237 1 -3 -2 
6000 6 0.633343 0.744399 0.15973 -2 1 -4 
7150 6 0.907972 0.711921 0.165372 -4 2 0 
6247 5 0.323035 0.767468 0.163376 2 2 1 
5376 5 0.00490759 0.786465 0.140241 1 4 -1 
6981 5 0.40936 0.802661 0.15688 1 -1 -1 
5125 6 0.754185 0.833583 0.162477 7 4 4 
5998 6 0.33568 0.809919 0.190664 4 1 0 
5014 5 0.887478 0.843886 0.131838 -1 5 -1 
7253 5 0.19794 0.842286 0.180555 2 4 -2 
8500 6 0.744993 0.872247 0.169742 1 0 -2 
7203 6 0.0897481 0.898254 0.170735 10 -1 0 
7639 6 0.171053 0.92286 0.10475 -6 0 4 
7104 5 0.369848 0.922 0.166513 3 2 -1 
8756 5 0.0982673 0.933033 0.160856 0 -2 6 
8483 6 0.119731 0.917906 0.159573 3 1 0 
5904 5 0.333837 0.903427 0.145993 1 3 -5 
8870 5 0.766516 0.928736 0.15112 3 -1 -6 
6571 5 0.817496 0.933731 0.126956 -1 0 -3 
5535 5 0.542987 0.981255 0.153855 1 1 2 
8095 6 0.960011 0.0418217 0.15298 0 2 3 
7843 5 0.983767 0.0378291 0.193692 -1 3 3 
7396 5 0.622978 0.0504694 0.158274 1 0 2 
7623 5 0.793098 0.0813875 0.172092 -1 1 2 
5686 6 0.805773 0.0898711 0.155162 -2 1 -2 
8094 5 0.877479 0.0524988 0.169347 4 0 -6 
7472 6 0.373895 0.0583928 0.162271 -1 2 5 
8921 5 0.251148 0.101894 0.204323 1 0 1 
7093 5 0.935943 0.128308 0.160508 0 -1 -2 
8024 6 0.19974 0.0999506 0.168826 4 0 9 
8610 6 0.795946 0.125677 0.175542 3 0 0 
7520 6 0.86336 0.140108 0.1635 3 -4 2 
7856 6 0.171051 0.172654 0.166581 4 -4 3 
5247 5 0.698078 0.163126 0.134515 4 0 -3 
7836 5 0.872624 0.163226 0.167331 -1 5 2 
8768 6 0.988909 0.107032 0.170082 1 -1 -2 
6733 6 0.428992 0.204699 0.196657 3 2 3 
6858 5 0.94384 0.191329 0.176767 -5 1 4 
8820 6 0.9191 0.200506 0.153535 -2 3 1 
5156 6 0.0784045 0.159663 0.173333 -1 -6 -6 
7048 5 0.456845 0.210785 0.183338 1 0 -2 
5378 6 0.652598 0.246639 0.174906 1 0 3 
5870 6 0.953208 0.299437 0.165974 -3 1 3 
7645 6 0.315999 0.293952 0.126871 4 0 -1 
6586 5 0.369664 0.303057 0.179493 1 -1 -3 
8387 6 0.681429 0.28203 0.194451 -1 2 -3 
5965 6 0.719356 0.301161 0.133652 -1 6 -1 
5984 5 0.0785207 0.323081 0.168005 -5 0 -1 
5819 5 0.0911029 0.345304 0.166793 4 2 -1 
6989 5 0.679711 0.388085 0.149303 -2 3 3 
7501 6 0.882245 0.345035 0.185704 0 0 -8 
5704 5 0.96907 0.364753 0.184905 0 1 -4 
5550 6 0.330806 0.436859 0.202924 -4 1 -3 
7965 5 0.947055 0.411938 0.21108 -3 2 3 
8740 6 0.227686 0.434691 0.188653 2 2 1 
7314 6 0.895489 0.424954 0.168003 2 -1 -3 
7849 6 0.0478777 0.451657 0.162495 -8 -2 -7 
8697 5 0.119823 0.423683 0.181927 -3 0 3 
5714 6 0.434868 0.424223 0.1685 1 0 2 
6867 6 0.745353 0.460938 0.180757 0 -4 -3 
5851 6 0.940465 0.452577 0.207212 -2 1 -1 
5574 5 0.316439 0.487243 0.161455 2 -2 1 
7422 5 0.5992 0.476224 0.203506 -6 -1 1 
6906 6 0.657263 0.441794 0.15999 -1 -2 -1 
5698 6 0.422152 0.486115 0.174752 1 -3 4 
7471 5 0.417069 0.506407 0.177739 -1 -1 3 
8913 5 0.66497 0.518273 0.178714 0 -5 1 
8622 6 0.0084646 0.557498 0.182388 4 0 1 
6833 6 0.372203 0.572936 0.13777 -2 -1 0 
8542 6 0.221999 0.613111 0.114996 0 0 -3 
6229 5 0.621842 0.540483 0.164182 2 0 -2 
8497 5 0.57101 0.607538 0.167741 0 0 -2 
6029 5 0.366262 0.5965 0.145387 6 -2 -1 
8163 6 0.675821 0.680474 0.159794 2 -1 0 
6798 6 0.756653 0.644255 0.143004 -1 -2 2 
5619 6 0.975822 0.631513 0.179718 1 -1 -2 
8799 5 0.930096 0.65027 0.162269 0 2 1 
7782 6 0.0156301 0.696655 0.192705 2 -1 1 
7835 6 0.684773 0.68934 0.164672 4 3 1 
5084 5 0.0768208 0.745497 0.189931 3 -6 1 
7465 5 0.85839 0.70646 0.19412 -4 7 -4 
5687 5 0.571145 0.747651 0.169217 2 1 -2 
7026 5 0.0956809 0.777144 0.180579 2 -3 -6 
5633 5 0.167182 0.743846 0.168477 7 -2 -1 
6891 6 0.297581 0.759243 0.196807 0 1 3 
6325 6 0.509329 0.787725 0.188258 -1 1 4 
5760 5 0.636201 0.778582 0.154996 0 1 3 
6022 6 0.79317 0.784797 0.160546 3 2 1 
7509 6 0.350544 0.812215 0.209474 0 -4 0 
5287 5 0.842725 0.831059 0.172671 -4 -4 2 
8090 6 0.370669 0.847261 0.172389 0 -2 0 
7197 6 0.414088 0.827667 0.146905 0 -2 3 
7421 5 0.717168 0.877521 0.190337 0 -2 -2 
5730 6 0.770425 0.795222 0.197648 -1 -5 -6 
5480 6 0.612798 0.8796 0.190927 0 2 1 
5575 5 0.110712 0.91564 0.183406 1 2 -3 
8170 5 0.429793 0.927434 0.175362 0 7 -5 
5341 5 0.0529056 0.992601 0.175509 2 -5 1 
5313 5 0.512006 0.948036 0.181786 -2 -2 -2 
5788 5 0.28724 0.964101 0.17028 4 1 -2 
6110 5 0.351405 0.989845 0.197633 -5 -1 -4 
8051 5 0.774174 0.032078 0.225944 -8 -5 -3 
8140 5 0.0546374 0.0377924 0.199276 -2 -2 -1 
7228 6 0.997505 0.0579446 0.181349 2 0 2 
5307 6 0.864409 0.0786939 0.156894 -4 2 3 
6395 5 0.517131 0.0623763 0.195174 2 5 7 
6153 5 0.112405 0.135043 0.20843 2 -1 0 
8212 5 0.23516 0.111014 0.177851 0 1 -1 
8499 5 0.419958 0.106456 0.216866 0 4 -1 
8033 6 0.360307 0.162114 0.194031 -2 -1 1 
6545 5 0.69096 0.131906 0.189876 0 4 2 
5931 6 0.310927 0.173133 0.209511 0 1 -2 
5642 6 0.0414157 0.2065 0.183769 -6 2 3 
8319 5 0.909185 0.173057 0.180912 -1 4 3 
8504 5 0.961576 0.194994 0.148752 3 2 0 
7490 5 0.010033 0.19158 0.186772 -1 -2 1 
7330 6 0.0773179 0.232859 0.191414 -4 4 1 
7021 5 0.594828 0.230207 0.192865 4 0 0 
5042 6 0.80583 0.23898 0.186631 0 0 2 
6037 6 0.736365 0.256154 0.194151 0 0 2 
6669 5 0.766542 0.210234 0.17276 1 -4 5 
6576 6 0.252427 0.298915 0.181159 4 1 0 
6661 6 0.518051 0.237762 0.196157 1 4 -3 
7756 6 0.362482 0.29506 0.188189 3 -1 1 
8269 5 0.799329 0.28454 0.221246 1 1 -5 
6474 6 0.947715 0.257151 0.186274 -7 0 2 
5544 5 0.664959 0.337794 0.20804 7 1 0 
7910 5 0.884195 0.349528 0.200969 -1 0 -2 
7400 5 0.330917 0.383305 0.20482 -4 -2 1 
5183 6 0.0941527 0.425788 0.184588 2 1 0 
6402 6 0.63078 0.393786 0.182348 1 1 -1 
8305 5 0.873586 0.389942 0.240322 1 -4 -1 
5833 6 0.570772 0.433747 0.206652 -4 4 0 
5809 5 0.038357 0.471533 0.190125 -3 2 -1 
6379 5 0.158596 0.47906 0.169415 5 2 -2 
8692 5 0.602764 0.44177 0.192059 0 -1 -1 
5166 6 0.0234677 0.491479 0.208529 0 1 0 
6231 6 0.0815959 0.492557 0.208413 4 2 3 
8769 6 0.282276 0.523744 0.206192 -2 0 0 
7001 6 0.473218 0.49864 0.229485 -2 3 4 
5419 6 0.12084 0.526646 0.214319 -1 2 0 
5344 5 0.695855 0.56395 0.178255 3 7 1 
5537 5 0.877651 0.561816 0.226614 -2 -2 -3 
6744 6 0.489436 0.557275 0.15142 -1 -4 -1 
5976 5 0.47783 0.500693 0.187716 0 -3 3 
6222 5 0.0986161 0.624442 0.181009 0 1 1 
8279 5 0.044819 0.609788 0.207216 0 -2 -2 
5986 5 0.288231 0.592919 0.205096 2 8 1 
7977 6 0.289164 0.599866 0.206612 -1 -1 3 
7483 6 0.575175 0.585061 0.196363 2 5 0 
6827 5 0.77819 0.602539 0.159683 3 1 -3 
6390 6 0.954863 0.645284 0.187512 4 2 3 
6280 6 0.337053 0.600761 0.184386 3 3 0 