ITEM: TIMESTEP
20000000
ITEM: NUMBER OF ATOMS
9000
ITEM: BOX BOUNDS pp pp pp
-75 75
-75 75
-75 75
ITEM: ATOMS id type xs ys zs ix iy iz 
8132 6 0.0426705 0.974651 0.976225 1 0 0 
6021 5 0.518637 0.984877 0.0403085 -3 0 2 
7056 5 0.0973396 0.039746 0.00137876 0 0 4 
6285 6 0.353063 0.0337874 0.0421224 -4 6 2 
6962 6 0.917424 0.0650594 0.0256191 0 0 -1 
6677 6 0.451494 0.100685 0.00458848 -5 4 0 
5957 5 0.610762 0.06031 0.00617992 -5 4 3 
8151 5 0.65354 0.0763773 0.99307 -3 0 -1 
8648 5 0.328258 0.124931 0.0226999 -6 -4 -3 
5719 5 0.482457 0.109489 0.0307039 3 -3 2 
6221 5 0.451755 0.100524 0.0310142 -3 1 2 
8574 6 0.892658 0.0810954 0.018168 -1 -1 4 
6607 6 0.0825403 0.182065 0.0142337 -2 0 1 
6460 6 0.571497 0.139598 0.0138206 3 0 4 
6942 6 0.780749 0.176892 0.00866352 2 5 4 
5358 5 0.0960807 0.224646 0.0264302 3 -4 -2 
5610 6 0.689796 0.196202 0.988862 6 -1 1 
7543 5 0.81844 0.235895 0.0430072 -1 0 2 
7395 6 0.978534 0.241756 0.0379992 -1 -3 0 
8644 6 0.00182012 0.267612 0.956893 2 1 2 
6976 5 0.493603 0.24625 0.994393 -1 -5 2 
6759 6 0.792468 0.282417 0.0516158 4 1 1 
8773 5 0.563722 0.342544 0.0155197 5 -4 0 
5176 6 0.632413 0.3689 0.974479 -1 -2 1 
7032 5 0.495704 0.334007 0.00432944 -8 4 -1 
6648 5 0.332569 0.388033 0.0166015 -2 5 2 
8349 5 0.725805 0.450953 0.0238737 2 -2 -1 
6687 6 0.0750097 0.481605 0.0216435 -2 2 -3 
7683 6 0.163065 0.415935 0.0306001 1 2 -3 
5860 6 0.28259 0.466452 0.0144619 -6 2 5 
5307 6 0.331924 0.440117 0.994586 -5 0 -5 
6921 6 0.446528 0.467688 0.0181221 0 -1 3 
8105 6 0.438042 0.456788 0.0311906 -3 -2 1 
8491 6 0.671717 0.474931 0.997859 0 -3 -6 
6686 5 0.17993 0.468214 0.0100596 2 -3 2 
6881 5 0.805779 0.521781 0.0360501 -2 -5 2 
7566 5 0.262051 0.576184 0.992474 -2 7 -6 
5602 6 0.0524583 0.580776 0.991156 -1 1 -1 
6224 6 0.317643 0.578139 0.00843422 1 1 8 
8367 5 0.699661 0.565821 0.988236 -1 3 -4 
7260 5 0.300487 0.591417 0.0440953 2 -1 2 
6681 6 0.615519 0.618051 0.982985 -6 2 -4 
8947 6 0.663124 0.64066 0.0381452 0 0 1 
6471 5 0.336401 0.613887 0.00357433 -1 -4 9 
7763 6 0.34179 0.640137 0.0167701 5 -2 -3 
7327 5 0.466636 0.681633 0.997715 -4 0 3 
8263 6 0.813007 0.65859 0.0248712 2 1 0 
5078 6 0.327538 0.651535 0.039037 1 0 4 
6148 6 0.474185 0.665979 0.987989 -5 1 -1 
5214 5 0.644458 0.669962 0.0125637 -1 -1 1 
7852 6 0.637786 0.701701 0.0015251 -2 1 1 
8825 6 0.429257 0.763657 0.956975 -1 0 -1 
5826 6 0.51834 0.720517 0.0333704 -5 5 4 
5071 5 0.774187 0.736296 0.0542167 -3 6 4 
5888 5 0.0606462 0.783395 0.0301614 3 -1 -6 
8009 6 0.600365 0.759063 0.995241 2 -4 -4 
5846 6 0.734159 0.768347 0.991558 -1 1 1 
8743 6 0.0547542 0.801614 0.0147475 4 -1 -2 
6135 6 0.140668 0.770297 0.980705 -3 0 1 
7992 6 0.362833 0.780356 0.0459308 0 0 3 
8872 6 0.375608 0.818582 0.0326362 2 6 5 
6177 5 0.0511007 0.785319 0.0501864 3 3 0 
5977 6 0.765752 0.79727 0.0206816 0 -6 3 
6786 5 0.00846998 0.847974 0.0265419 -1 2 -2 
7512 5 0.126876 0.812425 0.0402114 1 -1 2 
6459 6 0.289687 0.841141 0.00826526 5 -2 -3 
7345 6 0.732787 0.812064 0.00324286 3 -1 -3 
7783 5 0.888763 0.811067 0.00677084 -1 -2 3 
7830 5 0.187708 0.844627 0.000524712 2 1 -1 
6739 5 0.306932 0.794025 0.976418 2 -2 -1 
5117 6 0.380951 0.880127 0.0429514 2 -1 4 
6312 5 0.826747 0.866842 0.0526884 1 -5 -1 
7143 5 0.507483 0.808045 0.00599841 1 -7 -2 
6108 6 0.810357 0.88851 0.965199 -1 -3 -2 
8688 6 0.74843 0.908171 0.0102739 -1 -1 4 
6344 5 0.0650798 0.944589 0.980303 -1 -7 3 
5400 6 0.458785 0.955644 0.998509 -3 5 -4 
6180 5 0.472117 0.916399 0.000819096 -1 -1 -3 
8626 6 0.64378 0.925377 0.968464 2 -8 3 
5884 5 0.847231 0.948237 0.0236312 -5 3 3 
6106 5 0.869795 0.948349 0.991251 -2 1 2 
7502 5 0.0584495 0.95744 0.010249 -3 -3 4 
5490 6 0.440786 0.938631 0.00803217 -4 -1 0 
6348 5 0.628741 0.94524 0.0230978 -1 -3 1 
6541 6 0.792509 0.925072 0.993266 -3 -1 -1 
7610 5 0.953549 0.967188 0.018406 -3 0 1 
6751 6 0.978688 0.0342274 0.0247907 -3 1 1 
8477 5 0.964706 0.0392507 0.0276954 -2 -1 2 
6396 6 0.372329 0.00458532 0.0758486 -2 0 1 
8170 6 0.659181 0.0187227 0.0157619 -1 1 -1 
7172 6 0.679127 0.040558 0.0249081 -4 1 1 
8813 6 0.676509 0.0281221 0.998779 1 0 5 
5374 5 0.504604 0.0835624 0.0101095 4 1 1 
8115 5 0.623354 0.148834 0.0318608 -1 0 1 
8808 5 0.625674 0.115944 0.0397818 2 2 -3 
6705 6 0.364009 0.144784 0.0161203 3 5 1 
7888 5 0.452359 0.168019 0.0319623 6 -1 2 
8651 5 0.674982 0.185697 0.0417708 1 1 4 
8310 6 0.904107 0.178552 0.0391242 3 -5 -2 
8266 5 0.891259 0.17126 0.0242761 7 1 4 
8982 5 0.137041 0.134628 0.0624102 -1 -2 -2 
8197 6 0.264873 0.128335 0.0678264 2 2 0 
8997 5 0.828151 0.178042 0.0411044 4 2 8 
5678 6 0.915325 0.143167 0.0725622 -1 1 -1 
8054 6 0.733314 0.233282 0.0206782 1 -2 -5 
6904 6 0.166689 0.269036 0.0263636 3 0 2 
8207 6 0.620193 0.26526 0.0605184 1 -2 -3 
5480 5 0.63911 0.224667 0.044349 1 1 8 
7518 5 0.490519 0.212407 0.0210458 -1 1 1 
6439 6 0.242438 0.326806 0.0716974 5 1 -5 
5653 5 0.361061 0.272465 0.0269475 1 -1 0 
5686 6 0.74708 0.260965 0.0695365 2 0 -1 
6064 5 0.228114 0.306226 0.0600768 -2 -3 1 
8162 6 0.696062 0.372867 0.0356982 -3 1 -1 
7122 5 0.961875 0.403391 0.0446734 -2 3 1 
6858 6 0.303647 0.381573 0.0338101 -2 3 4 
8375 5 0.883519 0.416361 0.0221462 -4 1 1 
6923 6 0.105559 0.420431 0.0397243 2 2 -1 
8499 6 0.414249 0.402971 0.00728244 -2 2 -4 
5965 5 0.418758 0.431791 0.0120004 1 0 -4 
7382 5 0.529569 0.437337 0.992492 2 1 7 
6423 5 0.557915 0.44595 0.0537712 3 1 1 
7822 6 0.557848 0.402242 0.0218219 0 -1 0 
8231 5 0.0553052 0.395644 0.0113498 2 0 3 
8581 6 0.606357 0.482933 0.0694981 -3 7 -7 
8048 6 0.771137 0.515831 0.0207479 -2 2 3 
6202 6 0.00504995 0.451775 0.059536 0 0 -2 
6188 5 0.454629 0.496984 0.0459633 -5 -2 1 
6936 6 0.0676414 0.486756 0.041638 0 0 4 
6891 6 0.960763 0.510374 0.0526114 2 0 0 
6806 6 0.2313 0.549002 0.0349591 9 4 0 
6350 6 0.236531 0.537008 0.0378397 -1 3 -2 
5887 6 0.548724 0.525394 0.0428858 2 1 0 
6111 6 0.850228 0.554291 0.0152595 -5 -2 -9 
5666 5 0.00924499 0.546438 0.0664002 1 5 2 
8088 5 0.790237 0.59179 0.0463116 0 -4 0 
8511 6 0.817185 0.536318 0.00242536 -2 -2 -5 
5955 5 0.151634 0.597834 0.0373527 -1 3 -2 
8465 6 0.804627 0.54016 0.00356511 -2 -2 10 
7970 6 0.633201 0.599451 0.0586639 0 0 1 
8476 5 0.71777 0.61866 0.0273506 -1 3 -3 
6643 5 0.263364 0.604316 0.0268489 4 0 -1 
5245 6 0.767126 0.611969 0.00112607 -4 -1 -2 
5577 6 0.248342 0.668613 0.991393 4 -1 -1 
6939 6 0.720512 0.650519 0.0153936 -3 7 -2 
8046 6 0.72912 0.694034 0.0339463 -1 8 -2 
5949 6 0.0969259 0.706386 0.00165806 6 0 1 
8893 5 0.246175 0.701409 0.0543814 -1 -2 1 
6898 6 0.387922 0.698812 0.0152022 4 0 1 
7596 6 0.752109 0.781472 0.0247058 -4 2 1 
8314 6 0.960364 0.771153 0.0227065 6 -2 1 
6103 6 0.8904 0.794888 0.0282599 3 4 -2 
5376 5 0.889232 0.776403 0.073197 -3 2 4 
5634 6 0.0960191 0.784834 0.0459417 -2 0 1 
5974 6 0.526846 0.807028 0.0671873 -1 -2 -1 
7348 6 0.141488 0.836174 0.0573023 -3 -5 0 
8431 6 0.706764 0.791409 0.0329131 1 0 -1 
7672 6 0.296587 0.855328 0.0329884 2 0 -1 
5187 5 0.326342 0.863931 0.991963 -5 4 7 
8226 5 0.461523 0.901529 0.996271 -7 -3 -2 
8493 5 0.627278 0.835307 0.05709 -2 1 -4 
6504 6 0.000320148 0.810467 0.0431229 -1 -1 0 
8980 5 0.133346 0.907734 0.04746 -4 0 -1 
6013 5 0.38733 0.915265 0.0266099 -2 0 2 
6187 6 0.0029225 0.893472 0.00511587 6 0 2 
7629 5 0.171109 0.933033 0.0190616 1 1 1 
7198 5 0.485484 0.891487 0.0413882 -2 -2 1 
6291 5 0.551983 0.927342 0.0526713 4 0 3 
5251 6 0.0588784 0.984609 0.0455061 1 -2 0 
7496 5 0.850088 0.943479 0.0528656 8 -3 1 
5714 5 0.192528 0.00440696 0.0394139 3 -5 2 
6333 5 0.494273 0.990198 0.0204605 -1 -4 2 
5985 5 0.348598 0.00470481 0.0604956 1 -1 -2 
7109 5 0.807031 0.065401 0.0509836 -4 5 3 
5289 6 0.206887 0.106141 0.0531839 0 -3 -3 
6951 5 0.714006 0.110888 0.0422538 -2 3 4 
7910 5 0.165087 0.110553 0.0674864 -3 -4 2 
7574 5 0.982636 0.0817903 0.103549 -6 0 3 
6586 5 0.00139729 0.128766 0.0618834 1 1 5 
7959 5 0.44205 0.129732 0.0862926 -1 -1 3 
8192 5 0.955209 0.0848198 0.0579685 -2 -1 -1 
6980 6 0.032989 0.159454 0.0718872 2 -5 2 
6241 5 0.864575 0.174636 0.0454987 -2 2 -1 
6966 5 0.987328 0.0932548 0.0534024 -5 1 0 
7113 5 0.0261989 0.17088 0.0886605 -2 0 -1 
8655 6 0.439211 0.178062 0.0732722 -1 -3 0 
5927 6 0.30252 0.194514 0.0355356 1 1 0 
7186 5 0.639216 0.193007 0.0358856 0 3 1 
5731 5 0.622673 0.224537 0.0652188 1 2 -3 
7884 6 0.630131 0.212667 0.0228527 0 1 7 
5960 5 0.837657 0.241175 0.0729927 4 -2 3 
8297 5 0.183679 0.213653 0.0493347 2 4 5 
8910 5 0.868982 0.263881 0.0391743 -3 3 1 
5651 6 0.0116513 0.244368 0.0661946 -4 3 0 
6407 6 0.00517722 0.29178 0.070715 2 4 -5 
8488 6 0.472664 0.257502 0.0445109 5 3 0 
6937 6 0.733061 0.269195 0.056579 0 -6 3 
8453 6 0.397724 0.283647 0.063143 0 1 -1 
6023 5 0.616174 0.373788 0.0205694 -1 -4 1 
7054 5 0.021075 0.451969 0.0415699 7 -3 3 
5147 5 0.0589061 0.447547 0.0601911 0 -2 -1 
5933 6 0.380039 0.473071 0.992682 4 -1 -3 
8409 5 0.349493 0.468683 0.0662325 4 6 0 
5849 5 0.58849 0.480877 0.093618 -4 6 -2 
6940 5 0.896535 0.479524 0.0496134 6 0 -1 
7687 6 0.333961 0.514746 0.0853796 0 2 5 
6230 6 0.740329 0.475493 0.0377777 -4 -5 3 
8103 5 0.523168 0.530481 0.0187789 2 3 5 
8959 6 0.892904 0.550161 0.0586643 0 3 6 
8173 6 0.530998 0.547072 0.0409828 -1 -5 2 
5580 6 0.52545 0.580479 0.0464195 5 0 1 
5220 6 0.956817 0.553818 0.0742027 -2 -4 4 
6615 6 0.26596 0.617095 0.0473949 0 1 -1 
8937 6 0.899471 0.641706 0.0653672 6 0 0 
5618 6 0.0592877 0.618785 0.0462229 -5 4 -5 
6737 6 0.911139 0.634927 0.0399188 2 -5 1 
7456 5 0.799177 0.68405 0.0813677 -7 0 -3 
5915 5 0.148323 0.683233 0.0302502 -3 2 4 
5721 6 0.439719 0.709882 0.0365714 4 -1 -1 
6100 6 0.979512 0.711544 0.0802564 1 1 6 
7221 6 0.197149 0.701063 0.0574795 -3 4 0 
8901 6 0.344663 0.753977 0.0948177 0 1 2 
5006 5 0.364512 0.721719 0.0522081 0 -2 -3 
8049 5 0.537811 0.760155 0.0325779 0 -2 4 
7658 5 0.739944 0.753905 0.0515572 -4 -1 1 
6080 5 0.872622 0.754825 0.04173 0 -3 0 
6092 5 0.964574 0.738004 0.0474374 -4 -2 -1 
7747 6 0.148415 0.766258 0.0712744 -2 -1 0 
7384 6 0.485107 0.817431 0.0544317 -1 -2 -2 
5640 6 0.543062 0.813688 0.0171789 -4 -4 4 
6105 6 0.586684 0.832586 0.0631643 -6 -3 4 
8550 5 0.799267 0.825504 0.0994399 0 2 0 
7775 5 0.962054 0.841388 0.0268719 -5 -1 6 
6403 6 0.995912 0.831763 0.0438639 5 -4 3 
7885 5 0.128818 0.836186 0.0700948 -3 -5 0 
6796 6 0.615592 0.829051 0.0665563 4 3 -2 
6629 6 0.923077 0.809355 0.0751557 0 -2 -4 
6770 6 0.136809 0.913689 0.0963109 -3 4 -2 
6360 5 0.36417 0.850487 0.089826 0 -4 4 
8458 6 0.560034 0.90369 0.0713045 -5 -1 -1 
5798 6 0.314765 0.962008 0.0304636 1 -2 -1 
8030 5 0.442993 0.904536 0.0843148 0 -3 -2 
6745 5 0.971121 0.892392 0.060177 0 -3 0 
5911 6 0.0735408 0.945342 0.0690651 2 -1 7 
7286 6 0.0785928 0.929923 0.0503024 -3 1 -2 
7855 6 0.153585 0.917567 0.0791029 5 0 1 
5748 5 0.217901 0.923197 0.0697794 0 -2 -7 
6578 5 0.580652 0.957549 0.0556889 6 -2 3 
5312 6 0.685488 0.949715 0.0258068 3 -1 1 
5200 6 0.409479 0.985859 0.0196513 1 -5 3 
8428 5 0.56682 0.941021 0.0715775 -4 0 3 
5901 6 0.821853 0.959461 0.0606304 1 -2 0 
7767 5 0.948719 0.937681 0.0179778 1 3 -4 
5079 6 0.104193 0.987997 0.0688897 1 0 1 
5708 6 0.437023 0.997214 0.0681805 -2 -3 -1 
8245 5 0.51336 0.0083067 0.0504623 -2 1 -4 
8854 5 0.613179 0.995551 0.0597124 -2 5 4 
5425 6 0.788572 0.00234759 0.0404781 4 -3 -2 
8287 6 0.748747 0.032346 0.108985 4 0 -1 
6222 6 0.784158 0.080137 0.0727606 -5 -3 -2 
5342 5 0.000454324 0.0578278 0.0601639 1 1 5 
8233 5 0.156239 0.0815829 0.0518815 -3 3 3 
7823 5 0.114417 0.0861522 0.0568497 3 -3 4 
6066 5 0.422503 0.141758 0.0684607 1 -7 -4 
8141 5 0.665987 0.127873 0.0605872 -3 5 -3 
6316 6 0.734019 0.149937 0.0999096 -5 7 -3 
5750 5 0.40824 0.183489 0.0414339 4 1 -1 
8718 5 0.492454 0.149949 0.053622 -1 -5 -4 
5705 5 0.745685 0.146422 0.0474372 0 -4 2 
5766 5 0.193463 0.19232 0.103434 -3 2 0 
5250 6 0.505439 0.184303 0.0733059 2 -3 1 
7980 6 0.320614 0.187507 0.0817291 -3 1 -4 
8597 5 0.282874 0.212398 0.0972798 0 0 3 
7633 5 0.389778 0.230611 0.074448 4 -1 0 
7188 6 0.581249 0.256698 0.0919425 3 -2 -1 
5387 6 0.165513 0.253556 0.0965302 4 -2 -2 
5315 6 0.647921 0.253219 0.0918172 -2 6 -4 
6552 5 0.441446 0.324178 0.0712298 -2 1 -1 
7553 5 0.220173 0.345945 0.0732477 6 -3 -1 
5899 6 0.464762 0.326322 0.0974958 1 -5 0 
6783 5 0.0699391 0.328869 0.0750311 2 3 2 
7048 6 0.669336 0.359643 0.0648257 -5 1 0 
7214 6 0.174125 0.412732 0.0790812 6 0 -1 
6702 6 0.543333 0.423064 0.0998295 -4 -2 0 
8056 6 0.815049 0.444076 0.0855739 0 -1 1 
8015 6 0.148363 0.437478 0.051811 4 0 -2 
7778 6 0.50278 0.442546 0.0785051 -1 -2 3 
6436 5 0.819382 0.434858 0.0760119 2 -2 -4 
7474 6 0.455109 0.485321 0.0643168 2 0 5 
5813 6 0.713464 0.479354 0.0916421 -1 0 4 
7042 6 0.724768 0.509942 0.080807 -3 1 2 
6227 6 0.971966 0.560398 0.0889465 3 3 0 
8024 5 0.623002 0.544035 0.0553293 1 1 -2 
7241 6 0.300096 0.599261 0.111919 0 -3 -1 
6967 6 0.29359 0.615141 0.0315371 -1 6 -2 
5918 6 0.397909 0.609543 0.0822257 -1 -1 -2 
6475 6 0.0821416 0.633041 0.0616064 3 -5 -3 
6989 5 0.842287 0.639083 0.0695326 -5 -1 -4 
6261 6 0.18714 0.682444 0.063517 -2 2 2 
6210 6 0.241838 0.648191 0.0935041 -6 -3 5 
5357 6 0.19416 0.712735 0.0268952 1 4 1 
5787 6 0.264 0.683941 0.118489 -2 2 4 
6605 6 0.267099 0.64044 0.109384 4 -2 2 
8256 5 0.597024 0.692887 0.0733634 1 5 2 
8818 5 0.608332 0.699685 0.102884 -2 -2 -3 
6855 5 0.198 0.705199 0.110084 5 -4 -6 
8247 6 0.0777769 0.764305 0.0942078 1 2 -5 
6359 6 0.249291 0.748961 0.0640813 1 -3 3 
8494 5 0.73098 0.739463 0.0835276 6 -2 1 
8223 5 0.562092 0.735425 0.0915349 6 -1 3 
8269 6 0.372457 0.813616 0.0715993 1 -3 3 
7954 5 0.481422 0.794879 0.0887186 -5 -3 0 
5491 5 0.797393 0.780813 0.0807499 -1 -5 6 
7674 6 0.808977 0.806498 0.0571538 -6 2 3 
5143 6 0.925143 0.827416 0.0877918 -4 1 1 
8978 6 0.957051 0.855027 0.0729514 3 2 2 
6866 6 0.202844 0.866937 0.0906563 -1 2 0 
5036 5 0.538263 0.850762 0.0470452 3 -5 -3 
5865 5 0.800775 0.860887 0.100901 -2 3 2 
8364 5 0.0620315 0.878108 0.112012 1 3 -1 
6670 5 0.133673 0.868681 0.0605667 1 1 -4 
5153 6 0.418978 0.891209 0.0545986 0 6 -2 
6930 6 0.484858 0.880206 0.081453 -4 -2 1 
7536 5 0.861658 0.880628 0.0949961 -4 -1 2 
5172 5 0.1553 0.946546 0.0679472 -5 2 3 
7684 5 0.964147 0.967368 0.0431486 0 0 -3 
5368 5 0.132083 0.978171 0.0750704 -2 0 3 
5089 6 0.960401 0.975179 0.107552 -4 3 -5 
8839 5 0.226149 0.97996 0.0874528 -2 -2 5 
5586 6 0.391016 0.0103682 0.0720563 -2 6 -1 
7386 6 0.414616 0.0358558 0.0848416 1 1 0 
7846 6 0.558581 0.0428706 0.10182 0 0 -6 
8143 6 0.593313 0.0497907 0.101664 0 -1 -1 
7824 5 0.651388 0.0611197 0.0838808 -1 -1 -3 
5997 6 0.0408533 0.104299 0.100323 -1 2 -2 
7568 6 0.0964471 0.20013 0.115541 2 -1 6 
7001 6 0.437005 0.158762 0.080443 3 2 1 
6743 6 0.710608 0.109516 0.13682 6 0 3 
5323 6 0.799761 0.132884 0.0934239 -4 2 -2 
7089 6 0.24129 0.150877 0.133101 2 1 1 
6476 5 0.311647 0.181746 0.105649 3 -2 -2 
7837 6 0.693651 0.180998 0.062734 1 -2 3 
5104 5 0.824295 0.224264 0.105909 3 -1 2 
7598 6 0.896544 0.226694 0.0930119 1 2 1 
5907 5 0.176741 0.229936 0.108864 -5 2 -3 
6353 5 0.282626 0.243982 0.0874638 1 4 2 
5673 6 0.301477 0.290255 0.0792302 1 0 3 
5898 6 0.469599 0.335682 0.0654702 4 2 -1 
6427 6 0.808437 0.323086 0.068635 1 1 -4 
5232 6 0.310922 0.356516 0.0590181 0 4 -2 
7625 6 0.341412 0.347746 0.106467 2 -2 5 
7338 6 0.608194 0.368209 0.061467 4 -3 4 
5375 6 0.729571 0.440525 0.0945149 -3 0 2 
7272 6 0.878604 0.362743 0.097749 -4 1 0 
7850 6 0.902737 0.456367 0.0793188 1 0 3 
6558 6 0.482851 0.461685 0.102647 -3 1 -5 
8407 6 0.371097 0.452726 0.106335 -1 4 -3 
5926 5 0.911326 0.450344 0.150271 -3 0 3 
5621 6 0.0228603 0.493969 0.10639 8 -3 0 
5756 6 0.209005 0.500398 0.123353 2 3 7 
8632 6 0.916446 0.493759 0.104783 -2 3 3 
6289 6 0.744522 0.55492 0.0971299 3 2 0 
5569 6 0.496399 0.572567 0.0706409 1 2 0 
5087 6 0.641468 0.577046 0.107573 6 0 4 
5282 6 0.68328 0.534735 0.149076 1 3 -3 
5615 5 0.728174 0.518448 0.120172 2 -4 3 
6379 6 0.930619 0.54621 0.112709 -2 2 2 
5931 6 0.0776686 0.591891 0.0749445 1 1 -2 
8190 6 0.461223 0.593206 0.109312 0 -4 0 
6656 5 0.75039 0.624084 0.0789751 -1 0 -1 
5073 6 0.81014 0.601459 0.0975277 4 -1 0 
8213 6 0.172421 0.637419 0.0946583 -3 3 5 
5499 5 0.902971 0.674199 0.0798926 4 0 -3 
7695 5 0.23055 0.688752 0.10592 6 3 -4 
5462 6 0.344703 0.649474 0.113715 -4 -1 1 
8885 6 0.758747 0.643112 0.075719 -2 -1 0 
8059 6 0.634718 0.736295 0.108908 -1 2 -4 
8412 5 0.65192 0.722339 0.0859292 -3 3 -4 
5938 6 0.977299 0.716135 0.105053 1 2 -2 
7676 6 0.611774 0.746895 0.0987654 2 2 -6 
7438 5 0.937361 0.72635 0.0963252 3 4 -1 
7961 6 0.423483 0.754405 0.125915 1 -3 -2 
5498 6 0.538729 0.74952 0.0841856 1 3 -2 
7239 5 0.920724 0.727308 0.0900787 -1 -4 2 
6894 5 0.270629 0.800148 0.0894129 0 3 -1 
8523 6 0.568061 0.81582 0.0999216 1 1 -5 
5601 6 0.894439 0.843989 0.136695 -7 6 -1 
8384 6 0.159029 0.821105 0.129566 7 -1 5 
8369 5 0.701165 0.818243 0.127366 -8 -3 2 
8053 6 0.840111 0.841512 0.121216 -4 0 0 
8878 6 0.241307 0.862812 0.101295 0 -1 5 
6952 5 0.752237 0.849849 0.104203 4 5 2 
6863 6 0.285513 0.915458 0.0874891 -2 -5 3 
7807 6 0.439849 0.915263 0.107147 1 -5 4 
7912 5 0.562168 0.839692 0.107579 0 1 -2 
7459 6 0.651299 0.867985 0.0681329 -1 -3 -3 
6764 5 0.846123 0.91318 0.115382 1 -7 -1 
8850 6 0.0114536 0.932028 0.135934 1 5 4 
7165 6 0.298767 0.985279 0.138086 1 2 3 
6315 6 0.839183 0.949366 0.109297 -3 4 1 
5378 6 0.273524 0.975502 0.103232 3 1 2 
8083 5 0.788715 0.0120004 0.141034 0 1 3 
6152 5 0.170629 0.0221626 0.137042 3 0 0 
8238 6 0.368407 0.0511352 0.142932 -1 -3 2 
8637 6 0.649393 0.0359232 0.116364 -2 3 -3 
8301 5 0.699004 0.0397346 0.125669 1 2 1 
5986 6 0.617231 0.0653499 0.137813 -2 0 -2 
6351 5 0.816897 0.102036 0.0989202 -3 1 3 
5482 6 0.971992 0.100715 0.0951851 1 0 2 
5992 6 0.7001 0.143589 0.0934047 -5 2 0 
7770 5 0.815703 0.147816 0.103115 0 -2 -2 
8122 6 0.629774 0.173308 0.124846 1 3 5 
7974 5 0.990487 0.220172 0.0703992 -1 -4 -2 
6635 5 0.247242 0.200401 0.158757 0 1 1 
8057 5 0.676532 0.206262 0.11059 -4 0 -1 
7711 5 0.274734 0.254278 0.158574 -4 -4 -2 
7631 6 0.620388 0.286122 0.119678 -2 -1 5 
7709 5 0.622693 0.347002 0.121582 2 2 1 
7988 6 0.493576 0.293087 0.128644 3 5 3 
8786 6 0.82685 0.304937 0.0748366 1 -3 -2 
8621 6 0.826062 0.341262 0.107007 3 0 5 
8681 5 0.867584 0.348261 0.13017 6 2 0 
8175 6 0.105973 0.359079 0.108844 3 5 -2 
6088 5 0.163206 0.358148 0.109233 2 4 -1 
8613 6 0.450739 0.441353 0.0979723 4 -3 -1 
7434 5 0.44267 0.367516 0.146396 3 1 -2 
7429 6 0.642014 0.347518 0.131438 -4 0 -1 
5446 6 0.884174 0.409608 0.130725 -6 -5 -1 
5777 6 0.984083 0.403621 0.126044 2 -5 5 
8363 5 0.653548 0.416755 0.107228 -1 1 -1 
6342 6 0.767663 0.387983 0.146854 -1 -2 3 
7765 6 0.430729 0.430869 0.123002 3 -2 -2 
7546 6 0.998403 0.459417 0.115385 -2 2 2 
5652 5 0.396586 0.442422 0.158911 3 -3 0 
6346 5 0.87681 0.468474 0.115986 2 0 0 
5924 6 0.761838 0.451225 0.128056 -4 -2 -5 
7287 5 0.307617 0.478966 0.110344 -2 1 -4 
8874 6 0.559373 0.464121 0.147172 5 1 4 
5736 5 0.692403 0.498555 0.162162 0 3 2 
8446 6 0.191188 0.509347 0.12575 -3 -3 1 
8114 5 0.63463 0.510382 0.122245 0 -8 3 
8697 6 0.285688 0.537894 0.137502 1 -1 -4 
6857 6 0.157508 0.581324 0.124384 3 -4 -1 
6319 5 0.504279 0.548076 0.103527 0 0 0 
6655 6 0.019382 0.569376 0.139221 0 -3 5 
5836 5 0.10043 0.636967 0.132674 -4 2 -2 
8258 6 0.173581 0.651765 0.110398 -3 1 -4 
6817 5 0.434639 0.6099 0.0863662 3 -4 1 
7216 5 0.654288 0.549199 0.132358 3 3 -1 
5134 5 0.454271 0.617324 0.103793 1 1 -5 
6404 5 0.848398 0.657589 0.165268 -1 2 -1 
7187 6 0.0652226 0.663966 0.132194 5 5 -3 
6576 6 0.40437 0.654618 0.158657 4 -1 -2 
5506 5 0.410278 0.650123 0.115203 1 4 3 
5873 5 0.112217 0.694812 0.120708 -3 -3 0 
5838 5 0.403876 0.666005 0.138285 -3 2 -3 
5162 5 0.839959 0.737335 0.184377 -1 0 -5 
7117 6 0.747165 0.754221 0.164348 3 2 2 
7295 5 0.82215 0.781755 0.117011 -1 -5 4 
5290 6 0.0640029 0.821828 0.167514 3 -1 -3 
7883 5 0.139154 0.765071 0.105054 -3 -3 2 
6258 5 0.394266 0.83448 0.134785 -2 2 2 
8239 6 0.424461 0.838745 0.115401 0 1 0 
8585 6 0.458189 0.859335 0.140027 1 -2 -2 
8704 5 0.899434 0.849263 0.151658 2 3 2 
5858 6 0.751961 0.823387 0.11312 2 3 3 
6711 5 0.0929562 0.854881 0.143111 1 3 1 
7645 5 0.0362629 0.912848 0.104482 1 5 -2 
7694 5 0.0502559 0.903092 0.15201 -1 3 -3 
8039 5 0.636403 0.890014 0.139162 0 2 2 
7921 6 0.711634 0.884675 0.102616 -2 -3 0 
6223 5 0.721868 0.865475 0.0885988 -3 -1 -1 
5503 5 0.854862 0.888043 0.118977 -1 -2 4 
7220 5 0.604289 0.915514 0.138601 -4 2 0 
8595 6 0.80069 0.99694 0.13903 -2 -2 0 
8755 5 0.566978 0.948825 0.0876245 5 -2 0 
6968 5 0.727791 0.991847 0.111337 1 0 4 
7663 5 0.959108 0.978998 0.142164 1 -1 1 
7500 6 0.730742 0.0164819 0.117136 -2 7 -1 
6129 5 0.0717929 0.94666 0.176422 -4 -2 -1 
7342 6 0.241199 0.00886728 0.147513 0 2 0 
5115 6 0.237953 0.0113407 0.177838 1 -2 -1 
6944 6 0.830137 0.0637386 0.120886 -4 -6 3 
5745 5 0.0531304 0.0710618 0.192143 0 -1 0 
5457 6 0.396302 0.109911 0.159403 1 2 3 
7449 6 0.633479 0.0848264 0.149965 -1 6 -1 
5182 5 0.841307 0.133109 0.191168 0 -1 3 
7005 5 0.146933 0.0816752 0.109275 0 -5 1 
5372 6 0.218581 0.160559 0.154667 -2 -2 0 
5005 5 0.196845 0.15695 0.148814 -1 -2 2 
7192 6 0.183248 0.191979 0.105387 -6 -2 0 
8234 5 0.471582 0.230454 0.175306 -1 -2 7 
8204 5 0.740141 0.226583 0.150117 -3 1 -4 
5857 6 0.431371 0.249668 0.143928 2 -3 5 
7641 6 0.477056 0.221779 0.128663 -2 -2 -1 
6008 5 0.939719 0.243068 0.154533 0 -1 1 
5292 5 0.0909706 0.308995 0.120879 -2 -3 -1 
6130 5 0.187986 0.295822 0.121525 0 0 1 
6370 5 0.361534 0.258623 0.15511 -4 -1 0 
5284 6 0.674759 0.327019 0.0888016 -2 -4 -1 
6234 5 0.386996 0.303469 0.128853 0 0 0 
6528 5 0.62998 0.320654 0.115719 1 4 -1 
6821 5 0.772944 0.33378 0.156799 0 5 -3 
6178 5 0.0805675 0.354729 0.104537 1 3 -4 
7473 5 0.220391 0.322987 0.173178 2 2 1 
8344 6 0.77493 0.394375 0.157051 -3 1 -4 
5133 5 0.143059 0.389205 0.124678 -2 -2 -3 
8742 5 0.216761 0.357214 0.121515 0 2 -6 
7464 6 0.431622 0.413751 0.142084 1 1 1 
8616 6 0.308161 0.40214 0.146892 -1 3 -1 
8781 6 0.375996 0.387282 0.140254 0 -5 2 
6573 6 0.37929 0.379569 0.156812 -5 -3 -2 
5811 6 0.600076 0.400488 0.132235 -1 0 -7 
7300 5 0.518885 0.429309 0.164966 -3 2 -1 
7130 6 0.910787 0.456213 0.122174 1 3 0 
6810 5 0.802649 0.467415 0.149013 2 1 3 
5495 6 0.289215 0.49533 0.176314 1 -1 -1 
7366 6 0.896803 0.466145 0.115309 2 -1 -2 
5713 6 0.71322 0.47761 0.125507 1 1 -6 
5806 6 0.577493 0.496492 0.140503 -2 5 2 
6141 6 0.453949 0.502827 0.142759 -5 2 1 
7378 5 0.706432 0.571159 0.143053 -6 2 -2 
5228 5 0.990795 0.563044 0.146116 -1 1 -3 
6402 6 0.538283 0.523981 0.162771 -1 -1 -1 
7926 5 0.684357 0.546753 0.154823 3 -1 1 
6566 5 0.0836827 0.599691 0.169187 -1 -1 6 
5404 6 0.0267569 0.556808 0.109878 0 -1 -1 
8779 6 0.176863 0.61392 0.136354 3 -1 4 
7328 6 0.462568 0.633201 0.157593 0 1 2 
8150 5 0.649574 0.650435 0.158447 -1 -1 2 
8828 6 0.0605063 0.677795 0.130495 1 1 2 
7977 5 0.495389 0.671767 0.149345 -5 0 -2 
7975 6 0.723905 0.714405 0.158104 5 5 1 
6190 5 0.781911 0.720504 0.149453 1 -3 -2 
5635 6 0.0966336 0.717595 0.141537 0 -2 -1 
5301 6 0.756463 0.714148 0.120866 -4 -3 3 
5055 6 0.504227 0.777819 0.146845 -1 -2 -1 
7757 6 0.135439 0.788815 0.159106 0 -1 7 
6250 6 0.237573 0.759567 0.150529 0 -4 -2 
5233 6 0.512112 0.755615 0.186476 -4 0 0 
5019 5 0.781052 0.780762 0.146104 2 0 5 
8949 5 0.805421 0.813417 0.141247 8 -2 -4 
5485 6 0.036151 0.84445 0.196541 0 -5 6 
7051 6 0.434296 0.796701 0.16296 0 -1 3 
8203 5 0.0268637 0.786603 0.144425 3 -2 0 
5649 6 0.375762 0.823476 0.143815 -1 2 -1 
7724 6 0.506938 0.815002 0.132905 2 -4 1 
8097 6 0.62387 0.825418 0.130268 4 -2 3 
7710 5 0.727027 0.822155 0.145079 5 -1 -3 
7953 6 0.912703 0.821999 0.130283 1 4 4 
7097 5 0.160727 0.872674 0.164738 -7 -1 1 
5203 5 0.205835 0.873174 0.157353 -2 1 -2 
8663 6 0.322738 0.859222 0.118742 3 3 5 
5847 5 0.583082 0.860306 0.162934 0 1 -1 
6158 6 0.33512 0.86661 0.138509 4 -1 -1 
6595 6 0.677171 0.857896 0.153381 3 0 0 
7537 6 0.389117 0.941839 0.194854 2 -2 -3 
8129 5 0.163398 0.941142 0.133699 0 2 1 
8847 6 0.905714 0.922945 0.125184 -5 1 0 
7602 5 0.753525 0.965117 0.150456 -1 -1 -2 
5186 5 0.51582 0.0134724 0.144425 -1 -7 0 
8031 6 0.485928 0.981397 0.118131 3 3 3 
7946 5 0.78212 0.00715476 0.188356 3 1 2 
7098 5 0.903443 0.0033405 0.162869 -1 2 3 
7762 5 0.823794 0.996033 0.134547 4 2 1 
5563 6 0.58121 0.0316072 0.140364 3 -4 -2 
5749 5 0.0597973 0.0813484 0.176548 0 -1 -4 
7652 5 0.602716 0.0654252 0.204068 2 -1 -3 
6647 6 0.0163337 0.0785539 0.145172 3 -2 9 
7727 6 0.0121702 0.181882 0.20332 -3 1 1 
7363 6 0.12462 0.149769 0.185215 2 0 -2 
7998 5 0.416871 0.104253 0.14917 2 -2 0 
8766 6 0.698572 0.155222 0.168064 -3 2 5 
7647 6 0.791607 0.104526 0.160033 0 -2 0 
7104 6 0.908255 0.19704 0.141765 3 0 2 
5502 6 0.591785 0.234555 0.176774 -3 -4 0 
6771 5 0.868553 0.279035 0.150385 1 -1 -1 
5510 5 0.0574592 0.244015 0.155208 1 2 -2 
6491 6 0.126261 0.266989 0.166791 -1 -2 -5 
8759 5 0.260648 0.240978 0.173325 1 0 1 
7234 5 0.297174 0.287107 0.143456 2 6 1 
6380 6 0.310051 0.268321 0.180229 -1 1 0 
5782 6 0.432419 0.255394 0.180155 1 1 -1 
5595 6 0.798309 0.248179 0.180675 0 1 0 
6424 5 0.814877 0.27721 0.193351 -1 0 4 
6861 5 0.230102 0.290221 0.140789 -1 -2 7 
5191 6 0.419819 0.31331 0.157692 1 0 -1 
7914 5 0.754963 0.332471 0.148577 -2 1 -5 
6924 6 0.942572 0.363716 0.130355 1 -4 0 
8830 5 0.88958 0.329496 0.177897 1 3 -1 
8448 6 0.94123 0.397035 0.171865 -4 0 2 
7808 6 0.0472956 0.38335 0.209753 -5 7 0 
7448 6 0.37503 0.424606 0.185841 0 -4 1 
5327 6 0.541292 0.41067 0.16471 -3 1 -5 
7132 6 0.630289 0.444447 0.174401 -1 -1 2 
7934 5 0.62066 0.426359 0.157156 -2 4 -3 
5625 6 0.500133 0.44712 0.173908 3 2 1 
7232 6 0.560016 0.499879 0.168517 -2 -5 -3 
5258 6 0.0735415 0.535414 0.191556 3 3 1 
6885 6 0.0706057 0.490504 0.181015 0 -1 -2 
6516 6 0.391874 0.470966 0.13789 1 5 -2 
8896 6 0.536364 0.453222 0.16176 3 -4 -2 
8689 5 0.847958 0.487342 0.149564 3 1 -1 
7387 5 0.0898967 0.540166 0.188803 4 1 -4 
5533 5 0.470282 0.524396 0.193442 1 0 -1 
7422 6 0.0483586 0.490116 0.169604 -3 1 2 
8430 5 0.258835 0.536468 0.152592 0 -2 -3 
8784 6 0.722798 0.535053 0.168952 1 -3 0 
5198 6 0.484274 0.569249 0.134752 4 -2 3 
7003 5 0.383969 0.58352 0.126172 4 1 1 
8062 5 0.600799 0.564616 0.159315 -1 -1 1 
8221 6 0.682535 0.584038 0.186018 2 -2 -4 
8404 5 0.166389 0.61346 0.180694 2 0 2 
7789 6 0.217044 0.596871 0.175356 -1 2 -2 
5244 5 0.544715 0.637768 0.176862 -3 -4 4 
6481 5 0.00105545 0.663992 0.165756 1 5 -2 
5080 6 0.378601 0.64651 0.17279 3 -3 0 
8763 6 0.570065 0.587219 0.183193 2 -2 0 
8276 5 0.990988 0.658606 0.142183 4 -2 -1 
5423 6 0.237982 0.69359 0.173532 5 -6 5 
7376 5 0.228389 0.696779 0.164663 3 0 2 
6049 5 0.895654 0.68241 0.181829 -1 3 5 
7582 6 0.610583 0.704998 0.151966 3 -1 4 
5255 5 0.829567 0.668815 0.195127 -6 1 0 
5020 6 0.463873 0.694992 0.172534 0 2 -3 
5062 6 0.00594489 0.686452 0.17374 1 4 4 
8732 5 0.0750375 0.733081 0.169986 2 -1 0 
5035 5 0.501572 0.723522 0.170519 5 2 -5 
8290 6 0.00801939 0.762137 0.142274 1 -3 5 
5094 5 0.111654 0.77104 0.142184 2 -1 7 
8630 6 0.165239 0.819431 0.162744 7 -3 -1 
6410 6 0.760608 0.817501 0.16751 -8 -2 -2 
5925 5 0.557679 0.882637 0.161528 1 -3 0 
6577 5 0.65378 0.820179 0.167433 4 1 5 
5139 6 0.851085 0.90613 0.164666 -1 -2 3 
6958 5 0.926254 0.875019 0.157578 -3 -2 0 
5269 6 0.769086 0.911494 0.20694 2 4 3 
5067 5 0.808835 0.916116 0.178963 1 1 -2 
7549 5 0.251729 0.996915 0.157562 1 2 -3 
6574 6 0.159367 0.986179 0.146662 -2 -2 0 
8588 6 0.245158 0.994721 0.197261 2 -1 1 
5415 5 0.651637 0.00227389 0.172387 0 -1 2 
5429 6 0.841615 0.0124602 0.173761 2 -3 9 
8068 5 0.655944 0.981301 0.177149 -3 -5 -3 
6428 5 0.732576 0.0435419 0.187675 0 0 1 
5225 6 0.239507 0.0260771 0.206772 0 6 4 
8241 6 0.447515 0.0907566 0.205195 1 3 3 
7732 6 0.424278 0.0723049 0.238917 4 0 8 
6435 6 0.51603 0.0502476 0.177289 3 -6 -2 
7442 5 0.197598 0.0726811 0.197783 0 1 -3 
5183 5 0.862918 0.0852317 0.168314 1 0 5 
5308 6 0.0599222 0.102323 0.197191 -2 8 -4 
5101 5 0.641314 0.104978 0.202447 -5 0 -1 
5217 6 0.00152945 0.141141 0.184733 0 1 3 
8354 5 0.11382 0.110632 0.163712 0 5 8 
5844 6 0.847273 0.105772 0.167922 -2 -4 -1 
6149 6 0.287966 0.170855 0.218221 4 4 -1 
5973 5 0.557415 0.196576 0.224877 -4 -2 -1 
6133 5 0.600106 0.166511 0.186178 1 1 -1 
8418 6 0.00731156 0.154748 0.169962 -3 3 -1 
5097 5 0.451796 0.184366 0.196079 2 -3 5 
8634 6 0.400072 0.188228 0.213201 5 1 -2 
7092 6 0.831101 0.223238 0.173135 -4 -1 2 
7779 6 0.818818 0.225532 0.219936 0 4 5 
8987 5 0.0857539 0.240009 0.180242 0 -1 0 
5807 5 0.493728 0.224709 0.243146 5 -6 3 
7107 5 0.804217 0.186107 0.200978 -1 0 0 
7708 6 0.418227 0.256213 0.227164 -1 4 -2 
6662 5 0.743441 0.279428 0.222078 -6 -4 1 
8676 5 0.252079 0.259394 0.22401 -4 -1 -1 
6852 6 0.886848 0.341789 0.214649 3 0 -4 
8920 6 0.277985 0.351512 0.199575 -1 -1 1 
5814 6 0.894584 0.287691 0.217513 -4 2 2 
5995 5 0.206999 0.35559 0.150382 3 0 0 
5021 5 0.61201 0.33822 0.154424 -1 -3 5 
8165 6 0.864568 0.360319 0.204155 3 -1 1 
7913 6 0.295926 0.404377 0.190976 -3 1 -3 
5817 6 0.289388 0.418666 0.189364 2 1 -1 
6964 5 0.474855 0.398476 0.22925 -5 0 -1 
8309 5 0.356191 0.428739 0.193843 -1 -1 -1 
6286 5 0.984935 0.509533 0.207791 5 -1 1 
5049 6 0.153369 0.480309 0.177328 0 1 0 
6837 5 0.241567 0.483531 0.173684 2 1 0 
7227 6 0.591393 0.49252 0.176662 -1 3 5 
8979 6 0.457968 0.529303 0.163318 -7 0 1 
8459 5 0.0478343 0.546663 0.189818 1 -6 1 
8746 5 0.239611 0.580227 0.201594 0 2 -5 
6890 6 0.549508 0.573828 0.191365 -3 0 0 
8989 6 0.86716 0.629045 0.239849 0 5 2 
8270 6 0.893044 0.594746 0.219903 1 3 -1 
6979 5 0.311669 0.641027 0.170677 2 -5 -3 
8562 5 0.568423 0.668712 0.196887 -2 1 1 
6085 6 0.261737 0.691035 0.207514 1 -1 6 
8748 6 0.516066 0.712467 0.231059 -3 1 1 
8728 6 0.773951 0.644241 0.188127 -5 -4 1 
6982 5 0.788084 0.649869 0.241091 -4 1 -1 
7053 6 0.0588499 0.730429 0.170026 0 2 3 
5216 6 0.155221 0.720666 0.18333 1 0 1 
5208 5 0.965303 0.694843 0.134935 -5 -2 5 