ITEM: TIMESTEP
20000000
ITEM: NUMBER OF ATOMS
9000
ITEM: BOX BOUNDS pp pp pp
-75 75
-75 75
-75 75
ITEM: ATOMS id type xs ys zs ix iy iz 
5740 5 0.802346 0.0246731 0.0358985 2 4 3 
8999 6 0.209703 0.0275701 0.0137121 3 -4 -2 
8308 6 0.722894 0.996132 0.987434 1 -2 3 
5032 5 0.35043 0.038906 0.00948553 -6 4 -1 
8568 6 0.255145 0.103503 0.0473504 3 -3 0 
8400 5 0.0739414 0.121709 0.0168972 2 -3 0 
8574 6 0.652047 0.0915287 0.0135049 2 3 5 
7591 6 0.39752 0.16585 0.00998376 -2 -3 -2 
6694 6 0.444739 0.0970395 0.990895 1 4 -3 
8442 5 0.505357 0.157005 0.977462 5 5 1 
5748 5 0.532769 0.153326 0.0165461 -1 -1 -1 
7560 6 0.548826 0.158603 0.0312358 0 -5 -1 
8065 5 0.0676371 0.16838 0.97474 2 0 5 
7523 5 0.248224 0.173083 0.00332988 -1 2 0 
8295 6 0.396374 0.213463 0.0467287 4 3 3 
5775 6 0.858697 0.166909 0.0373564 -4 2 1 
8985 6 0.115494 0.215108 0.00640907 4 -3 2 
6665 6 0.906855 0.212235 0.0239885 1 -5 2 
6619 6 0.957803 0.232804 0.017975 -2 0 -3 
5362 6 0.19227 0.238172 0.0216828 1 0 9 
7803 5 0.525525 0.235267 0.000932766 -4 1 6 
5949 5 0.00987421 0.224024 0.988162 -1 0 1 
5962 6 0.158228 0.251446 0.0382373 5 -7 0 
6191 6 0.413451 0.237703 0.975531 1 1 -2 
8314 6 0.447762 0.30657 0.0325651 2 -1 3 
8056 5 0.557477 0.315559 0.0416885 -8 2 1 
8178 6 0.787972 0.312032 0.00525154 -1 -2 5 
8836 6 0.291859 0.294807 0.990435 -4 1 -1 
5120 5 0.328265 0.331928 0.0325257 2 3 0 
7241 5 0.714708 0.376666 0.986238 -4 2 1 
6722 5 0.252184 0.383138 0.00371179 0 -4 0 
8888 5 0.608247 0.353458 0.0357577 -2 3 -3 
6469 6 0.404705 0.399699 0.987659 2 -2 -3 
7418 5 0.930194 0.390814 0.0266652 -2 5 4 
5112 5 0.158274 0.421189 0.0207624 2 4 -4 
6494 6 0.343636 0.391856 0.954859 3 -1 -3 
6878 5 0.861008 0.401727 0.0121053 -1 -2 4 
5296 5 0.414407 0.453702 0.0260415 -3 -2 -3 
5699 5 0.855493 0.448976 0.0181451 1 -3 2 
7456 6 0.144014 0.469279 0.0274798 1 2 6 
8161 5 0.616759 0.490226 0.0162689 -8 2 -1 
5096 6 0.306477 0.498724 0.0167966 5 0 -1 
8572 6 0.500758 0.489293 0.997751 3 -3 -5 
8518 6 0.77017 0.522033 0.0273822 -1 -4 -1 
7359 5 0.879768 0.508881 0.975123 -2 3 0 
8988 5 0.093464 0.557692 0.0417037 -5 0 -2 
8889 6 0.67282 0.553896 0.0332968 1 3 1 
6260 6 0.736856 0.56262 0.0026135 1 -6 6 
8145 6 0.825805 0.564571 0.0181481 3 0 1 
6807 6 0.425108 0.597686 0.0446668 1 -1 4 
8045 6 0.0118359 0.627187 0.00174527 3 -3 5 
5366 6 0.538542 0.627117 0.98786 1 1 -3 
7462 6 0.610472 0.630677 0.00712046 -3 1 0 
6115 6 0.943615 0.657048 0.0271036 -6 0 -2 
6367 5 0.0784117 0.670171 0.00183186 3 -4 3 
5387 5 0.808143 0.660645 0.0250863 -1 0 4 
5561 6 0.470073 0.710007 0.0111862 2 2 2 
8630 6 0.246004 0.718736 0.00402655 -4 5 3 
4837 1 0.364579 0.714431 0.988573 0 0 0 
7989 5 0.443283 0.686842 0.00728743 5 1 3 
7619 5 0.149923 0.751447 0.986715 0 -3 -2 
4874 1 0.336641 0.732972 0.0172527 0 0 1 
4876 1 0.338801 0.739177 0.0141108 0 0 1 
4875 1 0.338973 0.738243 0.0205627 0 0 1 
4878 1 0.339512 0.746012 0.0179168 0 0 1 
4879 1 0.343377 0.748959 0.0131935 0 0 1 
4877 1 0.344147 0.742098 0.016951 0 0 1 
4862 1 0.355383 0.724091 0.0148284 0 0 1 
4858 1 0.351362 0.730773 0.00692527 0 0 1 
4861 1 0.356502 0.720132 0.00989462 0 0 1 
4863 1 0.350188 0.719822 0.0142613 0 0 1 
4860 1 0.356596 0.726309 0.00840028 0 0 1 
4859 1 0.350349 0.724733 0.008661 0 0 1 
4857 1 0.351249 0.726928 0.00174543 0 0 1 
4864 1 0.354658 0.718527 0.018802 0 0 1 
7595 6 0.079188 0.755132 0.0157984 10 -5 2 
4881 1 0.348042 0.754188 0.0140931 0 0 1 
4882 1 0.350813 0.754827 0.019619 0 0 1 
4880 1 0.346134 0.749884 0.018811 0 0 1 
4883 1 0.348488 0.760697 0.0187133 0 0 1 
8616 6 0.799094 0.77955 0.000924063 -3 0 0 
6511 5 0.846268 0.824214 0.991949 2 2 0 
5427 6 0.261758 0.844307 0.996732 -2 -2 2 
8011 5 0.151196 0.827732 0.999707 -1 -1 2 
6014 6 0.311032 0.872926 0.940689 6 2 1 
7829 6 0.180408 0.924587 0.0526032 4 0 -1 
5875 5 0.239359 0.913857 0.00756153 1 -4 0 
7990 6 0.373645 0.859955 0.0358127 4 -2 3 
5532 6 0.41127 0.924072 0.987941 -2 -4 1 
7335 6 0.94268 0.909693 0.044682 -2 2 1 
7156 5 0.413278 0.966368 0.00522491 0 -5 3 
8777 6 0.494129 0.953282 0.0564553 1 -2 -1 
5649 5 0.313868 0.0302465 0.00116332 5 1 0 
8355 6 0.921208 0.0287334 0.0160042 -2 6 5 
5602 6 0.97905 0.0275278 0.0550637 1 3 -5 
6168 6 0.179748 0.00807234 0.0422961 -2 -7 1 
6581 5 0.287497 0.075139 0.0373752 5 2 3 
5483 5 0.519133 0.0682267 0.0504843 -3 4 -4 
6436 5 0.742745 0.0764149 0.0585627 5 -3 -5 
5905 5 0.907909 0.0716436 0.0347457 0 -3 6 
6054 5 0.964878 0.123821 0.0295652 -4 -2 6 
5841 5 0.200887 0.132355 0.0219258 -2 3 -1 
5432 5 0.171707 0.109308 0.00911985 0 1 -1 
7300 5 0.364611 0.0949547 0.98781 -6 1 4 
8494 6 0.215971 0.121769 0.0465913 1 1 -3 
6967 5 0.746102 0.196647 0.00845916 1 -1 -2 
7094 6 0.897764 0.17058 0.028236 0 5 -1 
6120 5 0.601303 0.242149 0.0146253 0 4 5 
7079 6 0.626463 0.214797 0.0357421 -5 2 1 
6450 5 0.948779 0.211013 0.0301863 -7 -6 5 
5216 6 0.991271 0.193914 0.036366 -1 2 -2 
5333 6 0.454014 0.229282 0.0272457 -2 1 1 
6493 6 0.182591 0.223743 0.0159425 2 0 2 
5877 6 0.777625 0.276527 0.0398428 -3 -2 0 
5282 6 0.984832 0.262207 0.0456928 -4 5 3 
7921 6 0.646162 0.317974 0.0161329 0 0 -2 
7840 6 0.745031 0.317091 0.0253688 1 -1 2 
7436 5 0.992115 0.305975 0.0442148 -3 -2 1 
8732 6 0.99274 0.315657 0.0338081 1 0 -1 
5932 6 0.503958 0.270354 0.0254371 -1 -2 -1 
7753 5 0.894045 0.305529 0.0095929 5 -4 6 
5276 5 0.91883 0.293283 0.0378974 -2 -4 -4 
5320 5 0.468329 0.323054 0.000635329 -2 -4 -6 
5882 6 0.369813 0.406979 0.0592587 -1 4 3 
6029 6 0.188705 0.386615 0.00708144 0 -8 2 
8301 6 0.338388 0.404164 0.0219104 1 -2 -1 
5990 6 0.408867 0.381492 0.0575796 0 -1 4 
5728 6 0.432695 0.392541 0.98995 -3 2 -4 
5925 5 0.533579 0.374252 0.0350408 0 -4 0 
7115 6 0.116922 0.40009 0.0644296 -4 2 -1 
7864 6 0.213716 0.415989 0.0342263 -1 1 -1 
7026 5 0.46212 0.412016 0.0250717 2 -1 -2 
7819 5 0.528876 0.438835 0.023868 1 1 0 
7662 6 0.691423 0.450864 0.0135741 1 2 1 
7175 5 0.0779619 0.461482 0.0494496 0 -1 -2 
8290 6 0.337357 0.454759 0.0322116 -3 -6 4 
5783 6 0.468894 0.454667 0.990905 2 0 -5 
8251 5 0.539677 0.424559 0.0527831 5 2 1 
6204 5 0.746606 0.469093 0.0206144 -5 -2 -2 
5360 5 0.757786 0.500769 0.0380626 3 3 1 
5511 5 0.349369 0.479848 0.995614 0 0 -8 
8959 6 0.447432 0.486032 0.0428938 3 -3 -2 
6799 6 0.712771 0.479472 0.030431 3 0 3 
8798 5 0.329452 0.54626 0.0142301 7 -1 1 
8864 6 0.948419 0.535284 0.0155579 -4 0 -2 
6943 6 0.272668 0.508937 0.0313067 1 -3 -2 
5910 6 0.2934 0.585871 0.0348596 -1 3 2 
7227 6 0.397756 0.511269 0.0589057 -1 0 0 
5271 5 0.8046 0.502169 0.0623188 0 -3 -3 
8448 5 0.84942 0.556143 0.0203924 -2 3 2 
6873 5 0.00512576 0.565517 0.0382198 -2 3 2 
7404 6 0.733025 0.577935 0.0437095 1 0 -3 
6483 6 0.974606 0.577608 0.0456495 1 2 2 
6225 5 0.215651 0.655435 0.0357582 -1 -1 -1 
7997 5 0.616097 0.642612 0.0454142 6 -3 -3 
6047 6 0.250796 0.664767 0.997047 -3 4 -3 
7759 6 0.927782 0.653773 0.0332789 -9 0 -1 
8509 6 0.147237 0.699855 0.0599231 6 0 6 
5747 6 0.11699 0.711568 0.0265935 1 0 3 
6979 5 0.238241 0.696795 0.0355543 -1 2 2 
7096 5 0.683291 0.71689 0.0162822 1 2 -4 
5492 6 0.81553 0.725788 0.0285979 4 -6 0 
7283 5 0.918619 0.71572 0.030313 -2 2 2 
7078 5 0.897801 0.70277 0.0447107 -3 -1 -2 
4873 1 0.339661 0.731535 0.0229565 0 0 1 
4872 1 0.338859 0.726086 0.0198596 0 0 1 
4871 1 0.33401 0.725897 0.023826 0 0 1 
4870 1 0.335745 0.720272 0.0220927 0 0 1 
4865 1 0.351037 0.723666 0.0200617 0 0 1 
4867 1 0.345293 0.722346 0.0245124 0 0 1 
4869 1 0.339024 0.72156 0.0277182 0 0 1 
4868 1 0.34164 0.716847 0.0238335 0 0 1 
4866 1 0.347507 0.717792 0.0204277 0 0 1 
6559 5 0.66555 0.728093 0.0232916 -5 -3 2 
8300 5 0.710192 0.753928 0.0349455 1 -2 1 
7985 6 0.813048 0.755926 0.0694436 -3 -2 3 
4884 1 0.345257 0.757891 0.0237084 0 0 1 
4885 1 0.348484 0.762917 0.0262272 0 0 1 
4894 1 0.340239 0.770008 0.0409065 0 0 1 
4893 1 0.336482 0.772483 0.0360446 0 0 1 
4895 1 0.33411 0.769554 0.0425632 0 0 1 
4897 1 0.332208 0.77211 0.0497114 0 0 1 
4886 1 0.342024 0.764332 0.0259687 0 0 1 
4887 1 0.345473 0.768123 0.0219436 0 0 1 
4889 1 0.34078 0.771894 0.0264099 0 0 1 
4892 1 0.335919 0.765824 0.0355341 0 0 1 
4891 1 0.341005 0.768089 0.0325875 0 0 1 
4888 1 0.33885 0.768134 0.0214008 0 0 1 
4890 1 0.336419 0.768505 0.0288087 0 0 1 
5082 5 0.472665 0.756781 0.0310571 3 1 -2 
5434 6 0.696614 0.765399 0.0278069 -5 5 2 
6384 6 0.0419984 0.740449 0.0593212 -1 3 -2 
6050 5 0.282663 0.774845 0.0460719 -2 2 0 
4899 1 0.32546 0.774626 0.0506513 0 0 1 
6429 6 0.470402 0.744668 0.0530549 -3 2 -2 
6842 5 0.174528 0.811316 0.0267979 -5 -2 1 
7417 6 0.284159 0.861169 0.0695307 -2 -2 2 
8755 6 0.592375 0.787681 0.0392297 4 2 6 
5481 5 0.178419 0.83949 0.0403781 1 -3 -2 
8765 5 0.27838 0.848978 0.0461896 6 2 2 
7581 6 0.330467 0.850362 0.0429723 -6 0 4 
7310 5 0.788034 0.845377 0.0150914 2 -3 2 
6325 6 0.942851 0.812911 0.0458911 -5 0 -2 
5816 6 0.235618 0.865569 0.0178253 -3 -4 -2 
7398 6 0.297002 0.864776 0.0394929 -2 0 3 
7123 6 0.685371 0.86216 0.0416972 -4 -1 -3 
5852 6 0.100735 0.900168 0.0266679 3 -1 -1 
5801 5 0.23155 0.941641 0.00227859 -4 -2 0 
7512 6 0.298361 0.934918 0.0383584 6 -4 0 
6818 5 0.551405 0.957925 0.0405424 3 2 -2 
5762 5 0.405917 0.96447 0.0312661 -9 0 0 
5771 5 0.59474 0.0223215 0.0369524 -1 -4 0 
7609 6 0.168507 0.980038 0.0251751 -5 -1 -4 
8348 5 0.219929 0.0135167 0.0417953 -1 6 3 
7274 6 0.455975 0.00855898 0.0816328 -1 -1 5 
7982 6 0.956086 0.0430697 0.0542104 -4 -2 2 
7334 5 0.215187 0.0910329 0.0635248 4 8 -3 
5113 6 0.898351 0.0752017 0.0307144 -1 3 4 
7818 6 0.0150427 0.127994 0.0516473 0 3 3 
8613 6 0.709852 0.134163 0.0448375 -2 0 -1 
8971 5 0.600685 0.161681 0.0388467 -5 5 -2 
8209 5 0.803792 0.1384 0.0609332 -1 2 5 
8594 6 0.115754 0.186581 0.0423694 0 0 7 
5965 6 0.655571 0.213055 0.0632546 -1 0 -2 
5233 5 0.74991 0.276807 0.0560188 -2 5 4 
8543 5 0.984981 0.232093 0.0481436 4 -6 0 
8586 6 0.011039 0.257753 0.0698985 -1 -3 3 
6249 5 0.657311 0.279817 0.0666111 -2 4 0 
5616 5 0.923516 0.302888 0.0708167 -2 -2 0 
6235 6 0.0553586 0.33528 0.0777174 7 -1 -2 
8761 6 0.463475 0.33219 0.0268021 -1 -4 3 
6626 5 0.941863 0.350366 0.0618726 -2 0 -3 
7814 6 0.528124 0.349994 0.0750106 0 0 2 
7297 6 0.239591 0.371714 0.0648111 -2 -3 1 
8304 5 0.633843 0.395077 0.0624324 4 -1 0 
7285 5 0.253632 0.355668 0.0732814 1 -3 -2 
5052 6 0.348335 0.382598 0.0378024 0 0 0 
6791 5 0.389513 0.410509 0.0687743 0 -4 7 
7683 6 0.638008 0.402695 0.0836254 -4 -4 0 
8633 6 0.801129 0.432713 0.0949661 1 1 2 
6058 6 0.0927571 0.484094 0.0790231 -2 -2 1 
7958 6 0.238488 0.492879 0.0434218 -4 0 2 
5018 5 0.367381 0.477908 0.0240086 -2 7 -1 
7604 6 0.631553 0.468552 0.0505147 1 1 3 
7749 5 0.68949 0.437029 0.0843534 -2 -6 5 
7449 6 0.885879 0.450286 0.0240935 -1 1 3 
8608 5 0.876076 0.476724 0.0652168 5 0 -2 
5183 5 0.357769 0.554418 0.0517126 6 6 5 
8508 6 0.0462595 0.582039 0.036767 3 4 -4 
5118 5 0.647997 0.578533 0.0363321 -1 -3 2 
6512 5 0.186112 0.611478 0.0455689 -1 1 -3 
8272 5 0.510577 0.596649 0.0838207 2 2 1 
7947 5 0.66117 0.623254 0.0237507 1 1 1 
6404 5 0.772707 0.640387 0.0631149 1 -2 1 
7994 5 0.868552 0.617007 0.0870994 0 -3 0 
6344 5 0.876195 0.607089 0.108163 -4 2 0 
7181 6 0.892194 0.620455 0.0458461 2 -2 -3 
8938 5 0.969279 0.640774 0.055863 1 2 3 
5529 5 0.298496 0.640529 0.0613801 0 3 1 
8024 5 0.585935 0.656205 0.0658991 4 1 1 
5870 6 0.0433172 0.709577 0.0444454 -3 4 2 
5468 6 0.884448 0.68694 0.0575407 4 2 -4 
6346 6 0.496282 0.713678 0.0643734 6 -1 4 
7507 5 0.422656 0.734029 0.0551318 1 4 1 
7719 5 0.474068 0.765463 0.0661115 -5 0 -2 
8334 6 0.0907271 0.746298 0.0412328 1 -5 -5 
4960 1 0.268485 0.775032 0.0633184 0 0 1 
4958 1 0.27115 0.768959 0.0597771 0 0 1 
4956 1 0.278491 0.771157 0.0596773 0 0 1 
4910 1 0.304006 0.766245 0.056817 0 0 1 
4912 1 0.301428 0.763651 0.063633 0 0 1 
4911 1 0.307165 0.766364 0.0622508 0 0 1 
4909 1 0.309349 0.769481 0.056148 0 0 1 
7640 5 0.317873 0.77533 0.0500321 -1 0 1 
4896 1 0.336561 0.7745 0.0451993 0 0 1 
4898 1 0.329934 0.777156 0.0467031 0 0 1 
6663 5 0.450091 0.739463 0.0423079 -5 0 0 
4961 1 0.272249 0.77803 0.0680705 0 0 1 
4963 1 0.274876 0.784983 0.0672986 0 0 1 
4965 1 0.273613 0.790585 0.0626515 0 0 1 
4964 1 0.278206 0.785912 0.06208 0 0 1 
4959 1 0.273727 0.771428 0.0652371 0 0 1 
4962 1 0.272057 0.781696 0.0625893 0 0 1 
4967 1 0.280513 0.794037 0.0621445 0 0 1 
4950 1 0.292485 0.77867 0.0501475 0 0 1 
4966 1 0.277789 0.791006 0.0672234 0 0 1 
4968 1 0.280267 0.797823 0.0676584 0 0 1 
4906 1 0.305167 0.779642 0.055432 0 0 1 
4908 1 0.304461 0.772646 0.0537878 0 0 1 
4904 1 0.310967 0.782698 0.0551448 0 0 1 
4905 1 0.31092 0.776655 0.0540046 0 0 1 
4907 1 0.30609 0.774833 0.0596546 0 0 1 
4948 1 0.295646 0.785336 0.0503533 0 0 1 
4943 1 0.302155 0.798999 0.0518797 0 0 1 
4946 1 0.300683 0.789932 0.0539322 0 0 1 
4942 1 0.308053 0.796436 0.0506422 0 0 1 
4944 1 0.303503 0.795776 0.0570667 0 0 1 
4941 1 0.307755 0.801808 0.0543322 0 0 1 
4940 1 0.313483 0.801826 0.0513296 0 0 1 
4900 1 0.324681 0.780573 0.0512058 0 0 1 
4902 1 0.317886 0.782018 0.0535831 0 0 1 
4901 1 0.321722 0.777855 0.0560422 0 0 1 
4903 1 0.315475 0.780046 0.0592128 0 0 1 
8413 5 0.466641 0.783969 0.0707501 3 -1 1 
5413 5 0.795858 0.800269 0.0166491 -4 -6 -4 
4969 1 0.276866 0.799852 0.0624249 0 0 1 
4973 1 0.286618 0.798569 0.0648888 0 0 1 
4971 1 0.283159 0.802759 0.0607383 0 0 1 
4970 1 0.279728 0.804822 0.0655607 0 0 1 
4972 1 0.287802 0.804729 0.0648486 0 0 1 
4939 1 0.313442 0.805769 0.0558376 0 0 1 
4937 1 0.320709 0.802354 0.05477 0 0 1 
4930 1 0.314119 0.803914 0.0748761 0 0 1 
4932 1 0.317668 0.802673 0.0687886 0 0 1 
4931 1 0.320041 0.801351 0.0746037 0 0 1 
4933 1 0.323369 0.80208 0.0671035 0 0 1 
4938 1 0.315504 0.800213 0.0577054 0 0 1 
4935 1 0.324931 0.8007 0.0599777 0 0 1 
6282 5 0.397475 0.793139 0.0285231 0 -4 -1 
5955 5 0.57204 0.819116 0.0186875 2 -3 1 
6609 6 0.829183 0.842776 0.0432691 0 3 -3 
5415 5 0.317423 0.854626 0.0194509 -5 1 -1 
6118 5 0.701251 0.884955 0.0855671 3 3 0 
5433 5 0.739767 0.84274 0.0443869 -3 -5 1 
7852 6 0.799334 0.88568 0.0629405 1 -2 5 
7837 5 0.349583 0.944999 0.0357625 -1 -6 6 
5094 6 0.444735 0.941413 0.0415946 4 -2 0 
5807 6 0.592205 0.938226 0.0587639 -1 2 -2 
8921 5 0.83895 0.906338 0.0597109 1 -3 -1 
7189 5 0.418106 0.969016 0.0578473 2 1 1 
5423 5 0.420732 0.988969 0.0929193 0 2 1 
8614 6 0.420464 1.0018 0.101831 -4 2 -1 
7007 6 0.47596 0.975911 0.0639782 3 -5 2 
5684 6 0.729275 0.0171799 0.0653873 4 -2 -5 
7042 6 0.328582 0.0507245 0.0504359 2 3 1 
5087 5 0.275621 0.0607015 0.107027 -5 -1 4 
5453 6 0.804796 0.0626757 0.0573465 -1 0 1 
7152 6 0.316976 0.0648478 0.0642289 -1 -5 -1 
6999 6 0.503387 0.0944569 0.0791077 -1 -4 0 
6879 5 0.815776 0.0856247 0.0667144 2 3 1 
6150 6 0.187648 0.128432 0.0781189 2 4 3 
7527 5 0.211201 0.11974 0.0880987 1 2 -2 
6264 6 0.206038 0.152657 0.110639 -2 3 -4 
5236 5 0.425124 0.13574 0.100337 -2 1 2 
6430 5 0.55782 0.154322 0.0939205 -2 4 0 
8176 6 0.590228 0.132469 0.0859248 2 -4 -1 
7891 6 0.531418 0.20135 0.0703464 0 5 -3 
6777 5 0.880705 0.156457 0.0962765 2 2 3 
6615 6 0.384077 0.185225 0.0476873 4 -1 2 
8077 5 0.791808 0.240665 0.0849109 -2 -5 4 
5730 5 0.416547 0.197255 0.0604478 1 -1 3 
6104 6 0.0154959 0.239773 0.0709761 1 -1 1 
5867 5 0.349057 0.265188 0.0998871 0 -2 -1 
7212 6 0.578842 0.228405 0.0822992 4 -4 2 
8239 5 0.929027 0.241351 0.0693093 -5 -1 3 
6846 6 0.282457 0.262995 0.0713468 3 2 1 
6432 6 0.370215 0.291479 0.0607595 4 -1 4 
5336 5 0.542787 0.279731 0.0688144 0 -3 -3 
5680 5 0.838788 0.326173 0.0551075 2 4 -1 
8893 6 0.48958 0.384398 0.105847 0 0 2 
6524 6 0.850818 0.391366 0.0361997 -5 2 -2 
5167 6 0.330841 0.48186 0.0918877 2 0 1 
5996 6 0.630515 0.472178 0.100378 -1 4 -1 
7936 6 0.357194 0.527439 0.0825086 -1 -1 4 
8101 5 0.84305 0.553089 0.113052 3 -1 -2 
5915 6 0.659243 0.549714 0.092671 -3 -1 0 
5906 5 0.0587846 0.557315 0.0756888 2 -1 -1 
7155 6 0.36004 0.547058 0.104061 2 -5 4 
5273 6 0.442048 0.557513 0.0580851 -4 -3 -1 
8063 5 0.00893273 0.557366 0.0704111 0 -2 2 
6126 5 0.137987 0.577831 0.0647405 2 -5 2 
5227 6 0.233294 0.579645 0.0661758 -4 1 -2 
7922 5 0.535068 0.636232 0.0763441 2 -1 3 
5395 5 0.60977 0.62118 0.0441216 4 -3 0 
5269 6 0.869449 0.585884 0.0794989 3 1 3 
6068 5 0.122076 0.615653 0.0869462 -1 4 4 
5306 6 0.192415 0.703749 0.111562 3 0 0 
7620 6 0.755799 0.663375 0.0863761 -1 4 5 
5847 6 0.620278 0.708075 0.0514253 2 -5 4 
6017 5 0.904607 0.610192 0.0941894 -1 -5 -2 
6898 6 0.556546 0.661507 0.0845807 -2 0 -1 
5719 6 0.152349 0.690774 0.0841823 2 -2 0 
7322 5 0.576251 0.699809 0.0632377 0 2 1 
6557 5 0.734583 0.717151 0.0872308 0 0 3 
5541 6 0.111463 0.733202 0.0746456 2 2 -5 
8097 5 0.783026 0.72543 0.0650712 4 1 1 
7070 6 0.0883331 0.809914 0.0570461 0 0 3 
8727 6 0.227443 0.799775 0.0779558 0 0 4 
4993 1 0.27899 0.749845 0.0881933 0 0 1 
4989 1 0.281226 0.763032 0.0820429 0 0 1 
4987 1 0.283397 0.76964 0.0828336 0 0 1 
4990 1 0.282819 0.761349 0.0883942 0 0 1 
4991 1 0.280308 0.756404 0.084904 0 0 1 
4988 1 0.278128 0.767211 0.0856902 0 0 1 
4986 1 0.277915 0.772699 0.0803099 0 0 1 
4913 1 0.305109 0.763832 0.0687765 0 0 1 
4915 1 0.301225 0.768605 0.0735387 0 0 1 
5128 6 0.658853 0.761339 0.0650974 3 3 8 
8715 5 0.174038 0.748994 0.0833729 -2 -1 2 
4957 1 0.273372 0.774654 0.0584389 0 0 1 
4955 1 0.279741 0.774047 0.0539927 0 0 1 
4954 1 0.284397 0.774884 0.0590803 0 0 1 
4951 1 0.288588 0.782555 0.0533168 0 0 1 
4949 1 0.296213 0.780885 0.0550348 0 0 1 
4984 1 0.282425 0.773774 0.0747352 0 0 1 
4985 1 0.283277 0.776322 0.0805556 0 0 1 
4977 1 0.290258 0.788468 0.0731463 0 0 1 
4982 1 0.286875 0.777097 0.0694836 0 0 1 
4979 1 0.289416 0.782704 0.0779257 0 0 1 
4978 1 0.286832 0.788238 0.0785834 0 0 1 
4980 1 0.285281 0.783054 0.0732336 0 0 1 
4981 1 0.29133 0.781022 0.0714641 0 0 1 
4983 1 0.288695 0.775556 0.0754914 0 0 1 
4953 1 0.281589 0.780521 0.0565349 0 0 1 
4952 1 0.285775 0.777164 0.0524691 0 0 1 
4947 1 0.295398 0.7881 0.0567244 0 0 1 
4945 1 0.297298 0.795176 0.055997 0 0 1 
8358 5 0.246891 0.785902 0.0708469 -1 -5 0 
8307 5 0.278612 0.777025 0.0628906 1 0 5 
4914 1 0.302928 0.769709 0.0671895 0 0 1 
4916 1 0.300012 0.774655 0.0721843 0 0 1 
4917 1 0.297689 0.773848 0.0781076 0 0 1 
4918 1 0.303869 0.77551 0.0788663 0 0 1 
4919 1 0.299815 0.779355 0.0827508 0 0 1 
4920 1 0.305162 0.782965 0.0805124 0 0 1 
4922 1 0.300655 0.783933 0.0744542 0 0 1 
4921 1 0.299621 0.786208 0.080227 0 0 1 
5591 5 0.290293 0.802046 0.0770796 5 2 -1 
6461 6 0.322352 0.759743 0.112907 1 -3 -1 
7080 6 0.606258 0.78292 0.108435 0 1 3 
6552 5 0.709698 0.779028 0.114785 -1 -1 -3 
7053 6 0.848099 0.790245 0.0499263 3 -1 3 
4975 1 0.286342 0.79466 0.0709047 0 0 1 
4976 1 0.290183 0.794665 0.0757999 0 0 1 
4974 1 0.290824 0.799292 0.0696046 0 0 1 
4924 1 0.306386 0.788671 0.072671 0 0 1 
4929 1 0.314583 0.79868 0.0784241 0 0 1 
4923 1 0.299572 0.789737 0.0738551 0 0 1 
4925 1 0.304971 0.794099 0.0747226 0 0 1 
4926 1 0.310732 0.792203 0.0765997 0 0 1 
4927 1 0.308061 0.795721 0.0811968 0 0 1 
4928 1 0.308581 0.799576 0.0765211 0 0 1 
4934 1 0.319914 0.798314 0.062952 0 0 1 
4936 1 0.320471 0.805287 0.0603895 0 0 1 
8396 6 0.798878 0.796568 0.0749821 1 4 0 
5534 6 0.87927 0.842221 0.0637614 -1 1 -4 
7355 5 0.00518038 0.849326 0.0398974 2 2 -2 
7816 6 0.138439 0.823599 0.0800495 -1 -4 -3 
8650 5 0.211467 0.854413 0.0812702 5 -1 -1 
6504 6 0.840461 0.875832 0.0853171 1 -4 0 
5491 6 0.232464 0.865445 0.0675178 0 2 -2 
5900 6 0.794423 0.877987 0.0747469 -2 -2 -3 
6919 5 0.260151 0.8614 0.0766127 0 2 -3 
6398 5 0.300172 0.899119 0.0470659 0 -2 2 
5002 6 0.556232 0.901043 0.0885942 3 -3 0 
6240 5 0.712995 0.944959 0.111359 1 -1 -2 
7775 5 0.367817 0.915001 0.0973925 -3 2 -1 
6038 6 0.356899 0.881906 0.101548 0 -2 2 
7911 6 0.65009 0.939179 0.0847763 0 -1 2 
6237 5 0.754821 0.923594 0.0338107 2 0 -2 
7256 5 0.748277 0.952271 0.102214 -1 3 1 
8164 6 0.068533 0.957226 0.100006 -4 1 0 
7639 6 0.171839 0.00309612 0.0540228 0 3 6 
8361 5 0.961719 0.959371 0.0797884 2 -3 0 
6884 6 0.469624 0.0260882 0.103667 1 -2 -4 
6779 5 0.0304603 0.0376219 0.102781 -1 3 3 
5377 6 0.152067 0.0381728 0.108878 0 5 -4 
6435 5 0.1123 0.0332838 0.101838 3 2 0 
8615 5 0.535782 0.0461034 0.0652108 -1 3 0 
7087 6 0.968947 0.0812642 0.107603 1 -1 -6 
7594 6 0.158062 0.0673136 0.125043 -2 2 4 
7757 6 0.186022 0.0894729 0.0657429 -2 3 -4 
8471 6 0.265976 0.0860736 0.0988042 1 -1 2 
6591 6 0.781902 0.114517 0.159025 1 4 -1 
5761 6 0.922305 0.0960589 0.139803 1 3 3 
7280 5 0.0533597 0.12302 0.134686 2 0 0 
8860 6 0.971253 0.132005 0.111298 0 -1 -1 
5173 6 0.315277 0.156091 0.0542263 -2 1 0 
8009 6 0.490493 0.158464 0.0841995 0 2 5 
6110 5 0.816953 0.125608 0.0918176 -4 3 -1 
5732 6 0.952782 0.212625 0.107612 2 5 1 
5622 6 0.237865 0.173338 0.101294 -5 -2 -1 
6486 6 0.718882 0.195766 0.0890188 -3 -2 -5 
8026 5 0.817976 0.185045 0.105853 -3 5 1 
8266 5 0.0587346 0.224779 0.0695216 0 -3 3 
6831 5 0.913897 0.230376 0.0901517 -1 -2 0 
7574 6 0.801006 0.249702 0.142535 -3 1 2 
8714 6 0.959213 0.266647 0.0803546 2 -4 2 
9000 6 0.690605 0.276747 0.142981 -5 3 -4 
8665 5 0.598097 0.303214 0.120778 -2 1 -1 
6133 6 0.684966 0.295883 0.0954681 2 1 -6 
6479 5 0.130171 0.312752 0.0809613 1 0 1 
5908 6 0.347613 0.277434 0.0601089 -3 -3 0 
6353 6 0.721253 0.24596 0.130709 0 -1 -2 
7572 5 0.291895 0.316605 0.125887 1 2 -2 
7182 5 0.356809 0.355952 0.100731 -1 1 1 
6444 6 0.120074 0.365674 0.129646 3 5 -5 
6929 6 0.529169 0.377321 0.147826 -3 -1 0 
6334 6 0.29695 0.373036 0.112099 5 -2 3 
5298 5 0.4263 0.382767 0.0876052 -2 -1 -3 
5813 6 0.559462 0.397657 0.0802274 -1 0 -1 
7002 6 0.881038 0.381704 0.114282 -3 -2 -2 
8086 6 0.130893 0.424158 0.101577 -1 0 -5 
7350 5 0.478548 0.38647 0.0672919 -1 -4 2 
5527 6 0.984815 0.419417 0.125655 -3 -2 -1 
8087 6 0.569095 0.452821 0.0825368 -1 3 -1 
8152 5 0.873484 0.452971 0.0995543 -5 1 -1 
7556 6 0.0126814 0.46078 0.120176 2 -4 3 
6268 6 0.43099 0.510863 0.0725032 -5 -1 1 
8669 5 0.548153 0.484148 0.112517 -1 -3 1 
7366 5 0.624934 0.445956 0.0764126 -6 -4 5 
6172 6 0.536867 0.46721 0.10928 4 2 -1 
6482 6 0.674364 0.513248 0.0810275 1 -1 -1 
6100 6 0.674715 0.498961 0.091929 -2 1 -4 
7193 6 0.826129 0.483287 0.0663612 -1 2 -4 
7515 5 0.348211 0.513657 0.114527 -1 -2 -1 
5971 5 0.522247 0.552489 0.115248 -4 2 0 
5169 6 0.851355 0.560718 0.106736 -2 4 1 
5061 6 0.531315 0.519172 0.137783 8 -2 -2 
8636 6 0.626834 0.511055 0.106255 1 -4 5 
5247 6 0.710935 0.541247 0.079953 -3 3 -1 
7937 5 0.547727 0.573624 0.0830605 2 -1 -1 
6412 6 0.671524 0.572472 0.0788545 4 -2 0 
6534 5 0.679416 0.577567 0.0703363 -4 2 3 
7676 6 0.0140978 0.597118 0.08259 -2 0 2 
5864 5 0.319256 0.602377 0.077799 2 -1 -6 
7750 6 0.313721 0.633037 0.111983 0 1 -1 
5683 5 0.34201 0.621509 0.0893944 1 5 1 
5863 5 0.477367 0.642086 0.089479 4 -4 0 
8286 5 0.144915 0.655392 0.137831 -2 -2 1 
5865 5 0.325892 0.692787 0.0961113 0 1 -1 
7838 6 0.844191 0.674835 0.109772 0 0 1 
5373 5 0.445613 0.731989 0.0865397 1 4 1 
8503 6 0.719223 0.722653 0.081078 4 1 6 
5912 5 0.966029 0.695541 0.0573712 3 7 -2 
7072 6 0.307356 0.725987 0.0900079 2 -5 -2 
7903 6 0.697557 0.724301 0.126223 -4 3 4 
4999 1 0.285134 0.753412 0.100772 0 0 1 
4995 1 0.279221 0.744311 0.0940798 0 0 1 
4996 1 0.28358 0.744429 0.098682 0 0 1 
4994 1 0.283927 0.747355 0.0912801 0 0 1 
4997 1 0.279068 0.748912 0.0988566 0 0 1 
4992 1 0.282619 0.754547 0.090387 0 0 1 
4998 1 0.282518 0.749035 0.104348 0 0 1 
5000 1 0.279507 0.755834 0.10344 0 0 1 
5047 5 0.803977 0.79121 0.13891 -1 1 1 
6946 5 0.858121 0.794826 0.0983504 0 -1 -1 
7629 5 0.0955188 0.780058 0.0812207 1 -2 1 
7721 5 0.195838 0.8141 0.109465 1 -3 -1 
6730 6 0.0843101 0.838901 0.123785 -2 -2 -1 
6579 6 0.221741 0.821402 0.0931601 6 0 1 
5531 5 0.815985 0.774156 0.125196 2 5 3 
7425 6 0.741157 0.859436 0.116562 -2 2 1 
7909 6 0.423412 0.88133 0.0872829 1 2 2 
5151 6 0.642655 0.812876 0.12272 1 4 -3 
8382 5 0.173931 0.894336 0.114352 3 0 1 
8973 6 0.260925 0.91903 0.120821 2 0 1 
7029 5 0.399696 0.920464 0.0858797 -2 -2 4 
6302 5 0.539943 0.912948 0.0969926 1 2 0 
6927 5 0.762879 0.957203 0.079363 -3 -2 0 
5709 5 0.0156465 0.0111702 0.12742 3 2 -8 
5950 6 0.0917952 0.967698 0.107836 2 1 2 
6192 6 0.957164 0.992935 0.129507 -11 4 -1 
5354 5 0.654093 0.00837073 0.121271 -1 -2 -1 
8481 6 0.779749 0.0310205 0.111457 0 1 0 
8076 6 0.719369 0.023398 0.125696 5 1 1 
7171 6 0.960924 0.993734 0.117477 -1 -5 -2 
6477 5 0.0860141 0.0583542 0.113885 2 -2 4 
5720 5 0.702493 0.0905084 0.116508 -3 -1 1 
7055 6 0.696587 0.123059 0.152029 -3 0 -2 
7173 6 0.403904 0.114603 0.111821 -2 3 4 
8847 5 0.918338 0.163678 0.0852346 4 -1 4 
7474 5 0.0223116 0.176348 0.105168 -4 -2 -1 
6355 6 0.00787187 0.136232 0.135934 1 1 4 
8530 6 0.0717264 0.119853 0.135921 -2 -3 -6 
8230 5 0.365662 0.138011 0.103645 3 1 0 
5011 5 0.932795 0.150672 0.123619 -3 2 -4 
5756 5 0.466824 0.197338 0.102389 -1 2 7 
6881 6 0.0113086 0.15941 0.175397 1 -3 2 
7717 6 0.670156 0.236899 0.124334 5 0 1 
7792 6 0.30222 0.251575 0.153214 -4 1 0 
5518 6 0.939225 0.215208 0.120232 4 1 -4 
7924 5 0.178419 0.251109 0.133434 1 -1 -1 
8500 5 0.587104 0.278155 0.13938 1 3 0 
5692 6 0.955247 0.292522 0.102975 5 1 2 
6314 6 0.696013 0.351803 0.130651 4 0 1 
7180 6 0.862582 0.347659 0.124362 -1 -1 0 
8723 5 0.931345 0.346579 0.138073 -4 8 0 
6894 5 0.967083 0.354538 0.113187 -1 0 2 
7040 6 0.548273 0.420793 0.102086 -2 -1 3 
8900 5 0.676018 0.385308 0.127313 -3 -3 -1 
5833 5 0.278736 0.441109 0.0964516 0 3 -1 
8220 6 0.538607 0.425197 0.130734 -3 3 0 
6724 5 0.146121 0.468932 0.18622 3 -3 -1 
5809 5 0.27041 0.464227 0.120235 -3 0 3 
6308 6 0.509071 0.464156 0.150812 0 0 2 
5409 6 0.402488 0.492957 0.0988413 2 2 4 
5626 6 0.910581 0.48781 0.104002 -3 -2 -3 
6833 6 0.978958 0.499394 0.105634 -2 -1 0 
8582 6 0.0533315 0.494478 0.130122 -5 2 -2 
6540 5 0.349133 0.464429 0.101258 -5 4 -3 
8436 6 0.00699216 0.492948 0.101315 -2 2 1 
7769 5 0.439346 0.504274 0.129314 1 1 2 
8343 5 0.483803 0.457011 0.146031 1 -3 5 
5408 6 0.147133 0.565674 0.134714 4 3 2 
7907 5 0.248094 0.538104 0.139856 0 -3 -2 
8541 5 0.760547 0.550022 0.156194 4 0 2 
6928 6 0.971362 0.577035 0.130788 -2 0 1 
5558 6 0.0345559 0.615844 0.124312 2 0 4 
6272 5 0.66864 0.582956 0.160527 -2 5 2 
8198 6 0.669346 0.579406 0.111591 1 -4 4 
5670 6 0.655744 0.593744 0.134721 -3 -3 5 
5174 6 0.0727016 0.568831 0.117094 5 2 4 
5241 6 0.0434497 0.67215 0.112639 3 7 -1 
5855 6 0.807904 0.598598 0.153081 2 -2 2 
5067 5 0.932605 0.639135 0.148976 3 3 1 
6211 6 0.240324 0.689226 0.092295 -3 1 0 
8324 6 0.190551 0.705355 0.136631 -1 6 3 
8052 6 0.0777396 0.679872 0.11269 6 -2 0 
7023 5 0.0570269 0.732518 0.111365 2 1 4 
8262 5 0.740325 0.773793 0.170811 -3 4 -5 
8252 6 0.0230039 0.764413 0.0826205 2 -1 -4 
8349 5 0.645163 0.766985 0.120901 1 3 -1 
8917 6 0.645013 0.805839 0.148587 2 1 -4 
5704 5 0.66452 0.785063 0.15564 4 2 -6 
5414 6 0.839116 0.809651 0.12963 4 0 -7 
6589 6 0.7309 0.836434 0.156021 4 1 4 
6288 5 0.0521245 0.8571 0.0993401 3 -2 -1 
8672 5 0.443359 0.823666 0.0914909 0 -8 -7 
5617 6 0.0132911 0.86547 0.124843 3 4 1 
8758 6 0.665764 0.871966 0.11762 -1 -1 -1 
5460 6 0.17371 0.9101 0.104723 2 2 2 
5036 6 0.239789 0.878544 0.121668 -2 1 -1 
6405 6 0.168639 0.885574 0.122931 4 1 -2 
8329 5 0.955028 0.940166 0.116434 -4 1 -1 
6739 5 0.9195 0.949068 0.104129 4 -3 1 
8427 6 0.283904 0.956902 0.143995 -1 6 1 
8832 6 0.29264 0.97887 0.142588 2 3 4 
6859 5 0.565544 0.968116 0.0851227 -4 3 -1 
6025 5 0.769892 0.992494 0.12604 0 -2 -4 
8357 6 0.984261 0.971665 0.115538 1 0 0 
6728 5 0.227512 0.97687 0.106274 -5 -7 4 
5202 5 0.717741 0.014033 0.120085 4 -2 1 
7204 5 0.104404 0.0114616 0.145037 -1 1 3 
5235 6 0.338652 0.00145789 0.139772 2 1 -2 
8737 6 0.518616 -0.00262764 0.190335 0 3 1 
5070 5 0.5916 0.0608602 0.194616 0 -1 -4 
7099 5 0.72773 0.0541085 0.152846 -2 4 -3 
5376 5 0.805684 0.0565533 0.140202 4 1 5 
8903 6 0.374011 0.0950729 0.137348 -1 -1 -2 
7101 5 0.530071 0.056156 0.124749 -4 4 3 
7715 5 0.530989 0.11562 0.143543 -6 -2 6 
6738 5 0.971171 0.0951279 0.15102 -2 -1 1 
8327 6 0.30213 0.0856794 0.141151 3 -1 -5 
5268 5 0.334682 0.116489 0.16032 1 -5 0 
8567 6 0.791472 0.0847233 0.14324 3 4 -5 
8335 5 0.839177 0.130798 0.155457 3 0 4 
6305 5 0.0830766 0.176579 0.10065 3 0 -1 
6563 6 0.23173 0.185449 0.140971 -2 -3 -2 
8128 6 0.472328 0.203833 0.167758 -3 5 1 
8642 6 0.985391 0.161179 0.147388 -3 -1 -1 
8890 5 0.202746 0.152588 0.166349 -3 -2 2 
6890 5 0.955896 0.217637 0.120416 0 5 -3 
6885 6 0.665293 0.244607 0.0815665 0 1 -1 
6715 5 0.429776 0.241876 0.121639 -3 -2 1 
6905 5 0.680327 0.245364 0.164816 5 0 3 
5776 5 0.579827 0.27064 0.126196 0 -1 5 
7580 6 0.27893 0.281324 0.13144 3 6 1 
7128 6 0.247006 0.305071 0.137896 6 2 -2 
8025 5 0.600083 0.333801 0.125844 0 1 1 
5279 6 0.839553 0.293689 0.178728 1 1 5 
5814 5 0.227722 0.316879 0.175522 -4 2 5 
7468 6 0.559288 0.328131 0.134774 2 -4 4 
5170 5 0.070705 0.309002 0.13848 -3 -5 -2 
6886 5 0.474945 0.341908 0.128862 3 5 1 
8605 5 0.852673 0.332873 0.141813 -3 -3 -1 
5857 5 0.976114 0.303433 0.156205 -1 -1 4 
7795 6 0.0668238 0.358815 0.152272 1 2 2 
6867 6 0.10942 0.407043 0.164026 6 3 0 
5580 6 0.532146 0.310895 0.0999146 3 -2 0 
8240 5 0.0571287 0.369234 0.105367 1 2 -3 
6208 6 0.316969 0.408239 0.13055 2 4 1 
8536 5 0.94513 0.336373 0.143333 -4 1 -6 
8126 5 0.741996 0.411525 0.167278 2 2 3 
8837 5 0.895848 0.402521 0.0979557 -3 -3 0 
7867 6 0.0634812 0.437102 0.0727138 0 1 1 
6700 6 0.887322 0.416729 0.170818 5 -1 -1 
6053 5 0.87837 0.473492 0.144859 -1 0 -1 
6917 6 0.285536 0.492854 0.137649 1 0 -3 
7688 6 0.416754 0.52915 0.128525 0 4 0 
6654 5 0.52368 0.542028 0.146959 2 -5 -2 
6220 6 0.796791 0.504816 0.106414 2 4 4 
5623 6 0.202073 0.540524 0.131728 1 6 -1 
7534 6 0.560138 0.584561 0.159461 1 1 0 
5543 5 0.704772 0.551211 0.124503 -2 2 -2 
7244 6 0.0139793 0.58173 0.121342 -2 1 2 
6040 5 0.0862176 0.577762 0.170237 2 -3 1 
5636 5 0.250469 0.579017 0.138997 2 -3 2 
8886 5 0.309338 0.530517 0.1532 1 -1 2 
7856 5 0.629941 0.580704 0.114304 -4 0 1 
5934 5 0.206049 0.564128 0.126915 1 -3 -2 