ITEM: TIMESTEP
20000000
ITEM: NUMBER OF ATOMS
9000
ITEM: BOX BOUNDS pp pp pp
-75 75
-75 75
-75 75
ITEM: ATOMS id type xs ys zs ix iy iz 
6849 6 0.0611284 0.0227496 0.0319796 5 2 -4 
8900 5 0.866278 0.0177066 0.997299 -3 3 -1 
8954 5 0.378599 0.0435195 0.983564 -2 1 -1 
7015 6 0.575917 0.0413372 1.00074 -5 -3 0 
6342 6 0.177599 0.0509055 0.0326705 2 0 -1 
5580 6 0.49803 0.0451869 0.991899 4 -2 -1 
7713 5 0.833293 0.0742763 0.0471414 0 -3 -2 
7738 6 0.580813 0.0774826 0.0154431 0 -1 4 
7372 6 0.355859 0.163161 0.00841479 -4 0 -5 
6617 5 0.374904 0.0932174 0.998868 0 3 -1 
7052 5 0.729272 0.0677654 0.0197908 4 -1 -1 
7461 5 0.700002 0.151508 0.035907 3 -1 0 
5254 6 0.106107 0.164928 0.0269023 5 2 0 
5612 6 0.943267 0.184706 0.972713 4 1 3 
5644 6 0.229998 0.275104 1.00392 2 1 -4 
6810 6 0.896743 0.225644 0.0216818 -3 2 0 
7726 5 0.104761 0.25415 0.996121 0 -2 1 
6651 6 0.466406 0.273481 0.984529 1 4 -5 
8363 5 0.572174 0.298698 0.990632 2 3 -3 
5892 5 0.550369 0.325765 0.015593 -3 -1 2 
8513 6 0.648315 0.304238 0.0297527 -1 7 0 
6624 5 0.893519 0.327275 0.998164 -2 2 4 
8205 6 0.0668917 0.371753 0.030905 4 -3 6 
8524 6 0.688156 0.337382 0.0290356 -4 3 5 
8229 5 0.0604503 0.413115 0.013285 8 -3 0 
8647 6 0.295001 0.382985 0.00323843 -1 0 0 
8714 5 0.457862 0.422847 1.00058 6 1 0 
5214 5 0.088912 0.384288 0.0323758 2 -5 6 
8950 6 0.438007 0.433769 0.992787 2 8 -1 
5741 6 0.744227 0.430551 0.0277505 -2 0 0 
7912 6 0.977184 0.397464 0.0319788 1 0 0 
8167 6 0.162892 0.44717 0.992283 2 1 6 
6270 5 0.575042 0.441252 0.996382 2 -2 -1 
8358 6 0.632438 0.4543 0.996526 2 2 -1 
8035 5 0.739014 0.49335 0.00852933 -3 0 -4 
7448 6 0.906516 0.5382 0.0256486 -1 1 1 
7249 6 0.266507 0.566033 0.0200651 -1 1 3 
5611 5 0.560812 0.56732 0.98752 0 -4 -2 
5093 5 0.0590857 0.623869 0.00324041 -1 3 -2 
7965 5 0.295035 0.619906 0.0109826 3 -3 -5 
5740 5 0.532689 0.653359 0.0414001 0 0 0 
7203 6 0.924189 0.717853 0.963103 3 -6 1 
8289 5 0.0358144 0.741906 0.0224188 3 1 1 
7004 6 0.151753 0.727628 1.00153 4 2 -1 
7046 6 0.172384 0.73332 0.0155219 4 -3 2 
8118 5 0.630996 0.760594 0.0447395 4 2 2 
8015 5 0.895789 0.714801 0.00531232 2 -2 -2 
8529 5 0.57865 0.834542 0.0129016 6 0 -1 
8625 5 0.240191 0.862893 0.0508182 -6 0 3 
7717 6 0.848538 0.90557 0.00204763 0 0 4 
8333 6 0.167457 0.877618 0.0185535 4 0 1 
5563 5 0.447977 0.886192 0.981068 4 -6 -2 
7609 6 0.404309 0.98346 0.984478 -2 3 4 
8334 5 0.57363 0.949161 0.0276692 0 -1 6 
7192 5 0.873507 0.0172645 -0.00332898 2 3 2 
6091 5 0.716992 0.0106005 0.98747 -3 -2 4 
7440 5 0.950746 0.939797 0.989471 0 -1 5 
7024 5 0.957793 0.97295 0.998752 2 -2 4 
5937 6 0.351506 0.967193 0.0433291 1 2 4 
5154 6 0.495549 0.996085 0.0575283 -5 0 8 
8307 6 0.572819 0.0590752 0.0295011 -3 -3 3 
5291 5 0.826373 0.0327456 0.0294726 -2 4 1 
8919 5 0.0992418 0.0555047 0.0522535 -1 -3 -2 
8526 6 0.151642 0.0627215 0.0472545 -3 -1 7 
6953 6 0.29502 0.0867151 0.0675914 0 -4 0 
5031 5 0.114259 0.0576231 0.0413246 4 2 0 
7881 5 0.640131 0.160589 0.0570882 -1 3 0 
6557 5 0.30861 0.154921 0.0733745 1 -6 -5 
7604 6 0.610955 0.156066 0.0251302 -1 -1 -1 
7247 5 0.485815 0.163966 0.0315839 -1 -2 1 
6373 5 0.0232968 0.177461 0.990126 0 0 -2 
8977 5 0.463451 0.154566 0.0416299 1 4 6 
8550 5 0.0571903 0.217325 0.0314052 1 6 5 
6339 6 0.132007 0.179057 0.049083 3 -3 0 
5035 5 0.227555 0.198277 0.0467316 -3 1 2 
5253 6 0.825169 0.239983 0.011354 2 3 -3 
8456 6 0.387019 0.258077 0.0246449 0 -4 2 
5971 5 0.890229 0.235545 0.0327963 0 -1 -2 
8287 6 0.829598 0.26555 0.0528412 -1 1 -1 
8930 5 0.0255059 0.36026 0.0620971 3 3 -7 
6172 6 0.495452 0.345343 0.0572915 -4 1 -5 
6288 6 0.801233 0.393617 0.0450012 -8 -3 -1 
8699 6 0.043199 0.406286 0.0508542 -1 -2 -1 
8892 6 0.906335 0.404276 0.0363665 2 -4 0 
5738 5 0.0771699 0.419782 0.042129 0 5 4 
6910 6 0.196408 0.423121 0.04214 -2 2 2 
8467 6 0.708803 0.433456 0.0392885 0 0 2 
8917 6 0.895306 0.440508 0.0451835 -1 -1 4 
7583 6 0.287294 0.483013 0.051535 3 -3 3 
5407 5 0.561906 0.494642 0.0666217 1 -4 -3 
7058 5 0.750808 0.448106 0.0487292 2 0 -1 
8795 6 0.225892 0.470113 0.0509389 0 0 1 
8313 6 0.0441371 0.519249 0.0305557 0 -2 -3 
8405 6 0.272831 0.499696 0.0368198 0 3 1 
8443 5 0.0967251 0.583299 0.0305216 1 -2 -2 
6901 6 0.231515 0.551597 0.0228961 0 -3 0 
8433 6 0.86422 0.519076 0.0456711 -4 5 3 
7907 5 0.784607 0.600043 0.0104203 -3 -1 0 
7756 5 0.255636 0.629625 0.0386697 2 8 6 
5268 5 0.49631 0.578216 0.000292198 -4 -2 -6 
5919 6 0.896355 0.605617 0.0468483 -2 2 3 
6919 6 0.89614 0.64616 0.994004 -5 -3 -3 
8645 6 0.160505 0.605281 0.0297828 4 0 -4 
6925 5 0.350634 0.634189 0.0207247 -3 -1 -2 
5784 5 0.845521 0.656193 0.0271142 2 0 2 
6187 5 0.0449029 0.683726 0.0363277 5 1 -4 
6761 6 0.368589 0.666538 0.0736781 3 2 0 
7146 6 0.544318 0.663647 0.0576318 -3 0 -3 
8171 6 0.937606 0.67707 0.0340107 2 4 -1 
5140 6 0.130994 0.709555 0.0542611 -1 0 -3 
6905 5 0.474652 0.678823 0.0222596 0 3 -4 
8648 6 0.637219 0.71652 0.988888 0 0 1 
7426 6 0.707678 0.706387 0.0532456 -2 0 0 
5795 6 0.744994 0.659836 0.0427301 -2 0 -3 
8226 5 0.977993 0.673041 0.991644 -1 0 2 
5223 6 0.0916272 0.734474 0.0417951 -2 -1 2 
8058 6 0.484507 0.708181 0.988066 1 2 4 
5372 6 0.56834 0.699199 0.0364585 1 0 3 
6140 5 0.610293 0.716969 0.0135916 3 0 5 
8813 6 0.64427 0.728665 0.00460236 5 -5 -4 
6284 6 0.327656 0.739753 0.0544466 0 0 3 
8865 5 0.332947 0.739975 0.0341079 -2 -1 3 
8856 6 0.494339 0.766077 0.0104856 0 -4 2 
6137 6 0.494904 0.72439 0.00738075 -3 -3 0 
5788 6 0.734243 0.740729 0.0464803 -2 -1 -3 
7186 6 0.152669 0.815757 0.996174 -1 2 1 
7144 6 0.0470177 0.780814 0.0456587 5 4 -3 
5124 5 0.0803612 0.803589 0.0191819 2 -5 1 
5768 6 0.274341 0.809285 -0.0021593 0 -4 3 
6239 5 0.857068 0.845239 0.0370514 -3 2 -2 
5989 6 0.651297 0.888609 0.0120061 -2 -3 -1 
8898 6 1.00429 0.770813 0.0562842 -7 1 0 
8995 5 0.679346 0.847338 0.0136436 -1 0 1 
8303 6 0.815182 0.87923 0.0512392 1 -2 -1 
6789 5 0.894883 0.859965 0.0323835 1 4 2 
6584 6 0.837422 0.879319 0.0471905 1 2 3 
6252 5 0.438029 0.862759 0.025279 -2 -1 1 
7894 5 0.995769 0.864174 0.0364794 1 1 -3 
5086 6 0.117986 0.906298 0.0528801 0 0 -6 
6662 5 0.273756 0.9241 0.0458461 -1 1 -1 
5854 5 0.505735 0.832164 0.0673437 5 -5 -6 
7475 6 0.752237 0.899448 0.0170127 3 -3 -3 
5158 6 0.772724 0.932171 0.0686884 -2 0 -4 
8835 5 0.438265 0.923728 0.0624293 3 2 3 
8468 5 0.456034 0.888422 0.0298709 -4 3 4 
8401 6 0.577619 0.92929 0.00285843 2 -2 3 
5535 6 0.700893 0.933552 0.03367 -2 0 -1 
7315 6 0.711583 0.915511 0.01705 3 -1 4 
6923 6 0.235074 0.927532 0.0161745 3 1 0 
8170 5 0.316381 0.958273 0.0494101 -1 -4 -3 
6664 6 0.461428 0.982762 0.0540763 -3 -4 4 
7885 6 0.464463 0.963663 0.0553768 6 -1 2 
8674 5 0.0140073 0.99216 -0.00310136 -1 0 2 
5532 5 0.690474 0.00564145 0.0442907 -2 1 -5 
7048 5 -0.00176431 0.0213489 0.050115 1 3 6 
5640 6 0.960837 0.98086 0.0608362 2 -3 4 
6259 6 0.968101 0.981135 0.0754324 -5 -1 -4 
8594 6 0.299141 0.9936 0.0136808 -3 2 1 
6989 5 0.673628 0.025047 0.0203232 -2 0 4 
8948 5 0.428162 0.0498543 0.0523809 1 -3 0 
6707 5 0.540935 0.0504871 0.0393915 -2 1 2 
7645 5 0.123565 0.0786026 0.0538124 3 0 1 
5360 6 0.274759 0.0643047 0.0466143 2 2 3 
5728 6 0.441529 0.0964522 0.0889963 0 -3 1 
7759 6 0.102953 0.0590163 0.082469 1 3 2 
6280 5 0.0815279 0.138966 0.030956 1 5 7 
5763 5 0.133481 0.160039 0.0557874 1 4 1 
6972 5 0.618913 0.132335 0.0359716 -1 7 1 
6741 5 0.969804 0.14465 0.0786131 6 3 0 
5576 6 0.215164 0.181142 0.0717449 6 -1 2 
7691 6 0.584086 0.165704 0.0776378 3 -4 -4 
6513 6 0.289229 0.198268 0.0467339 1 5 -2 
5787 5 0.704047 0.163135 0.0665016 0 2 -3 
6197 6 0.792283 0.223747 0.0495254 -2 2 1 
5354 5 0.314739 0.171791 0.0243804 -3 -1 1 
8470 6 0.614096 0.212025 0.0926143 -3 5 4 
8745 6 0.321776 0.243682 0.0807229 5 -2 0 
8388 5 0.37457 0.273996 0.0502199 -3 5 -2 
7739 6 0.678312 0.247358 0.0675103 -2 -1 3 
5444 5 0.872868 0.23762 0.0496824 -1 2 3 
7164 6 0.0580912 0.266035 0.0453291 -1 1 -1 
8001 6 0.253802 0.258465 0.0632721 4 3 2 
8442 5 0.521958 0.247578 0.0572078 -1 0 5 
6915 5 0.169246 0.276591 0.0562644 8 1 1 
6952 6 0.375951 0.286663 0.0544721 1 5 2 
5101 5 0.338431 0.328609 0.0778218 1 0 -4 
6735 6 0.782372 0.330335 0.0633633 3 3 4 
5511 5 0.795739 0.275599 0.0592206 -2 3 2 
8415 5 0.0716132 0.308782 0.0340851 -3 1 2 
8422 6 0.654306 0.324074 0.0385577 3 2 4 
6368 6 0.804369 0.30893 0.0366286 -4 3 1 
8183 5 0.0042269 0.321311 0.0618221 1 3 0 
8152 5 0.145031 0.347121 0.0684542 5 1 1 
8868 5 0.228926 0.392316 0.0575618 -1 2 3 
5949 6 0.70863 0.35032 0.063295 0 1 1 
8719 5 0.753648 0.377156 0.0374258 -2 -1 7 
6186 5 0.0921628 0.388079 0.0809949 2 2 0 
7625 6 0.897226 0.370627 0.0365349 0 1 -4 
7289 5 0.176669 0.417826 0.0855318 -4 2 -3 
6844 5 0.123156 0.443059 0.0253133 3 4 4 
6437 6 0.908113 0.435473 0.0252448 -1 5 0 
7348 5 0.13575 0.467439 0.0119213 3 2 2 
5767 5 0.578617 0.487154 0.0845205 5 2 4 
7559 6 0.797646 0.536172 0.0715207 -4 3 3 
6265 6 0.921474 0.492253 0.0281019 -2 -1 -2 
6075 6 0.749159 0.544307 0.0984707 -1 4 -1 
6306 5 0.351964 0.594345 0.0686602 1 2 8 
8182 6 0.984845 0.593878 0.0897597 -2 1 0 
6954 5 0.989335 0.548032 0.0604472 4 0 7 
5468 5 0.125337 0.628866 0.0453319 5 0 4 
5700 6 0.401367 0.743457 0.0201976 -2 -3 1 
8374 5 0.558314 0.642141 0.0609094 -4 -1 0 
6983 5 0.702552 0.639801 0.0326633 2 1 3 
8686 6 0.940391 0.660514 0.0426584 3 -1 1 
7601 6 0.206741 0.673533 0.0562364 -1 -1 2 
8890 6 0.35114 0.684602 0.0603749 -5 -1 -5 
6631 6 0.761706 0.696235 0.0940731 -1 -3 6 
8337 5 0.842773 0.692461 0.0642187 -3 3 -1 
8326 6 0.122834 0.709545 0.0633292 0 -2 -1 
5471 5 0.639433 0.70866 0.0819854 -4 -1 0 
6951 5 0.325995 0.742026 0.0627344 2 -1 0 
7858 5 0.688628 0.765639 0.0815939 2 -5 3 
5869 5 0.734667 0.76288 0.0621373 -1 -6 4 
5375 6 0.822898 0.719207 0.0532205 -3 1 4 
7137 5 0.899377 0.714137 0.0421758 2 -2 3 
6240 6 0.404115 0.779027 0.0712191 -1 -3 -1 
5875 6 0.681336 0.786198 0.0910202 1 -3 8 
7125 5 0.0794333 0.807223 0.0857807 -3 0 -2 
7659 6 0.225204 0.796201 0.0329287 -1 0 -2 
7313 5 0.961346 0.78682 0.0798747 -5 -1 -1 
5735 6 0.50432 0.816729 0.0343748 -4 0 -4 
7301 6 0.534142 0.844011 0.0600474 4 -5 5 
8129 5 0.571865 0.831341 0.0837521 -5 0 -1 
6956 6 0.583553 0.879842 0.070243 0 -1 -1 
7000 5 0.748567 0.83892 0.0402047 3 2 -2 
7870 5 0.995771 0.849864 0.0212089 -1 -1 -2 
8569 6 0.441199 0.883593 0.0736309 -7 -2 1 
5194 5 0.595992 0.885911 0.07915 -2 6 1 
6383 6 0.386954 0.874683 0.0448854 0 0 1 
7602 5 0.206398 0.921807 0.070602 3 -1 -4 
6171 5 0.225087 0.927722 0.0611187 3 -3 0 
5261 5 0.265964 0.896775 0.0848121 -3 0 1 
8675 6 0.774135 0.901598 0.0412427 4 -1 -3 
5845 6 0.675161 0.956204 0.0224343 -1 3 0 
8991 6 0.00197566 0.948998 0.0610069 1 -4 2 
5036 5 0.248687 0.0216827 0.0826961 5 2 0 
7946 5 0.728425 0.99194 0.122217 -3 1 0 
8093 5 0.890085 0.9852 0.0652718 -5 -1 -2 
7835 6 0.710694 0.00926309 0.04651 0 -1 0 
8656 6 0.761314 0.019056 0.0761827 -1 2 -1 
6336 5 0.176265 0.112571 0.0989507 4 -1 2 
6827 5 0.757674 0.0392203 0.0406672 2 -1 2 
7895 6 0.630373 0.0577182 0.0482944 5 3 2 
6122 6 0.692797 0.0898125 0.0900856 0 -3 2 
5828 5 0.912529 0.0786544 0.130322 -3 -5 -1 
8071 6 0.255408 0.0865624 0.0629717 2 1 2 
5312 5 0.670664 0.148083 0.0685055 5 0 7 
8346 6 0.934517 0.0981402 0.0975348 -3 1 -2 
7476 5 0.0882111 0.136526 0.0467191 0 4 -1 
6842 5 0.562877 0.154143 0.102092 -1 3 5 
5440 6 0.0320253 0.162775 0.0585569 -1 1 -1 
6093 6 0.252653 0.165842 0.0702215 3 2 -4 
5707 5 0.400557 0.163363 0.10541 -1 -3 0 
8702 6 0.449545 0.197718 0.111404 -3 1 4 
6599 6 0.856667 0.162979 0.102799 1 -1 -1 
7830 5 0.6546 0.217664 0.137433 -2 1 -2 
7219 6 0.811446 0.238178 0.0591495 -2 -4 2 
5900 6 0.659629 0.242431 0.0723837 0 -1 4 
5727 6 0.17974 0.250165 0.0285235 3 0 0 
5319 5 0.462825 0.265909 0.0951228 0 1 -3 
8290 5 0.943228 0.275799 0.100577 3 -1 -1 
6355 5 0.160365 0.292996 0.0639544 0 2 3 
6466 5 0.28261 0.275509 0.0867279 -2 -1 5 
7456 6 0.306371 0.30289 0.0764708 5 -4 -1 
5483 5 0.71837 0.287599 0.0519679 0 4 0 
5482 6 0.719109 0.262073 0.0543509 4 -1 3 
5415 6 0.985963 0.269338 0.111098 -2 4 0 
6879 5 0.459394 0.301864 0.0806493 1 2 -5 
5078 5 0.728063 0.310944 0.0964375 0 -2 -3 
5296 5 0.958809 0.393073 0.0963898 0 -9 0 
6808 6 1.00072 0.379833 0.0677253 3 4 0 
5111 5 0.688455 0.403205 0.0795111 2 1 1 
6727 5 0.730642 0.388089 0.0730499 2 3 1 
6317 5 0.184049 0.425808 0.0791351 1 -2 1 
7090 5 0.441346 0.426863 0.0762722 -5 2 -1 
6994 6 0.712098 0.442893 0.105763 0 3 3 
7598 6 0.811734 0.480037 0.0754006 -2 -1 -2 
6034 6 0.848258 0.418959 0.0711827 -3 -3 1 
7375 5 0.334759 0.46921 0.0773923 4 1 3 
8853 5 0.543386 0.491843 0.084021 -2 -3 4 
5840 6 0.74388 0.475692 0.0695812 1 -4 -4 
8231 5 0.322552 0.466013 0.102385 -2 1 -2 
5317 5 0.61467 0.465821 0.0811774 -2 0 1 
7670 5 0.66819 0.489843 0.12326 -4 0 5 
8844 6 0.447078 0.463903 0.0380699 1 1 -2 
8269 6 0.185801 0.531697 0.11959 2 -8 2 
5656 5 0.962014 0.51163 0.099317 3 3 0 
5084 5 0.123814 0.576708 0.0778785 -7 4 2 
8098 6 0.341552 0.599168 0.0774323 -1 -1 -4 
6605 5 0.310591 0.612393 0.0746488 1 -1 0 
5417 5 0.725067 0.59841 0.114774 -2 -4 5 
6052 6 0.355968 0.659713 0.0733513 -4 1 2 
5911 6 0.574658 0.6497 0.0837591 1 -4 -1 
5136 6 0.897655 0.604846 0.0889478 3 -2 1 
6568 6 0.277985 0.664497 0.0669857 -1 1 2 
7326 5 0.87202 0.712739 0.0680118 -2 -2 -1 
7988 6 0.0096065 0.638119 0.0965193 1 3 -1 
6233 6 0.18648 0.700402 0.0777464 -5 -5 7 
7996 5 0.373419 0.714139 0.107089 3 1 -2 
5398 6 0.0831675 0.71361 0.110917 -2 1 -7 
5366 5 0.123979 0.720237 0.0537172 -1 1 4 
8913 5 0.178829 0.711137 0.0911163 6 1 4 
6412 5 0.269589 0.726601 0.10194 -3 2 0 
8274 6 0.510759 0.714126 0.0565687 0 0 -1 
6204 5 0.890717 0.73313 0.10023 4 -1 -1 
7802 6 0.59282 0.77429 0.0811068 1 0 3 
8059 6 0.612089 0.800696 0.0880686 1 0 -2 
7758 5 0.567355 0.783403 0.0693462 4 -3 8 
6074 6 0.887659 0.809676 0.0562573 3 -5 0 
6887 5 0.2782 0.884212 0.0331474 1 -3 0 
8047 6 0.849376 0.89611 0.037493 -2 -1 2 
6066 6 0.249509 0.872216 0.0747664 -2 -2 7 
8060 6 0.328301 0.860335 0.0631867 0 1 2 
5872 5 0.631718 0.90699 0.0505908 -2 -1 -2 
5099 6 0.285593 0.966507 0.0706237 -3 2 2 
7948 6 0.144885 0.974151 0.0901815 0 5 2 
6296 6 0.25056 0.0405814 0.0439312 1 1 5 
7910 6 0.475792 0.033344 0.0611175 -4 4 2 
7102 6 0.444357 0.0246693 0.0828583 -1 -8 3 
5226 6 0.57589 0.993751 0.0909391 4 1 4 
8963 6 0.837535 0.00338998 0.0914632 -1 3 2 
5992 5 0.985008 0.0224159 0.107174 1 -1 -4 
7964 6 0.637019 0.0600257 0.0973115 0 -3 -1 
6731 6 0.229373 0.0311076 0.139084 -2 0 1 
6260 5 0.879035 0.0730263 0.117486 -4 2 2 
8081 6 0.359413 0.143187 0.105749 -2 -2 1 
7676 6 0.346899 0.148918 0.0774595 -1 0 1 
5297 6 0.677062 0.180904 0.0813252 -2 -2 3 
6623 6 0.739397 0.169202 0.109184 0 -4 1 
8354 5 0.484898 0.263204 0.101164 0 4 5 
5925 5 0.746072 0.185804 0.102392 4 1 1 
5249 5 0.79547 0.212126 0.134956 1 9 4 
7646 6 0.368787 0.239425 0.145563 2 0 3 
5724 6 0.415306 0.252794 0.125139 -1 2 0 
6231 6 0.721929 0.269861 0.0868517 -1 -1 4 
5023 5 0.704012 0.270187 0.103911 -4 3 -3 
5943 6 0.715465 0.29086 0.104907 -1 1 -1 
7101 5 0.200502 0.314403 0.159662 -1 6 2 
8585 6 0.349894 0.320152 0.0962688 4 -3 -1 
5822 6 0.559866 0.348519 0.111758 -1 3 0 
6654 5 0.954968 0.298889 0.125056 0 -2 2 
6449 5 0.831551 0.317465 0.109941 0 -9 0 
6524 5 0.547629 0.36736 0.0844412 -2 4 0 
5232 5 0.634182 0.340725 0.13375 0 2 0 
8758 6 0.913895 0.38018 0.0596136 -1 2 2 
6104 6 0.179272 0.445926 0.0969822 -4 3 -2 
6807 6 0.271134 0.412539 0.132156 0 2 2 
5174 6 0.0551084 0.446765 0.112461 2 1 1 
5506 6 0.818049 0.461798 0.108774 0 1 2 
7410 5 0.117647 0.485748 0.0889345 -2 0 -3 
5851 6 0.528777 0.524584 0.106678 -4 -4 1 
7217 6 0.743123 0.548463 0.0894229 2 -2 -4 
5422 5 0.165077 0.517401 0.0872643 -1 -2 -2 
6056 6 0.539945 0.511005 0.0608135 -2 4 5 
6829 5 0.565615 0.554527 0.11668 -4 -4 4 
6565 6 0.408355 0.626789 0.127699 -1 -4 2 
8322 5 0.666939 0.625926 0.0826644 -1 -1 -2 
7933 5 0.964421 0.617689 0.103078 2 2 -2 
5544 6 0.989481 0.655548 0.106866 0 2 5 
6113 6 0.173815 0.664326 0.0835014 0 -2 2 
6370 6 0.664169 0.612851 0.0755646 2 -2 -1 
8053 5 0.189068 0.720639 0.112043 -5 3 3 
5013 5 0.383647 0.674538 0.0942535 -4 -1 -3 
7564 6 0.46094 0.717101 0.102443 1 1 -2 
6702 6 0.815183 0.702351 0.116684 6 -2 6 
6699 6 0.378837 0.70567 0.0810944 -1 1 4 
5841 6 0.615918 0.718655 0.122215 -2 -2 -4 
8126 5 0.682703 0.729346 0.107116 2 9 1 
8659 6 0.683475 0.68038 0.0767585 4 1 4 
8851 6 0.147283 0.743658 0.094095 -1 -3 -4 
8351 6 0.0297715 0.767858 0.0516712 -1 1 -1 
5039 5 0.33054 0.766464 0.0534663 2 -4 -3 
7714 6 0.619809 0.741416 0.141149 -5 1 -1 
8710 5 0.0423806 0.806927 0.0751812 3 1 -1 
7991 6 0.866874 0.758985 0.131015 -3 -2 0 
6558 5 0.0833024 0.807018 0.116096 5 -1 4 
7742 5 0.31131 0.825693 0.0955798 0 1 0 
5211 6 0.638599 0.836189 0.117632 2 1 3 
5480 6 0.597493 0.819851 0.0875728 5 0 -2 
5773 6 0.277068 0.819401 0.134349 -1 -3 2 
8160 6 0.248415 0.813205 0.123426 0 -6 -2 
5667 6 0.6358 0.833635 0.0926985 0 -1 -2 
5561 6 0.253463 0.832539 0.128625 -1 0 2 
6399 5 0.272889 0.868761 0.093079 -4 -4 5 
7966 5 0.887636 0.824682 0.0720096 4 0 -1 
5240 5 0.424307 0.923121 0.103897 5 0 4 
7619 5 0.887957 0.907597 0.100243 3 3 -2 
8444 5 0.2313 0.980134 0.121237 0 -2 2 
6538 6 0.347265 0.992226 0.0987263 0 0 0 
6054 6 0.364911 0.0137328 0.0896995 -1 1 0 
5379 6 0.0490964 0.00918897 0.107036 0 -5 -1 
8264 5 0.033496 0.978572 0.123023 5 -1 1 
8938 5 0.351763 0.97018 0.102948 0 -4 -1 
7986 6 0.438321 0.0154759 0.102809 -4 -5 -1 
8026 5 0.527294 0.00887563 0.171062 2 2 0 
6697 6 0.699584 0.00446626 0.11777 -2 2 1 
6518 6 0.0565199 0.0680713 0.0977 2 1 -1 
6013 6 0.348966 0.0679074 0.0953174 0 5 1 
5347 5 0.712254 0.073799 0.14239 3 3 1 
5295 5 0.0726546 0.0712402 0.119896 0 0 5 
6272 5 0.453109 0.0846246 0.141141 5 1 -1 
8399 6 0.450347 0.127658 0.156062 0 1 -4 
6343 6 0.452104 0.159261 0.10397 -5 1 1 
8017 6 0.0156409 0.156503 0.124441 -3 0 -5 
5307 6 0.0817386 0.111202 0.101302 7 6 6 
7608 5 0.231826 0.153508 0.135107 0 2 1 
7616 5 0.354792 0.160607 0.117957 -1 -1 -1 
8860 5 0.237237 0.166283 0.0953049 -2 1 6 
6995 5 0.505067 0.207853 0.106119 -1 -2 2 
8062 6 0.983953 0.191405 0.154095 -4 -1 2 
8191 6 0.880628 0.233284 0.130788 -4 1 -3 
6476 6 0.0758952 0.264244 0.145832 1 2 -7 
8301 6 0.131454 0.285027 0.169576 2 -4 -1 
7463 5 0.881248 0.199209 0.100759 3 -1 -1 
6991 6 0.783274 0.253844 0.126738 -1 0 1 
7701 5 0.217214 0.306423 0.112034 -1 5 1 
7242 5 0.226486 0.335632 0.0929371 -2 3 -2 
7188 6 0.266583 0.321273 0.123845 1 -3 3 
8310 5 0.332155 0.332839 0.14142 -2 0 1 
8800 6 0.821244 0.300981 0.114611 -5 -2 -1 
7992 5 0.399341 0.311478 0.14117 -1 1 -2 
5887 5 0.400408 0.329193 0.0999095 1 -1 2 
6561 5 0.445605 0.33813 0.135201 -4 -2 -1 
5947 5 0.393528 0.347894 0.1306 -4 4 -4 
8357 6 0.672686 0.371536 0.102931 3 4 2 
8292 5 0.684993 0.366955 0.128004 -4 2 -2 
8324 5 0.798337 0.377815 0.14725 0 -1 -3 
6220 5 0.0682415 0.427291 0.142353 1 -2 -4 
8571 6 0.559376 0.371629 0.0961774 -3 -4 -3 
7980 6 0.802363 0.424363 0.0900389 -1 -1 3 
5438 6 0.954437 0.411095 0.143142 -4 1 0 
8434 6 0.625938 0.440259 0.120864 1 0 5 
8839 6 0.610741 0.458184 0.141521 -3 2 1 
5684 6 0.726401 0.452807 0.0968408 5 4 2 
5449 5 0.108334 0.470722 0.08534 -1 1 -1 
5464 6 0.137532 0.461806 0.163165 1 -1 -4 
7595 5 0.619977 0.474612 0.140573 -3 0 0 
7507 5 0.734808 0.499826 0.141921 0 3 -2 
7972 6 0.968077 0.469707 0.116575 -4 1 3 
6193 5 0.574076 0.521677 0.107617 1 1 1 
8192 5 0.757599 0.488774 0.128842 1 -3 6 
8976 6 0.129372 0.492971 0.130674 -3 -2 1 
5761 6 0.202961 0.514398 0.138356 -4 -2 0 
5306 6 0.338583 0.516083 0.0921492 3 -2 -5 
6937 6 0.485044 0.474853 0.125176 -2 -1 4 
7834 6 0.539402 0.519996 0.133007 -2 -2 3 
8417 5 0.84056 0.520016 0.138974 -2 2 -3 
5569 6 0.253673 0.490508 0.115841 -2 -1 -1 
7786 5 0.451857 0.535461 0.156255 2 -1 -1 
5048 5 0.800535 0.540733 0.157907 2 -1 4 
6801 6 0.954353 0.553172 0.117423 -1 1 2 
5714 5 0.484267 0.628661 0.14152 0 -3 -1 
5147 5 0.710191 0.574816 0.0987787 -2 0 -1 
5213 5 0.0655371 0.590489 0.11781 1 -1 2 
6889 6 0.456325 0.595956 0.154593 0 0 2 
8435 5 0.537486 0.642239 0.121674 1 -6 3 
5697 5 0.652275 0.618741 0.126341 -2 -5 3 
6721 6 0.238991 0.66638 0.143686 -1 -3 2 
7930 6 0.616409 0.680325 0.114552 -1 0 1 
5104 5 0.150871 0.668872 0.112124 -1 1 -1 
7826 5 0.249335 0.716084 0.12947 -5 -1 -1 
5004 6 0.38081 0.7257 0.13406 -2 0 1 
8779 6 0.704789 0.736706 0.0948522 -2 1 -4 
7271 5 0.716032 0.762 0.130306 0 -3 1 
7577 5 0.466307 0.760276 0.12099 -3 0 3 
5033 6 0.657099 0.761671 0.134369 1 -3 5 
5751 6 0.231782 0.784066 0.135672 4 -4 -2 
5660 6 0.655877 0.783552 0.15149 -1 0 -6 
5575 6 0.293375 0.797057 0.1097 -1 -3 5 
7732 6 0.908248 0.775129 0.0907196 2 5 2 
7283 6 0.559537 0.8281 0.103744 -2 0 2 
8105 6 0.684682 0.820167 0.118805 0 -2 3 
6922 5 0.200499 0.863123 0.136529 6 1 3 
8722 5 0.266101 0.868598 0.152096 -1 3 -2 
5262 6 0.628756 0.874006 0.131105 0 0 3 
8804 5 0.200031 0.894662 0.150452 -5 -1 3 
5539 5 0.794401 0.836082 0.147714 0 4 3 
7630 6 0.850312 0.881743 0.106281 -3 -2 1 
7878 6 0.825937 0.862219 0.146541 0 -2 -2 
6836 6 0.989809 0.828542 0.159794 1 -5 -1 
6906 6 0.775697 0.915398 0.172553 1 1 3 
5065 5 0.19028 0.91029 0.103507 3 -2 -2 
8599 6 0.406794 0.912957 0.138858 -5 -3 2 
8084 5 0.430223 0.879556 0.124964 1 -1 0 
6680 6 0.539831 0.968131 0.134555 2 -2 4 
6635 5 0.823634 0.997315 0.102478 2 -2 2 
6011 5 0.831944 0.966852 0.0843569 -3 1 2 
7567 5 0.0371785 0.962311 0.135457 3 1 2 
7076 5 0.0901332 0.946595 0.137342 2 -1 2 
5250 6 0.687132 0.973908 0.105857 -2 1 1 
6924 6 0.709277 0.946353 0.131344 3 0 1 
7029 6 0.00514551 0.998882 0.153289 0 -2 3 
6226 6 0.559401 0.016124 0.167312 1 2 3 
8978 6 0.60579 0.0265947 0.1434 1 -2 1 
6190 5 0.783391 0.0147869 0.151151 -1 3 6 
6000 6 0.0665211 0.0681388 0.155325 6 -4 -1 
6159 5 0.603141 0.0344086 0.146135 1 4 3 
7989 5 0.365892 0.0910989 0.161941 4 0 -4 
7138 5 0.0566297 0.172008 0.143248 5 3 -1 
7898 6 0.48219 0.142566 0.119079 1 0 2 
6811 5 0.676105 0.157863 0.14061 -3 6 0 
8372 5 0.200474 0.123839 0.166506 0 3 2 
6688 5 0.33552 0.162507 0.162387 -3 0 -2 
6495 5 0.0546472 0.218107 0.139761 4 0 3 
5146 6 0.936844 0.208371 0.115388 3 -2 0 
8516 5 0.978086 0.259441 0.14609 3 1 1 
5555 5 0.0964367 0.210132 0.152385 3 2 1 
8202 6 0.335312 0.24475 0.130013 1 -4 6 
5670 5 0.457558 0.200013 0.172296 2 1 -2 
7754 6 0.631179 0.261521 0.141652 -1 -1 4 
5950 6 0.0411043 0.252108 0.132964 3 0 -1 
5810 6 0.148402 0.288332 0.131105 0 -1 -4 
5181 6 0.568922 0.303349 0.182636 -6 -3 0 
7733 6 0.635847 0.350006 0.0997945 3 -3 3 
5637 6 0.961769 0.298878 0.144841 0 1 4 
7360 6 0.335833 0.367074 0.147148 -1 -1 6 
8608 5 0.523766 0.326981 0.175571 5 0 0 
6501 5 0.625624 0.340399 0.138782 -1 -3 0 
7362 5 0.918706 0.376144 0.160444 -2 0 0 
8315 6 0.149797 0.421845 0.157473 4 -2 2 
6552 5 0.578039 0.445567 0.125899 0 0 7 
6077 6 0.733277 0.477814 0.110493 -2 -1 0 
7590 6 0.184798 0.49533 0.162345 2 5 0 
5457 6 0.764383 0.521288 0.166734 0 0 0 
8076 6 0.0207667 0.566125 0.191809 3 1 6 
8180 5 0.16561 0.529797 0.149822 0 0 3 
5666 5 0.312796 0.555344 0.150466 0 1 3 
6250 5 0.804078 0.535767 0.174461 -1 -4 3 
6977 6 0.644262 0.586522 0.150002 -1 3 -2 
6397 5 0.00833361 0.564888 0.110653 -4 4 2 
6380 5 0.201581 0.633559 0.130182 -5 3 1 
6329 6 0.657022 0.625256 0.13935 -1 -2 1 
5733 6 0.672352 0.556639 0.181461 1 6 2 
5983 6 0.864919 0.630486 0.11649 -2 5 -3 
6455 5 0.0732471 0.634205 0.166286 4 -3 4 
5014 6 0.519698 0.599983 0.154107 -1 1 2 
8626 6 0.66973 0.626081 0.135847 2 2 4 
5184 5 0.670745 0.649574 0.175099 3 3 -2 
6589 6 0.0628736 0.702402 0.164704 -1 -3 2 
6164 6 0.246998 0.703542 0.170014 -2 0 -1 
5172 6 0.964977 0.719869 0.121222 1 -5 4 
5081 5 0.104965 0.813127 0.137086 -3 -1 0 
5155 6 0.502599 0.774585 0.217007 -1 -4 2 
8472 5 0.792318 0.776106 0.150847 1 -4 -2 
6647 6 0.364301 0.838646 0.16388 -5 0 2 
8505 6 0.697517 0.824827 0.147185 2 -3 -4 
5780 5 0.284092 0.811302 0.148373 -3 0 -1 
7761 5 0.529654 0.793991 0.159601 1 -1 -1 
7981 5 0.026117 0.894914 0.149937 -2 -2 -2 
5578 6 0.262145 0.849035 0.166084 0 -1 1 
8159 5 0.288139 0.883607 0.172138 4 -5 -1 
6167 6 0.617119 0.902354 0.181145 1 -1 4 
6279 6 0.602722 0.861344 0.120138 1 -3 -3 
6752 5 0.960778 0.875636 0.164308 -4 -5 -4 
5817 6 0.867086 0.958706 0.132003 1 -5 -2 
7136 6 0.0956787 0.969205 0.123686 2 0 -3 
6500 5 0.56908 0.988876 0.1227 0 2 4 
6002 6 0.710299 0.97623 0.160989 -3 4 0 
7558 5 0.163338 0.00467116 0.176781 0 3 -3 
5641 5 0.149564 0.0216267 0.223088 1 0 2 
6863 5 0.414181 0.0920853 0.158063 1 2 -1 
6929 6 0.714997 0.0547926 0.19112 0 5 -6 
5148 6 0.763673 0.0904044 0.196955 -2 -2 -6 
5409 5 0.942561 0.0985855 0.164902 1 0 0 
5230 5 0.21291 0.0707165 0.190241 -1 -4 2 
8295 6 0.402956 0.0425062 0.180886 -4 2 0 
6214 6 0.560359 0.118883 0.143836 -1 2 -6 
8915 5 0.177712 0.193419 0.143283 0 0 2 
5821 5 0.205555 0.141401 0.171757 1 2 1 
8520 6 0.195124 0.147843 0.157472 2 0 -2 
6115 6 0.681406 0.167722 0.139594 -2 1 2 
7075 5 0.811763 0.126382 0.164049 -1 1 3 
7312 6 0.145711 0.185493 0.181974 -1 4 5 
7133 5 0.23589 0.190896 0.153014 -3 5 0 
7468 6 0.416446 0.209096 0.158677 4 1 3 
8430 5 0.914386 0.245658 0.170593 0 1 1 
8137 6 0.913618 0.279823 0.175155 -4 1 0 
7346 6 0.970629 0.19832 0.153104 0 2 9 
6177 5 0.0413789 0.219296 0.172296 6 -2 1 
8072 6 0.650703 0.266708 0.143232 4 -1 -1 
8692 5 0.668064 0.287733 0.171663 2 6 1 
6582 5 0.876816 0.25386 0.130292 -4 7 -2 
5848 6 0.880358 0.259527 0.187317 0 4 3 
7167 5 0.711973 0.312941 0.184554 0 0 -3 
5661 6 0.133484 0.310992 0.165594 3 1 2 
7957 5 0.725495 0.312195 0.207742 -5 0 -2 
6961 6 0.177515 0.373833 0.133805 2 4 5 
8786 6 0.877385 0.345294 0.18131 -3 -5 7 
6162 5 0.301511 0.330753 0.164026 2 3 1 
6580 6 0.263027 0.398376 0.14323 1 3 2 
7202 5 0.290927 0.451309 0.148196 -1 1 -5 
6782 5 0.334569 0.355934 0.1672 -3 0 0 
5779 5 0.670668 0.386588 0.185895 -6 -3 -2 
8255 6 0.0492791 0.422178 0.145365 3 -1 -2 
6945 5 0.807466 0.383879 0.176593 1 5 -2 
8063 5 0.112874 0.404766 0.174861 1 1 -1 
6881 6 0.133084 0.472068 0.205811 -1 0 -1 
7317 6 0.0906278 0.507094 0.156823 2 -2 2 
5326 6 0.692932 0.533634 0.157742 -4 3 -3 
8280 5 0.804125 0.459233 0.191138 1 0 -1 
5128 6 0.197913 0.516044 0.167366 -2 0 2 
7967 6 0.393719 0.528889 0.140239 -1 1 0 
7823 6 0.406565 0.492223 0.139863 -5 -3 0 
7333 6 0.755682 0.525861 0.158201 -1 1 -1 
7700 5 0.586571 0.526285 0.189078 2 0 -5 
7904 5 0.907575 0.558468 0.197446 0 2 -6 
5390 5 0.951868 0.536313 0.169264 -5 3 -1 
8538 5 0.995219 0.477244 0.190807 1 -3 -1 
6512 5 0.664736 0.516537 0.17922 -6 0 2 
6385 5 0.703553 0.506815 0.156108 0 2 -6 
5451 6 0.80476 0.54228 0.171936 -1 1 -1 
5494 5 0.763914 0.616181 0.173908 -2 2 -5 
7696 6 0.0966056 0.624604 0.154029 8 0 0 
7541 6 0.805918 0.671581 0.148419 2 0 -3 
6175 5 0.92475 0.581771 0.169148 1 -5 4 
8615 6 0.324001 0.683662 0.18255 -4 4 -2 
8500 5 0.0183976 0.659629 0.175732 2 -1 -2 
8998 5 0.478392 0.668013 0.143684 -5 1 6 
6236 6 0.211719 0.704408 0.161578 -4 -4 2 
8530 5 0.691621 0.638308 0.18254 -6 2 3 
8244 5 0.914841 0.722883 0.13718 -2 -2 4 
5895 6 0.968642 0.700946 0.170729 1 -2 -4 
8460 6 0.653037 0.763585 0.160773 -5 -6 0 
8560 5 0.702608 0.713461 0.151652 0 -2 4 
5970 6 0.373414 0.766267 0.152042 -1 1 -1 
5886 5 0.866496 0.764523 0.136519 3 4 -2 
5481 6 0.296015 0.792562 0.169988 2 -3 1 
5860 6 0.717579 0.770333 0.16813 4 7 2 
7156 5 0.983402 0.815538 0.170617 0 0 -1 
6571 5 0.756527 0.866633 0.196553 0 2 2 
8833 5 0.41842 0.882672 0.191549 -1 3 1 
5363 5 0.875801 0.894644 0.156849 3 3 2 
8195 5 0.549098 0.893122 0.128489 1 1 -2 
5778 6 0.0189798 0.95442 0.173997 6 2 -7 
7012 5 0.223245 0.929072 0.148807 -2 2 3 
8493 5 0.614568 0.914052 0.207135 -2 -1 -6 
8551 6 0.819412 0.906199 0.163877 0 -2 -2 
7672 6 0.58035 0.97962 0.182056 0 -1 3 
6439 5 0.722838 0.949999 0.195611 1 -5 2 
5927 6 0.780701 0.963754 0.125111 -3 1 -1 
5198 6 0.350168 0.959731 0.1912 1 1 3 
7019 5 0.474546 0.953145 0.155782 2 -2 2 
8150 5 0.622259 0.942448 0.181633 1 2 -1 
6839 6 0.792575 0.981578 0.169287 0 -5 4 
8623 5 0.212454 0.977813 0.179866 -1 -4 0 
7268 6 0.275379 0.0494494 0.169594 1 1 -2 
7770 5 0.454727 0.0150212 0.182093 1 3 1 
7937 5 0.600222 0.0216384 0.197195 2 2 5 
5263 5 0.355953 0.0466849 0.218524 3 1 3 
8711 6 0.299174 0.0325986 0.183572 1 -3 -1 
5034 6 0.483372 0.0334449 0.190238 2 5 -2 
5286 6 0.609354 0.0142826 0.211281 1 -3 -6 
6868 6 0.0669902 0.140009 0.214151 5 1 2 
6712 6 0.363272 0.173126 0.216064 2 3 3 
5080 6 0.186475 0.200408 0.145772 0 2 4 
6569 6 0.310427 0.210212 0.220147 3 1 -3 
8447 5 0.344817 0.214188 0.215645 3 -2 -3 
5556 6 0.709343 0.221212 0.165825 -6 -2 4 
7656 5 0.13756 0.180779 0.18472 0 0 0 
7366 5 0.756982 0.274045 0.195439 -2 -1 -3 
5940 5 0.972893 0.186992 0.195036 -3 5 1 
8557 5 0.0403941 0.312381 0.200069 6 3 -3 
6421 6 0.443585 0.306518 0.215335 -4 -5 0 
5562 5 0.661665 0.293924 0.186275 0 6 0 
7838 5 0.0694076 0.269383 0.173895 3 0 2 
7813 6 0.0480225 0.342534 0.198694 2 -5 -1 
7176 5 0.44998 0.27889 0.198976 -3 3 -2 
7693 6 0.661422 0.327326 0.177247 -1 -2 1 
5479 6 0.399896 0.406615 0.199816 0 0 2 
8306 6 0.498009 0.371399 0.205573 0 -1 3 
5164 6 0.498977 0.412694 0.211166 2 -3 0 
7221 6 0.779127 0.375765 0.184891 8 -3 0 
6427 5 0.975902 0.418602 0.186877 -1 2 -1 
6436 5 0.601324 0.45426 0.188145 0 2 1 
8147 6 0.429069 0.440214 0.202095 3 1 -3 
5448 5 0.423113 0.45592 0.164885 -2 -4 -3 
5964 5 0.620925 0.482959 0.196228 0 4 0 
6717 6 0.697836 0.387404 0.203114 0 -2 -1 
7415 5 0.292275 0.485601 0.20504 -4 3 -7 
7906 6 0.362906 0.494972 0.225253 -4 -3 2 
7003 6 0.10825 0.513507 0.172021 2 -1 -4 
5890 5 0.484128 0.53356 0.220271 4 -1 -2 
8511 6 0.237442 0.573814 0.205521 1 -1 2 
6381 6 0.474424 0.567925 0.157557 -2 2 -4 
6480 5 0.147277 0.574481 0.19822 -2 1 2 
6402 6 0.72779 0.581827 0.186212 -4 -3 0 
7576 6 0.922161 0.575396 0.173674 2 1 -3 
6225 5 0.600766 0.631379 0.173126 -2 -3 0 
5260 6 0.883946 0.674059 0.183927 -3 -4 1 
6928 6 0.963563 0.649202 0.164292 1 -2 5 
5300 5 0.178088 0.651579 0.222697 11 1 2 