ITEM: TIMESTEP
20000000
ITEM: NUMBER OF ATOMS
9000
ITEM: BOX BOUNDS pp pp pp
-75 75
-75 75
-75 75
ITEM: ATOMS id type xs ys zs ix iy iz 
7710 6 0.262732 0.963174 0.00715039 1 3 2 
6937 5 0.268773 0.0163001 0.0175931 -2 2 1 
8619 6 0.898648 0.980726 0.996608 1 -6 0 
7483 6 0.152832 0.025371 0.0285803 1 0 1 
7695 5 0.358664 0.0642322 0.0163924 -2 -1 1 
6819 6 0.102568 0.0719971 0.0404151 1 5 -3 
7674 6 0.183316 0.0450309 0.0074429 3 0 1 
6568 6 0.208638 0.0871796 0.00573721 2 2 6 
6098 5 0.548366 0.0900835 0.00677553 -2 6 3 
7123 5 0.69714 0.07293 0.0281338 -2 3 -1 
6447 6 0.903002 0.0520269 0.0232228 1 -1 -1 
7765 6 0.430167 0.147391 0.995519 1 1 -5 
5769 5 0.487429 0.106622 -0.000103256 3 3 3 
8691 6 0.8257 0.121695 0.00981002 5 -2 -2 
5763 5 0.840107 0.110809 0.973308 -1 1 -5 
8337 5 0.0562121 0.141709 0.0106459 -2 0 0 
6037 5 0.198711 0.110107 0.00960014 -2 1 6 
6498 5 0.35045 0.156577 0.997209 1 3 -1 
6730 5 0.521814 0.102633 0.0342188 2 0 3 
8551 6 0.969318 0.131023 0.992407 -5 -7 -6 
8937 5 0.174935 0.145136 0.993927 -4 0 0 
5384 5 0.443263 0.142062 0.00451421 -3 0 2 
5041 5 0.903436 0.150258 0.0328223 2 2 2 
6898 6 0.923941 0.124847 0.00833353 -2 5 3 
6606 5 0.749824 0.178391 0.0406589 2 3 10 
7449 5 0.41822 0.185803 0.993582 4 2 0 
6217 6 0.413504 0.162807 0.0505383 -1 1 -2 
8563 6 0.00479182 0.201428 0.990854 4 0 -2 
8209 6 0.53742 0.229807 0.996213 -6 -3 -1 
5031 5 0.777881 0.230208 0.0110766 5 -1 3 
7220 6 0.090612 0.230321 0.990526 -7 1 6 
6111 5 0.229136 0.29444 0.989596 -2 -1 -1 
8024 5 0.808429 0.250742 0.997252 -4 -1 -6 
6452 5 0.464657 0.30284 0.0110698 2 -6 -1 
6770 5 0.875624 0.274336 0.00784882 3 -2 2 
7189 6 0.0830605 0.272831 0.00482446 0 1 4 
5048 6 0.653377 0.272471 0.0165697 5 5 -3 
5395 6 0.574824 0.306747 0.973789 -1 5 3 
5496 6 0.502567 0.314428 0.00457916 3 -1 0 
6223 5 0.0753405 0.320911 0.0491304 -5 3 -1 
7118 6 0.0928675 0.322364 0.996384 1 5 1 
5254 5 0.704331 0.369921 0.998344 1 -1 -3 
7814 6 0.860563 0.344762 0.0011703 -1 -3 0 
6909 6 0.143783 0.367777 0.0216195 1 1 4 
5854 6 0.907535 0.370195 0.0410921 1 2 3 
8113 6 0.213973 0.380248 0.0143695 2 -1 1 
8208 5 0.0617964 0.42709 0.0310564 4 1 1 
8193 5 0.315223 0.455718 0.0160222 0 -5 3 
7259 6 0.424686 0.451217 0.00787784 0 1 -3 
7985 6 0.834204 0.429671 0.0581136 -1 4 2 
6781 6 0.702681 0.407075 0.982626 -4 0 -1 
8723 5 0.0276299 0.410944 0.996053 -1 2 6 
6456 5 0.149538 0.470557 0.0136393 1 4 4 
7748 6 0.470483 0.470274 0.0179312 2 2 1 
7227 5 0.705876 0.419154 0.99466 1 1 2 
8013 6 0.188141 0.515921 0.0280896 1 -3 1 
8829 5 0.311598 0.441334 0.0533415 1 -4 -4 
6614 5 0.557741 0.488787 0.0292691 1 3 2 
8197 5 0.402596 0.492148 0.012122 -3 2 0 
5039 6 0.459258 0.512984 0.0336396 2 3 7 
8620 6 0.537314 0.511727 0.038059 -1 0 4 
8743 6 0.824698 0.51636 0.044766 0 -1 4 
8899 6 0.688377 0.493772 0.00990613 -2 -2 -1 
8393 5 0.13562 0.519905 0.989117 1 -1 2 
7000 6 0.496025 0.562393 0.0311191 0 -5 -2 
8509 6 0.883724 0.546577 0.988344 -1 2 5 
6228 6 0.18219 0.604694 0.0167202 -2 0 -2 
6207 6 0.398639 0.583086 0.979871 4 5 0 
8506 5 0.595769 0.59812 0.999327 1 -2 -3 
7850 6 0.799781 0.61411 0.0097857 -3 3 4 
6048 5 0.402268 0.59917 0.997865 -1 -1 -1 
5585 6 0.554057 0.581667 0.0510091 -1 2 2 
7274 6 0.733646 0.647308 0.979971 -3 1 -1 
5740 6 0.625226 0.658747 0.0176362 2 0 2 
7276 5 0.653964 0.641844 1.00022 4 0 1 
8056 6 0.422383 0.709178 0.0166171 -2 -1 0 
7210 5 0.953467 0.702641 0.0126314 -1 -5 -3 
6252 6 0.97978 0.697629 0.986822 2 3 1 
5847 5 0.0135682 0.694709 0.0351319 -3 -5 -1 
5172 5 0.417389 0.698991 0.981527 3 4 -2 
8424 6 0.508118 0.722225 0.0166271 -6 -2 -2 
6013 6 0.0313213 0.723511 0.0100229 -2 -4 -5 
6350 6 0.299626 0.734021 0.00188076 -1 0 2 
8584 5 0.355703 0.736355 0.00394548 1 0 -1 
8063 6 0.159729 0.777151 0.992365 -3 2 -2 
5274 5 0.369596 0.77261 0.994692 0 1 4 
8652 6 0.568248 0.782719 0.0468565 4 1 2 
6561 5 0.778414 0.762593 0.0305542 -1 2 -1 
7214 5 0.394757 0.795748 0.0467493 0 -4 -3 
7462 5 0.941854 0.790273 0.00892003 7 -3 3 
7686 6 0.456454 0.860691 0.0437554 -5 0 0 
5905 6 0.950189 0.846508 0.982317 4 0 -1 
6210 5 0.0502335 0.858754 0.997692 0 -1 2 
7685 6 0.314595 0.838809 0.0320452 -1 0 2 
8554 5 0.797408 0.842885 0.0142704 2 -3 4 
7436 5 0.958735 0.919019 0.0185757 3 2 -1 
6078 5 0.0833494 0.940007 0.0398738 -5 -2 1 
7936 6 0.720654 0.91804 0.0119341 -3 0 0 
5914 6 0.94642 0.964941 0.0132793 3 3 3 
6919 5 0.187405 0.938312 0.0267649 0 -4 -4 
7897 5 0.740404 0.963065 0.981681 -1 -5 -3 
7433 6 0.195736 0.97877 0.0211992 2 -1 1 
6709 5 0.459461 0.0226873 0.0140658 -5 -1 2 
7280 5 0.575098 0.974723 0.0527623 -1 0 5 
6001 6 0.507602 0.0395236 0.0638898 1 2 0 
5068 6 0.0498108 0.0405765 0.0353115 10 4 0 
7272 5 0.637111 0.0268562 0.0457654 4 3 4 
8431 6 0.0962567 0.049004 0.0608756 2 -4 -1 
5528 5 0.734681 0.107009 0.0423527 -2 1 -1 
5942 6 0.87083 0.079214 0.00626356 -1 2 3 
7823 6 0.280775 0.091809 0.0439665 2 2 2 
6787 6 0.249797 0.132452 0.0288356 -2 1 2 
8525 6 0.881732 0.114828 0.0561113 -1 4 -3 
8523 6 0.458126 0.156347 0.0472747 5 -3 -2 
8115 5 0.725236 0.156888 0.0596417 2 4 4 
5772 5 0.211368 0.128453 0.0419725 1 0 5 
7049 5 0.311154 0.176571 0.0242014 1 -5 1 
6082 5 0.715312 0.16485 0.0276118 6 0 -2 
7111 6 0.693128 0.146163 0.0427587 1 0 2 
7456 5 0.987001 0.148479 0.0169854 1 1 -2 
7912 5 0.419171 0.205218 0.0122618 -1 0 2 
7689 6 0.766756 0.232832 0.0519446 1 -1 0 
5899 6 0.820387 0.245467 0.0440628 -1 6 1 
6180 5 0.871111 0.264442 0.05887 -1 -2 0 
8792 6 0.400074 0.328261 0.0213349 -1 1 -5 
5356 5 0.280404 0.322985 0.0214492 -4 0 2 
5551 5 0.489132 0.308212 0.043639 1 2 3 
8833 6 0.512232 0.33064 0.0378618 3 -1 -3 
7080 6 0.905015 0.398196 0.0572631 6 2 3 
8968 5 0.924912 0.371296 0.0281845 -2 0 4 
8485 6 0.141304 0.37276 0.0305667 1 -1 -4 
5183 6 0.612148 0.427784 0.0264099 -6 -4 3 
8290 6 0.200711 0.458066 0.0278889 -2 1 -2 
6107 6 0.344761 0.540824 0.0561985 -1 -1 5 
8425 6 0.416126 0.489806 0.0351252 -6 2 -1 
8600 6 0.538005 0.496618 0.012121 -1 7 2 
7059 6 0.112956 0.540565 0.0431723 1 1 -2 
7341 5 0.48149 0.5172 0.0174175 3 0 0 
5378 6 0.492784 0.494238 0.0555277 -4 0 -3 
5308 6 0.814676 0.512036 0.0698926 0 2 1 
5928 6 0.520941 0.542784 0.00218879 1 2 -2 
7444 6 0.698042 0.522573 0.0546404 2 -3 -4 
6577 5 0.417765 0.55739 0.988872 -1 3 -1 
8840 6 0.987341 0.551366 0.0343653 1 2 -2 
7465 6 0.569025 0.608547 0.0441396 0 -3 2 
5934 5 0.467673 0.587975 0.0337331 -1 1 3 
7633 6 0.542585 0.629405 0.0104254 -4 -1 -3 
7807 5 0.0103537 0.608977 0.0420704 0 -1 0 
5570 6 0.305402 0.650127 0.0638601 -2 0 1 
7574 5 0.775517 0.658211 0.0319032 2 -5 -4 
8983 5 0.982229 0.679773 0.0611614 -2 3 -3 
6503 5 0.352661 0.672918 0.0372413 0 1 -3 
6442 6 0.404683 0.689656 0.0568371 3 0 -1 
5741 6 0.435599 0.686063 0.0136641 3 0 -1 
5730 6 0.468441 0.653351 0.00894586 3 -1 4 
7401 6 0.473509 0.66107 0.0177159 3 1 -1 
8671 5 0.924884 0.716413 0.0236088 0 -2 0 
6837 5 0.343638 0.720301 0.0361208 -1 -1 2 
7333 5 0.730817 0.6925 0.0190117 -3 1 1 
7544 5 0.702729 0.717075 0.0358676 -7 0 5 
5712 6 0.941044 0.685637 0.0484953 1 6 -1 
7338 5 0.501832 0.741469 0.994049 -2 0 -3 
6672 5 0.00817818 0.794558 0.0384924 -1 -4 6 
6895 6 0.114622 0.842303 0.0753795 2 0 4 
7541 6 0.0610368 0.833723 0.0153298 -4 1 -1 
7599 5 0.140284 0.845962 0.0369975 1 -6 2 
6511 6 0.73791 0.853596 0.0747375 1 0 -1 
7715 5 0.623204 0.830262 0.0271744 2 2 4 
8490 6 0.874713 0.857403 0.0318481 1 -1 1 
7346 5 0.570637 0.899755 0.994063 -2 -4 7 
8542 6 0.672068 0.914365 0.036843 3 -4 2 
5512 6 0.660329 0.866916 0.0384799 -4 0 -4 
6899 6 0.512815 0.896847 0.00605583 4 0 -1 
5879 6 0.0938648 0.979841 0.0175651 0 0 -3 
5963 6 0.510679 0.907169 0.0475371 -1 -1 -1 
6858 6 0.598184 0.962873 0.0428094 -1 -3 6 
5217 6 0.930906 0.946381 0.0344268 1 1 0 
7733 5 0.104476 0.00692182 0.0271735 -1 0 2 
7755 5 0.399567 0.987467 0.0456462 1 0 2 
5811 5 0.752341 0.982344 0.0402768 -2 0 1 
5777 5 0.227009 0.0338461 0.0427856 2 -3 1 
7513 5 0.507503 0.0287732 0.0582498 0 0 5 
5072 6 0.641107 0.0329355 0.00715698 -4 1 -1 
5721 5 0.387086 0.020278 0.0464168 4 7 3 
5181 6 0.259949 0.075645 0.0597912 2 0 -1 
5280 6 0.387774 0.101116 0.0521936 -5 1 0 
6357 6 0.551856 0.10247 0.0720634 -2 3 1 
6939 5 0.0603348 0.11497 0.0458989 3 -1 2 
5723 6 0.206622 0.120519 0.0743988 1 0 0 
8267 5 0.51705 0.128471 0.0533057 -3 -5 -1 
5692 6 0.666599 0.104337 0.0536708 -2 -2 -1 
6302 6 0.80943 0.122847 0.0346225 -2 1 -2 
7682 5 0.0119196 0.102256 0.0881807 -4 0 2 
7032 6 0.935183 0.195862 0.0465221 -3 3 4 
5502 6 0.518112 0.234453 0.0720874 -2 -2 -1 
8766 6 0.6825 0.226079 0.0438997 2 0 -3 
5391 5 0.278293 0.250315 0.018126 2 3 2 
5128 5 0.577756 0.30253 0.021457 0 1 0 
8118 6 0.684821 0.239946 0.0485117 2 -2 0 
7980 6 0.520162 0.284811 0.0995719 3 -7 0 
7435 5 0.380665 0.291764 0.0513893 5 0 -4 
5320 5 0.469988 0.320758 0.070289 1 1 1 
5876 5 0.120395 0.322649 0.0533026 7 4 2 
7053 6 0.219862 0.30827 0.0635992 -1 2 5 
5921 5 0.0472611 0.356672 0.0663096 1 -6 1 
7615 6 0.803465 0.368611 0.0767061 2 3 5 
6673 6 0.866577 0.364529 0.064669 -2 1 0 
7999 5 0.048593 0.368828 0.0948261 1 4 -2 
7063 5 0.344254 0.402325 0.0737697 0 -3 6 
8869 6 0.364556 0.356353 0.0267709 0 -2 -5 
7810 6 0.482972 0.384515 0.0551358 1 1 4 
7679 5 0.603512 0.357304 0.0673799 2 -1 1 
6842 6 0.9082 0.352636 0.08479 -1 -3 -1 
7027 6 0.11417 0.393997 0.0618322 3 6 5 
5916 6 0.562872 0.388684 0.0507624 -4 -2 0 
8827 5 0.956379 0.425021 0.0646261 -1 1 5 
6584 6 0.029705 0.398056 0.0317308 -5 -2 2 
5357 5 0.694478 0.411529 0.0863588 2 1 2 
6351 6 0.622909 0.438086 0.0850765 2 -1 2 
5239 5 0.240624 0.531409 0.0228587 3 5 5 
6651 6 0.549182 0.54317 0.0486201 -3 1 -1 
5223 6 0.0257882 0.585696 0.0413439 3 -3 1 
7506 6 0.770274 0.610667 0.0811834 0 -2 5 
7857 6 0.319997 0.613812 0.0499329 0 -2 -1 
6157 6 0.44625 0.64001 0.0692155 0 -1 -1 
7571 6 0.467722 0.648658 0.0276802 -1 2 4 
5951 5 0.680388 0.62278 0.0364763 -4 -3 -1 
5684 5 0.276494 0.628175 0.0790222 -5 3 1 
6612 5 0.94062 0.631283 0.0455741 -3 6 0 
7749 5 0.910805 0.652554 0.0484017 4 3 -7 
8019 6 0.152236 0.749174 0.0425152 -1 -1 0 
8295 6 0.293215 0.699727 0.00770833 5 6 5 
8695 5 0.45789 0.747415 0.0627192 -3 5 2 
7116 5 0.371693 0.714418 0.0415809 4 2 1 
6626 5 0.784226 0.715992 0.0563151 -1 2 3 
6209 5 0.871797 0.732788 0.0565911 2 -1 -4 
6600 6 0.495224 0.776902 0.0738828 -3 -3 2 
6621 6 0.546277 0.750523 0.0773998 0 -1 3 
5667 6 0.0928192 0.782408 0.0561941 1 0 1 
7916 6 0.672354 0.84886 0.044423 0 0 4 
5930 5 0.313434 0.875465 0.0707597 -3 -1 -3 
6955 5 0.441156 0.872832 0.0354502 -1 -1 1 
6641 5 0.699579 0.868594 0.0731427 -4 -2 0 
8083 5 0.0902384 0.892672 0.0305901 5 -6 -5 
6181 6 0.39611 0.956989 0.0642604 -2 4 0 
6870 6 0.153432 0.900334 0.0592394 0 2 0 
8448 5 0.224095 0.94138 0.0844815 -1 -3 3 
5919 5 0.310108 0.944553 0.0417845 3 5 -1 
8736 6 0.619458 0.948129 0.0280284 -4 -3 -3 
8801 5 0.417259 0.926342 0.0526773 2 1 -2 
8915 6 0.644016 0.996193 0.0677927 -1 -5 1 
8382 6 0.0524592 0.990225 0.0366068 2 -5 -3 
7844 5 0.0826142 0.0401645 0.0438373 1 -4 0 
5487 6 0.489754 0.00953254 0.0429371 1 5 3 
8163 5 0.566436 0.995904 0.114018 -7 -2 3 
5835 5 0.0879771 0.0597654 0.0879971 -3 -4 1 
5179 5 0.111592 0.0476931 0.058228 -3 -5 2 
7712 5 0.623264 0.0443829 0.0756026 -2 5 4 
8093 5 0.717995 0.0631339 0.0917148 -4 -6 0 
8856 5 0.875896 0.0403401 0.0791168 -2 0 5 
5453 5 0.214904 0.112007 0.0717134 4 3 -2 
8594 5 0.159338 0.168047 0.0773094 4 6 -5 
6555 5 0.123738 0.182008 0.0722542 -1 -3 2 
7673 5 0.985791 0.16576 0.10673 1 2 1 
7853 6 0.458765 0.197462 0.0229341 3 1 -1 
8167 6 0.441846 0.204134 0.0960339 6 1 1 
7165 6 0.690448 0.226789 0.088661 3 -2 -3 
6749 6 0.507776 0.238471 0.0323711 -1 -1 2 
5367 6 0.548739 0.240612 0.0851469 3 6 2 
6358 5 0.103321 0.28447 0.058373 5 -3 1 
7257 6 0.413879 0.277183 0.0812077 -2 1 -2 
5439 6 0.674906 0.268654 0.0898682 -1 -6 0 
7406 6 0.200846 0.315512 0.0749504 9 -2 3 
7526 6 0.766847 0.336945 0.088757 -5 -1 4 
6866 5 0.881824 0.36274 0.0650204 1 -1 -4 
8778 6 0.457868 0.343814 0.0943338 2 2 -2 
6663 6 0.125754 0.411596 0.0815133 -2 2 -2 
5306 6 0.715342 0.36119 0.056874 -3 0 0 
6043 6 0.526182 0.383661 0.0869182 2 -4 -1 
8418 5 0.717595 0.481174 0.120632 2 -1 -1 
8450 6 0.342459 0.516251 0.0873935 1 -4 -1 
8065 5 0.365881 0.500903 0.0844205 -3 -3 1 
6820 6 0.937405 0.475943 0.0837954 -1 1 1 
5733 6 0.792095 0.470721 0.0895266 -1 2 -5 
8051 5 0.26551 0.566702 0.10426 -4 1 -4 
5838 5 0.541796 0.542953 0.10703 3 -1 2 
6206 5 0.976449 0.554785 0.0817056 -6 3 -2 
6419 5 0.738097 0.511783 0.0558213 -2 2 4 
8449 6 0.75856 0.569955 0.119592 1 1 6 
5961 5 0.882573 0.64154 0.0607702 -1 -2 -4 
8234 5 0.0153571 0.630399 0.0761662 -3 -2 2 
6848 6 0.344009 0.599489 0.104304 -2 2 2 
7108 6 0.63297 0.590162 0.0708042 1 1 -2 
8898 5 0.832198 0.576113 0.108428 -7 1 -1 
8254 5 0.709072 0.652395 0.0904566 -8 -4 -1 
7324 5 0.732803 0.676144 0.0918567 3 3 5 
6889 5 0.138709 0.71751 0.100189 -4 -4 5 
6993 6 0.549058 0.720141 0.0765776 1 -1 -1 
6558 6 0.359873 0.740211 0.0829359 -2 -3 -1 
7345 5 0.390473 0.755514 0.0934108 5 5 3 
7728 6 0.888864 0.772752 0.0915719 0 -1 -5 
5093 5 0.446192 0.823876 0.0825488 -3 0 -5 
7550 5 0.229398 0.852704 0.0697303 -1 -2 7 
7608 6 0.198379 0.875534 0.0574852 -2 -1 0 
5687 6 0.330149 0.846548 0.0390125 -4 4 4 
8785 5 0.545022 0.862149 0.0435599 2 -3 0 
8540 6 0.784958 0.878188 0.0369511 0 -2 -2 
8539 6 0.474678 0.910954 0.101023 -1 8 2 
6092 6 0.104183 0.931143 0.112568 0 1 -2 
7796 6 0.637132 0.900328 0.057355 -2 -5 0 
6529 6 0.645023 0.951554 0.163416 -1 2 -4 
5440 5 0.358964 0.997075 0.0997212 -4 -4 -3 
7047 5 0.61941 0.930852 0.0510953 -1 2 -5 
6648 5 0.456369 0.98673 0.0730568 2 -4 -1 
7117 5 0.82074 0.986238 0.0547323 1 -3 -3 
8045 6 0.609899 0.995723 0.068057 -3 -5 1 
8546 5 0.267293 0.0300244 0.122283 4 -1 -1 
7233 5 0.369332 0.0194759 0.0962449 1 -2 2 
6072 6 0.57385 0.0225974 0.0829768 2 1 2 
7154 6 0.639331 0.0582971 0.0706501 -1 6 -1 
7751 6 0.526745 0.0705924 0.063258 -1 -2 -1 
5632 5 0.582487 0.0347774 0.086016 1 -1 1 
6189 5 0.543817 0.0400534 0.109825 0 2 -1 
7209 6 0.665926 0.079103 0.0786091 1 -4 3 
8846 6 0.725604 0.0630664 0.0767236 0 -1 -2 
7846 6 0.258666 0.067028 0.112983 1 1 0 
6402 5 0.607922 0.0875005 0.0924863 -3 -2 0 
5627 5 0.0326133 0.0615559 0.0939417 0 -6 0 
7753 6 0.152675 0.129722 0.0803674 -3 -2 1 
8677 6 0.470779 0.0785999 0.114371 1 3 0 
6049 6 0.825469 0.0994392 0.107577 -2 3 -1 
6193 6 0.985858 0.106901 0.070704 -1 -2 4 
7649 6 0.0318794 0.138043 0.121998 -2 0 -2 
8277 5 0.486194 0.102787 0.0774297 0 1 5 
6660 6 0.71353 0.152396 0.0939963 -4 0 -1 
8655 5 0.953636 0.103236 0.0790753 7 2 -1 
5725 5 0.353097 0.174256 0.0698996 3 5 1 
6211 6 0.533121 0.183797 0.120741 -2 -2 2 
6952 6 0.611637 0.16667 0.0767722 2 1 -2 
7514 6 0.749249 0.167578 0.0910844 1 1 7 
8992 5 0.518978 0.195672 0.105718 3 -3 -2 
8962 5 0.813118 0.177362 0.131449 -3 1 -1 
6368 6 0.839957 0.16802 0.0789026 -1 -1 -1 
7860 6 0.196141 0.235973 0.130236 1 -2 6 
8973 5 0.404631 0.233438 0.115039 4 -2 2 
7017 6 0.488399 0.230111 0.0765875 0 1 0 
8004 5 0.845872 0.24319 0.110461 1 -4 4 
6397 6 0.299987 0.278598 0.101649 0 4 2 
7579 6 0.00230701 0.283036 0.0603895 1 4 1 
5529 5 0.351507 0.27081 0.0488001 3 -3 2 
5648 5 0.535134 0.30096 0.127425 -2 3 -1 
7429 6 0.99786 0.257982 0.101472 -1 2 0 
8980 6 0.470032 0.310694 0.094681 2 -5 -2 
8530 6 0.87583 0.347077 0.117897 3 0 0 
6796 6 0.22256 0.35486 0.0972992 -3 -3 -5 
5015 6 0.418852 0.382271 0.117222 -1 3 3 
7911 6 0.632045 0.363781 0.115115 -6 -4 2 
7389 6 0.265175 0.378894 0.0956545 2 -1 -1 
8136 5 0.852551 0.385918 0.0977831 -1 3 -2 
7829 5 0.816254 0.377396 0.0898122 -1 0 4 
8440 6 0.532748 0.464539 0.0826335 2 -2 0 
8726 6 0.607881 0.405247 0.12015 -2 1 5 
5547 6 0.652279 0.43025 0.109441 2 2 4 
5603 5 0.18123 0.470341 0.104689 -1 3 0 
5091 5 0.308427 0.458814 0.0706805 -1 -3 2 
8610 6 0.698549 0.472475 0.11322 3 -5 0 
6137 6 0.248551 0.475317 0.111862 4 3 -4 
6475 5 0.491494 0.493329 0.0775047 2 0 3 
8375 5 0.887709 0.447072 0.117137 -5 -1 2 
6095 6 0.888801 0.514069 0.119416 -6 3 2 
7363 6 0.51139 0.525371 0.154014 2 1 0 
5271 5 0.317669 0.55264 0.114302 -4 1 3 
6009 6 0.530692 0.604338 0.0910174 -1 2 0 
7706 5 0.0424495 0.640084 0.096792 -3 3 0 
5205 5 0.263113 0.637323 0.119116 -3 -3 3 
6256 5 0.331798 0.641193 0.112503 4 -1 5 
8514 5 0.0530661 0.659429 0.089871 0 0 2 
5933 6 0.975145 0.694383 0.0537865 -1 1 -1 
8145 6 0.427638 0.711916 0.113491 2 5 -4 
7800 6 0.722595 0.700665 0.094112 -4 3 1 
8446 5 0.314182 0.751417 0.090087 4 -2 0 
8316 6 0.28204 0.769968 0.126129 -3 5 -1 
6371 6 0.288282 0.770186 0.0828784 8 2 1 
8048 5 0.626112 0.799702 0.129762 -1 2 3 
6755 6 0.729855 0.832983 0.0877898 -1 0 -2 
8488 6 0.61017 0.785836 0.130253 -5 -1 2 
8772 5 0.828918 0.795011 0.0916474 3 1 -1 
5665 5 0.0557972 0.831064 0.109566 2 -1 3 
5244 6 0.330167 0.81174 0.041569 2 2 0 
8870 5 0.594939 0.814948 0.0890238 -2 2 1 
7635 6 0.85606 0.800485 0.0929983 -1 0 1 
5155 5 0.0543934 0.880147 0.129686 -3 6 -1 
6652 5 0.931701 0.894056 0.0921858 4 -2 -3 
5052 6 0.293229 0.940072 0.0990984 1 -1 -2 
6887 5 0.610926 0.912375 0.0827734 -2 -3 -1 
5283 5 0.606892 0.928964 0.0998039 -4 4 0 
7085 5 0.810792 0.943524 0.0983846 -1 2 -1 
8458 5 0.848505 0.914024 0.157331 0 -3 -4 
8541 6 0.13413 0.945075 0.094678 -2 -1 -4 
8849 5 0.26357 0.940142 0.125069 0 1 1 
6686 6 0.721844 0.977315 0.107878 -4 0 3 
5001 5 0.932758 0.958674 0.0485622 -3 2 -1 
6424 6 0.656829 0.931198 0.104327 2 -1 0 
7247 6 0.690286 0.982148 0.0929807 -4 1 1 
5110 6 0.385875 0.974213 0.0751303 0 -2 2 
8225 6 0.0410219 0.0134088 0.103934 -3 8 -2 
6800 5 0.203041 0.997402 0.11285 4 1 3 
5236 5 0.277455 0.98489 0.14745 -1 -5 0 
5885 6 0.273159 0.019499 0.123538 0 3 -1 
6233 6 0.9276 0.0409684 0.134509 1 -2 -1 
6479 5 0.913957 0.990519 0.15132 2 1 2 
5880 6 0.0418865 0.0448435 0.124373 2 5 -2 
8567 5 0.116459 0.0516034 0.123074 2 2 -1 
7369 6 0.0624732 0.0531259 0.0957735 -3 3 8 
7539 6 0.893314 0.0658993 0.14996 -4 0 1 
7283 6 0.116769 0.109919 0.113707 0 -4 -5 
6527 5 0.17004 0.0809107 0.111362 5 -1 3 
8207 5 0.460129 0.0873525 0.122058 0 2 2 
6191 5 0.902197 0.131716 0.115018 0 3 3 
7101 6 0.292466 0.107987 0.123283 0 -3 1 
6117 6 0.576992 0.142832 0.134562 3 -1 0 
8651 6 0.0270257 0.167654 0.126849 3 -1 3 
5213 5 0.682442 0.144988 0.129286 5 3 2 
5853 6 0.00284235 0.207586 0.109412 0 -1 1 
6385 5 0.220739 0.186752 0.170379 -5 0 2 
7228 5 0.902767 0.214258 0.120345 0 2 5 
6944 6 0.32618 0.223693 0.0613534 1 1 1 
5938 5 0.507045 0.260454 0.108924 -5 1 1 
7295 5 0.157764 0.302596 0.143261 -1 1 0 
6125 6 0.705978 0.290864 0.111856 -1 3 1 
5626 5 0.88815 0.280874 0.133192 -5 4 -1 
6501 6 0.0315166 0.291225 0.145959 1 0 3 
6598 5 0.119422 0.252249 0.131054 0 3 0 
6990 5 0.426362 0.31174 0.173042 4 -2 -3 
8657 5 0.31451 0.317511 0.10486 -2 -2 2 
5884 6 0.941013 0.33026 0.115076 -3 2 2 
5757 6 0.253687 0.359786 0.0869995 1 0 -1 
5303 5 0.752121 0.372656 0.131015 -4 -4 0 
7917 5 0.905779 0.395935 0.0791987 -2 -1 -1 
8468 5 0.908548 0.430341 0.111005 0 -3 -1 
6163 5 0.068877 0.447225 0.161823 -1 1 3 
7368 5 0.264142 0.390199 0.0994587 1 3 0 
6860 6 0.851532 0.412592 0.122495 -5 1 1 
8727 6 0.157616 0.46475 0.115647 0 7 1 
7618 5 0.546647 0.422272 0.135685 5 1 -1 
5764 6 0.532463 0.478269 0.126479 3 1 0 
7743 6 0.76451 0.413315 0.124613 -1 5 1 
6219 6 0.201431 0.438145 0.160545 3 -4 4 
8251 5 0.23326 0.476618 0.119009 2 -2 0 
7803 5 0.931709 0.513451 0.119155 -5 4 -5 
5717 5 0.651106 0.515033 0.118998 -4 3 0 
6692 6 0.403888 0.554061 0.0886283 0 -2 -4 
6802 6 0.492973 0.543516 0.112914 0 -2 -2 
8286 5 0.434121 0.528578 0.125084 0 -4 2 
8321 5 0.901527 0.551783 0.129332 -2 5 -4 
8152 6 0.837858 0.590111 0.0935517 3 -2 2 
5178 5 0.139916 0.610479 0.13052 -3 -4 1 
6995 5 0.158883 0.596831 0.120488 -1 1 0 
6267 6 0.228266 0.595891 0.150887 1 3 4 
7784 5 0.585509 0.557128 0.152827 -2 0 3 
6172 6 0.0345514 0.645742 0.0945876 2 -5 2 
7904 5 0.521847 0.644656 0.117324 -4 0 3 
7088 5 0.615264 0.653217 0.16373 -1 0 -4 
8767 6 0.802652 0.644601 0.101115 3 -1 1 
5028 6 0.115534 0.695139 0.13558 -1 5 -4 
7256 5 0.158092 0.684682 0.131939 2 2 0 
7923 6 0.169795 0.655642 0.106377 -2 -4 1 
6975 6 0.333184 0.684731 0.130228 1 3 1 
7833 6 0.410276 0.677372 0.116023 -4 -2 1 
6039 6 0.306766 0.73028 0.129954 0 5 -2 
6637 5 0.478601 0.709044 0.116814 0 -3 2 
6556 5 0.778224 0.73582 0.113783 0 3 -1 
8123 6 0.832407 0.700264 0.118923 2 2 2 
8511 5 0.938974 0.716371 0.150517 0 3 4 
5979 5 0.803088 0.745524 0.117337 3 -2 0 
8268 5 0.216117 0.753919 0.126961 1 3 -1 
8831 5 0.62492 0.723559 0.137934 6 -3 7 
5646 5 0.554702 0.778896 0.118514 -7 -2 1 
5301 6 0.626357 0.780731 0.115495 -7 -2 2 
5629 6 0.814546 0.802974 0.129309 -4 -2 2 
6685 6 0.242788 0.7977 0.107759 2 -1 -3 
5138 5 0.262384 0.795246 0.123082 -2 3 3 
5580 6 0.706054 0.8094 0.0875145 1 -1 3 
5337 5 0.247532 0.856229 0.162411 0 -4 3 
8066 6 0.233176 0.853222 0.103571 0 -1 -3 
7808 5 0.48775 0.817555 0.112185 0 5 0 
7237 5 0.910676 0.835592 0.115097 5 -4 -3 
7961 5 0.0441989 0.90417 0.175098 1 -8 4 
7360 5 0.426745 0.885432 0.124395 3 2 4 
5107 5 0.416318 0.871641 0.116737 -2 -4 3 
6023 5 0.436453 0.841873 0.123251 0 2 -1 
5881 6 0.513179 0.915762 0.1292 -3 0 3 
7885 6 0.224337 0.870589 0.126833 0 3 1 
6773 5 0.563435 0.9191 0.144693 -1 9 -1 
7343 6 0.0248412 0.936989 0.134437 1 5 1 
7022 5 0.772327 0.925823 0.157797 -6 2 -2 
5846 6 0.827563 0.965209 0.106883 0 1 1 
5628 6 0.976978 0.955537 0.118234 1 4 4 
5542 6 0.0136689 0.995046 0.130191 5 3 -1 
5829 6 0.37503 0.965616 0.114735 4 0 1 
6766 5 0.415097 0.982556 0.128921 4 1 -2 
8022 6 0.584106 0.987465 0.0874452 0 1 -4 
8233 6 0.817928 0.996329 0.123895 0 0 -1 
6119 6 0.905737 0.94929 0.129161 3 3 3 
5650 6 0.130822 0.991664 0.140587 7 0 -1 
8958 6 0.291214 0.966138 0.157406 -2 -2 2 
6409 5 0.384053 0.0145208 0.138261 4 4 2 
5218 6 0.425505 0.989984 0.130479 2 0 8 
7058 5 0.588775 0.0423695 0.195476 -1 0 -3 
7212 6 0.874087 0.98472 0.145545 0 3 4 
5621 5 0.68402 0.0310439 0.160777 3 1 2 
8437 6 0.658325 0.050243 0.143382 3 -2 0 
8867 6 0.961038 0.0952189 0.186105 -2 2 -3 
8121 5 0.253957 0.103653 0.140224 5 2 2 
7879 5 0.703321 0.111789 0.136333 1 2 -3 
6888 5 0.0513337 0.132613 0.122537 -1 5 4 
8247 5 0.0804717 0.135435 0.130991 1 0 -2 
5262 6 0.10516 0.148656 0.130346 2 2 -3 
5064 5 0.123259 0.155471 0.143378 -1 -1 4 
5292 5 0.222705 0.138799 0.134878 1 1 4 
6613 5 0.909557 0.149647 0.183889 -2 0 1 
5844 6 0.927535 0.104101 0.131773 -2 -3 4 
6523 5 0.946575 0.150341 0.112994 -1 -2 1 
5562 6 0.00791394 0.256022 0.144366 -1 -3 2 
6940 5 0.87653 0.220806 0.135373 4 -3 -3 
6260 5 0.130071 0.212836 0.172696 3 6 0 
6696 6 0.622363 0.246178 0.172828 -3 -1 3 
8569 6 0.93428 0.231252 0.165821 -3 -5 -3 
6200 6 0.229483 0.253894 0.120332 -3 0 0 
5966 5 0.937282 0.32827 0.132744 -2 0 2 
8296 6 0.0651085 0.307054 0.138587 3 1 2 
6029 6 0.71144 0.332264 0.137691 -9 0 2 
5843 6 0.196213 0.362459 0.102488 2 5 -4 
5581 6 6.99481e-05 0.399301 0.149061 -2 0 0 
8165 6 0.48557 0.39752 0.139199 -1 3 5 
8315 6 0.384454 0.407822 0.15535 0 -1 1 
7387 5 0.629638 0.402647 0.147422 5 -2 -1 
8108 5 0.855317 0.433813 0.126779 1 0 -4 
8445 5 0.0100417 0.456574 0.119218 5 0 -4 
7631 6 0.932303 0.420103 0.117039 -1 -5 -3 
5108 6 0.932153 0.452091 0.141389 -4 2 1 
8925 6 0.942555 0.467731 0.172797 -2 -4 1 
5051 6 0.396547 0.497471 0.134807 -3 -1 -1 
5010 6 0.588531 0.480389 0.101391 4 0 3 
8397 6 0.213448 0.464938 0.155291 1 0 2 
5728 6 0.475472 0.501121 0.111396 -2 2 0 
7334 5 0.416611 0.50251 0.15131 1 -1 2 
6657 6 0.925856 0.582177 0.192937 -6 3 0 
6035 5 0.69613 0.533253 0.138904 0 3 -2 
5819 5 0.750943 0.547685 0.136454 -1 1 2 
5954 6 0.114795 0.593889 0.146308 1 7 0 
7654 6 0.300268 0.581308 0.169487 3 -7 2 
8135 5 0.470957 0.61647 0.153289 3 1 3 
5533 5 0.815737 0.587575 0.178783 2 1 3 
5347 6 0.881635 0.614009 0.154445 6 1 -1 
7300 6 0.91884 0.619802 0.138863 2 -6 -6 
8081 6 0.0475987 0.695288 0.157028 -1 3 -1 
5668 5 0.475799 0.701741 0.146083 -2 4 0 
6347 5 0.544111 0.696368 0.148971 -5 -1 -4 
7524 6 0.540956 0.728588 0.127662 -6 -2 -2 
6292 6 0.478359 0.739629 0.166884 0 -4 -2 
7972 5 0.525067 0.772719 0.139048 1 -3 -2 
8226 6 0.894562 0.799241 0.1887 7 -2 1 
5890 6 0.981286 0.797819 0.112212 -1 -2 2 
5891 5 0.472583 0.826165 0.139089 -3 -1 0 
6905 6 0.546306 0.836621 0.11253 4 4 1 
7138 6 0.408541 0.865926 0.13674 0 3 -4 
7786 5 0.504131 0.834336 0.187162 2 7 -1 
8363 5 0.561659 0.82952 0.133679 -2 -1 -3 
6426 6 0.671988 0.851498 0.121935 -3 3 0 
7709 6 0.934889 0.841569 0.143298 2 -3 0 
7213 6 0.135658 0.901698 0.16263 0 1 -2 
8198 6 0.213016 0.926632 0.12748 -2 -5 -1 
5679 6 0.545438 0.876837 0.119504 -1 -7 -1 
5404 6 0.40746 0.879547 0.197515 -1 -4 1 
7113 6 0.949999 0.936505 0.151162 -5 -2 -6 
8877 6 0.791939 0.899441 0.114672 2 1 0 
5597 5 0.854487 0.921402 0.150548 2 -3 0 
5832 6 0.770259 0.0129446 0.131745 2 -5 0 
8758 6 0.0995439 0.972729 0.181052 2 -4 2 
6249 6 0.67752 0.991376 0.148063 -2 -2 -1 
7427 6 0.807456 0.048309 0.155379 4 5 1 
6594 6 0.866764 0.0460082 0.16172 0 3 -1 
5971 6 0.0400641 0.070757 0.165257 -1 1 -4 
5249 5 0.126536 0.0773481 0.238656 2 0 1 
6619 6 0.494083 0.0984283 0.15657 2 5 0 
8455 5 0.524385 0.0608556 0.149928 2 1 -4 
6901 6 0.672293 0.0816776 0.173624 0 -1 0 
5689 6 0.219667 0.0962632 0.177757 -2 -6 9 
7169 6 0.218687 0.134068 0.159287 3 4 -1 
6704 5 0.921081 0.105554 0.149958 2 0 3 
5340 5 0.516007 0.129649 0.168925 2 2 1 
8524 5 0.235172 0.219044 0.18695 -3 1 -1 
6701 6 0.766207 0.203518 0.16583 0 5 2 
7642 5 0.0601408 0.212478 0.166501 -2 -3 3 
6238 6 0.116751 0.164053 0.214465 0 0 -2 
5349 6 0.386135 0.217145 0.148166 -1 0 -2 
8035 5 0.709219 0.162609 0.189713 1 -2 1 
8130 5 0.359473 0.263574 0.182912 0 -5 1 
8910 6 0.434446 0.257732 0.161082 1 3 -3 
5756 5 0.523907 0.228622 0.158494 -5 4 5 
8744 6 0.73331 0.241969 0.178299 -3 5 2 
7208 6 0.350364 0.251177 0.178742 3 -4 -6 
5219 6 0.669777 0.287472 0.14562 -5 3 -1 
8802 6 0.724386 0.313574 0.18903 -6 -2 -4 
7470 6 0.170341 0.300699 0.235892 2 5 8 
5098 5 0.238598 0.313619 0.169522 -3 0 2 
8336 6 0.21168 0.347068 0.163926 1 3 -2 
8608 6 0.42376 0.306261 0.186175 -1 0 2 
5435 6 0.419655 0.378404 0.178897 3 -4 2 
7805 5 0.658668 0.366493 0.184665 -1 1 0 
5834 5 0.908722 0.346445 0.18367 -4 -3 5 
6061 6 0.321626 0.367665 0.17323 -2 -4 -2 
7447 5 0.395419 0.364992 0.17593 4 0 6 
8275 6 0.0745277 0.406127 0.167761 1 2 -1 
6003 6 0.145754 0.374139 0.185152 1 2 -5 
8181 5 0.789933 0.425762 0.176569 -2 0 -5 
8160 6 0.472124 0.445998 0.165933 0 -6 3 
5493 5 0.557077 0.438914 0.151033 1 3 -1 
8685 5 0.0655886 0.494743 0.15994 -3 -1 4 
6109 6 0.190154 0.536925 0.150383 2 0 2 
6532 5 0.551433 0.560278 0.148639 4 0 -2 
7489 6 0.0511953 0.605442 0.122544 2 1 0 
8663 6 0.102667 0.586791 0.193978 5 3 -1 
7651 6 0.375379 0.558615 0.167779 -2 -2 1 
8953 5 0.837479 0.583551 0.204904 -1 -1 -1 
8184 5 0.506001 0.588313 0.174026 -2 3 -2 
6266 6 0.696937 0.593156 0.206778 -1 0 -2 
5355 6 0.963262 0.617626 0.185296 0 1 4 
6453 6 0.13621 0.653822 0.13533 1 2 4 
5437 5 0.320535 0.623448 0.189236 5 0 0 
5654 6 0.727198 0.654721 0.201159 1 0 -2 
5415 6 0.401925 0.596229 0.206457 8 -4 3 
6661 6 0.460815 0.64729 0.0985361 1 2 -4 
8562 6 0.363145 0.655466 0.167334 2 0 -2 
8516 5 0.292339 0.741877 0.170187 2 -3 2 
7596 5 0.584754 0.734883 0.170499 4 -3 7 
6611 6 0.754483 0.738262 0.154703 -2 -2 1 
7050 5 0.332193 0.802497 0.222501 -3 0 3 
6451 6 0.493474 0.751145 0.164076 -1 1 -1 
8330 6 0.0613619 0.727261 0.182237 4 1 0 
8718 5 0.13331 0.752302 0.198199 -1 -2 2 
8679 5 0.0150476 0.807511 0.128236 2 2 -1 
5715 5 0.52516 0.799715 0.173736 2 -1 0 
8273 6 0.479948 0.805881 0.180975 -2 0 0 
7407 6 0.560485 0.843994 0.182632 -1 3 3 
6042 6 0.745376 0.801911 0.196553 -2 4 -1 
8928 5 0.587731 0.880406 0.160148 1 6 -1 
6677 5 0.961305 0.876866 0.149008 0 4 -1 
7223 6 0.833302 0.903151 0.168792 0 -1 3 
5060 5 0.575576 0.907439 0.167896 -2 1 2 
6789 6 0.900044 0.901811 0.221751 -2 -2 -1 
7886 6 0.897246 0.910303 0.14145 3 -4 0 
7179 6 0.0940292 0.932411 0.16442 -1 0 -2 
5598 5 0.539851 0.949561 0.173941 -1 2 -1 
5002 5 0.00797437 0.975359 0.16472 0 3 1 
8716 5 0.0320939 0.946911 0.151109 -1 2 0 
5702 6 0.366889 0.959865 0.166701 -1 -6 3 
5699 6 0.379279 0.940405 0.179941 0 8 -6 
7817 6 0.647469 0.968237 0.155591 -5 -1 1 
6772 6 0.241811 0.980775 0.197158 -4 0 -1 
5926 6 0.383911 0.984881 0.17842 -3 0 0 
7645 6 0.992906 0.0558108 0.194239 -2 -1 2 
7359 6 0.868319 -0.00106149 0.225048 1 3 -2 
8067 5 0.945802 0.997366 0.187513 2 -1 -2 
5948 6 0.0296845 0.018097 0.160911 2 5 -3 
7066 6 0.607164 0.0808836 0.191063 1 0 -2 
5238 5 0.727023 0.0104076 0.240762 0 3 -5 
5738 6 0.282474 0.0973556 0.192909 4 -2 1 
8183 5 0.711859 0.116579 0.150894 -2 1 1 
6915 6 0.700237 0.139161 0.199709 -1 1 5 
6446 6 0.89364 0.121804 0.22007 3 2 -3 
5808 6 0.755572 0.135688 0.192472 1 3 -4 
5609 5 0.031336 0.197559 0.20435 5 4 -4 
8817 5 0.307964 0.188969 0.200422 1 3 -2 
7680 5 0.75273 0.249285 0.169015 0 -2 3 
8558 5 0.127059 0.250955 0.214982 4 1 -1 
6093 6 0.3205 0.275931 0.186167 -1 3 1 
8566 6 0.4807 0.263624 0.167269 1 1 -4 
7575 6 0.591647 0.265367 0.186599 0 1 -2 
5620 5 0.815289 0.208079 0.219199 0 2 0 
5790 6 0.799555 0.384733 0.194424 2 -1 0 
8039 5 0.767481 0.401699 0.164591 -2 3 -3 
6079 6 0.460431 0.349396 0.210017 2 1 -3 
8556 5 0.302855 0.414602 0.200248 -7 1 1 
8835 6 0.466987 0.45484 0.202219 -2 1 -2 
8783 6 0.689148 0.445171 0.216735 -2 -3 0 
5143 6 0.12846 0.498531 0.165892 2 1 2 
5953 5 0.430823 0.501052 0.22109 -3 5 -2 
5119 6 0.519528 0.48584 0.158936 2 3 3 
7278 6 0.506258 0.49038 0.218423 -5 0 0 
7317 5 0.459839 0.519765 0.176982 -5 2 -5 
6239 5 0.0460141 0.507287 0.203468 1 3 -2 
5476 6 0.644039 0.542883 0.193606 0 3 -1 
8459 6 0.687891 0.558107 0.188212 3 1 -2 
6359 6 0.0328546 0.590783 0.196439 -2 -7 4 
6708 6 0.33035 0.591065 0.167447 -2 1 -4 
7217 5 0.660067 0.567026 0.172003 -2 -1 0 
7926 5 0.959726 0.607967 0.195202 -1 -5 1 
7254 6 0.961227 0.54776 0.197676 -3 -2 6 