ITEM: TIMESTEP
20000000
ITEM: NUMBER OF ATOMS
9000
ITEM: BOX BOUNDS pp pp pp
-75 75
-75 75
-75 75
ITEM: ATOMS id type xs ys zs ix iy iz 
5562 6 0.132496 0.0128595 0.043572 3 -3 5 
5501 6 0.306353 0.0552361 0.0191111 -1 0 -6 
7773 5 0.363696 0.971621 0.00664394 0 2 -3 
8936 6 0.503797 0.049173 0.0083683 0 0 2 
5925 6 0.542786 0.0197364 0.0177916 -2 -1 0 
7221 6 0.68474 0.0215648 0.00112842 5 0 5 
8389 5 0.948904 0.0290633 -0.000256826 3 3 7 
6577 5 0.00969493 0.0591644 0.983612 -4 2 2 
8400 6 0.436856 0.0873503 0.969867 0 -1 1 
8378 5 0.580448 0.0408286 0.973998 0 3 -4 
5682 6 0.847157 0.0519052 0.970446 -1 -4 1 
5228 5 0.361056 0.110314 0.996217 3 1 4 
7129 6 0.554366 0.0875203 0.0178072 4 0 2 
8397 6 0.351415 0.101405 0.041649 0 -4 0 
8873 5 0.472716 0.141292 0.024061 -1 0 8 
7164 6 0.60942 0.172099 0.014426 -1 -2 3 
6358 6 0.789511 0.176641 0.040032 0 2 -3 
7908 6 0.90955 0.128222 0.0098782 -3 6 -1 
5645 5 0.959258 0.155045 0.968513 1 -4 4 
7008 5 0.0388371 0.157756 0.0338739 -4 1 3 
8210 5 0.672684 0.168318 0.00797563 -5 -5 1 
7474 6 0.719411 0.177596 0.0171244 4 2 -2 
6797 6 0.932047 0.195477 0.000494728 3 4 5 
7172 6 0.538699 0.176034 0.973514 5 7 0 
5439 5 0.114364 0.189639 0.99082 5 -1 0 
5774 6 0.38976 0.210267 0.997763 1 0 -7 
7309 5 0.70422 0.266297 0.999384 0 -1 -4 
8337 6 0.708527 0.233851 0.0322175 -2 4 1 
7438 6 0.173256 0.271515 0.0302409 1 1 0 
6208 6 0.22923 0.251947 0.0254694 -1 -2 1 
6464 5 0.365235 0.281064 0.0271656 5 -2 -2 
5982 5 0.544153 0.254969 0.0149438 2 4 -2 
7049 5 0.66243 0.289483 0.991784 7 -2 -1 
5869 5 0.860475 0.278602 0.0467038 2 3 -1 
5826 5 0.653482 0.29624 0.989793 -6 1 5 
5695 5 0.408476 0.301511 0.985037 4 3 3 
5877 5 0.417289 0.304825 0.025738 -2 0 0 
6912 6 0.614514 0.291619 0.0378195 -3 4 8 
6030 6 0.24625 0.34746 0.0319022 0 -2 1 
7153 5 0.0471391 0.341922 0.987967 1 -2 2 
5658 6 0.279268 0.369638 0.997427 2 -3 3 
6025 6 0.777902 0.328102 0.00491512 -1 -2 -2 
8014 6 0.659822 0.391897 0.00557102 8 -4 2 
7812 6 0.568762 0.455302 0.977515 -5 -4 -1 
5622 6 0.647837 0.364675 0.973227 6 1 1 
6135 5 0.904187 0.411865 0.0318427 -1 -4 -2 
8444 5 0.335617 0.476699 0.0233709 -1 2 -1 
7834 6 0.444798 0.456715 0.988025 0 1 0 
6862 6 0.813168 0.440139 -0.00133937 -2 -3 1 
6830 5 0.410178 0.482214 0.979423 -6 7 3 
8035 6 0.593922 0.462914 0.0220749 2 -1 1 
5844 5 0.705508 0.481422 0.0277691 1 0 -2 
5479 5 0.766773 0.486411 0.026884 0 -4 0 
7818 5 0.714178 0.546848 0.0360823 -3 -4 6 
5454 6 0.104202 0.53744 0.99456 3 2 -4 
6364 6 0.0946969 0.571277 0.00967117 -4 2 -3 
7388 5 0.396956 0.580405 0.0513105 0 -1 1 
7713 5 0.149445 0.598479 0.977965 -1 -3 -3 
5720 6 0.172404 0.641352 0.0383098 3 1 1 
6865 5 0.513762 0.633489 0.992773 -8 4 1 
5316 5 0.741242 0.644876 0.0273008 -3 3 3 
6300 5 0.982568 0.652381 0.0196833 0 2 0 
8469 6 0.128021 0.70215 0.0090245 4 1 -1 
5290 6 0.575942 0.687056 0.0218252 -3 0 2 
7718 5 0.606319 0.648655 0.968153 3 -3 1 
7266 6 0.147425 0.686254 0.0129377 2 0 -2 
5711 5 0.81492 0.706579 0.0150654 2 3 -2 
8324 5 0.94616 0.742883 0.987605 -1 -2 2 
5804 6 0.199561 0.73006 0.990001 1 -4 1 
7778 6 0.359197 0.728232 0.996035 -2 -2 3 
8390 5 0.461225 0.726646 0.0472743 2 0 0 
6843 5 0.76455 0.70911 0.0128149 -1 -3 0 
6740 6 0.922032 0.752552 0.98898 1 0 6 
5919 5 0.920008 0.819427 0.027647 -6 1 0 
8479 5 0.0273466 0.824672 0.0025406 5 1 1 
5821 6 0.113137 0.811004 0.0203755 3 -3 -2 
6359 5 0.956788 0.833195 0.0160831 -2 2 2 
5042 5 0.232958 0.841904 0.982014 0 -2 -1 
8263 6 0.249129 0.843575 0.988528 0 -4 3 
7646 6 0.558737 0.874755 0.971872 -3 -1 3 
8777 6 0.80628 0.855407 0.0217088 -1 5 1 
7652 5 0.531534 0.856186 0.00405133 2 -2 -3 
7165 5 0.863217 0.848142 0.0280669 0 -3 -3 
6377 5 0.573765 0.893137 0.0155479 2 0 -1 
6979 6 0.934285 0.876407 0.999159 2 1 -3 
5816 5 0.340236 0.942018 0.994669 4 2 -1 
5743 6 0.371521 0.935 0.985362 3 1 -2 
5819 5 0.432244 0.99089 0.0228978 4 -1 0 
5650 5 0.664972 0.978653 0.0328692 -3 3 1 
8580 5 0.49892 0.00492371 0.00775229 2 0 0 
6228 6 0.847562 0.992327 0.00253332 -2 0 -2 
7034 6 0.893831 0.0157931 0.0452111 7 -2 0 
8738 6 0.540878 0.0315123 0.0750278 1 -1 1 
8149 6 0.0735886 0.0542655 0.0432922 -1 2 1 
5979 6 0.835385 0.0587754 0.043197 -5 -2 4 
7833 5 0.780963 0.0527509 0.0646162 -1 0 1 
8121 5 0.956039 0.0659948 0.0331768 -2 -3 -1 
5044 6 0.342093 0.02814 0.0731369 0 3 1 
5078 6 0.188603 0.0985644 0.0270082 0 2 -4 
8857 6 0.701552 0.0937262 0.0549071 3 3 8 
6399 6 0.726302 0.0914879 0.0199378 2 3 -4 
7152 5 0.921511 0.0957271 0.037278 -1 -2 1 
7270 6 0.690788 0.139385 0.998407 -5 3 3 
8682 6 0.411214 0.126321 0.0257845 5 0 7 
6414 5 0.47812 0.157997 0.0325399 2 3 -1 
5814 5 0.753751 0.15073 0.0249516 4 2 -3 
7197 5 0.779925 0.184955 0.0595481 -2 3 -4 
8052 6 0.856917 0.188526 0.0654458 2 -4 -1 
6197 6 0.0777094 0.180066 0.0552626 -5 0 -4 
8364 6 0.200338 0.182217 0.0125221 1 2 1 
6739 5 0.329261 0.171456 0.024486 2 -2 0 
8417 5 0.35532 0.174806 0.06294 1 -2 1 
5300 6 0.706758 0.158519 0.0279115 1 -3 -1 
6128 5 0.0706802 0.231014 0.0299163 1 -5 1 
7332 6 0.377316 0.222867 0.0458096 2 6 3 
5428 5 0.279847 0.265416 0.0404609 4 -4 0 
8782 5 0.0208394 0.232033 0.0251137 4 1 -1 
7260 5 0.699174 0.256546 0.998662 4 -3 -2 
8687 5 0.903779 0.239539 0.0324712 -6 5 2 
8712 5 0.413839 0.306918 0.0637184 -9 0 2 
6038 5 0.712718 0.272241 0.0515024 4 -2 3 
8437 5 0.44519 0.299222 0.0188476 -1 5 -2 
7106 6 0.836633 0.317567 0.0287628 2 -1 -1 
6244 5 0.0206989 0.326075 0.033053 -3 3 4 
6437 5 0.326116 0.351774 0.0183608 -2 0 4 
8512 6 0.558531 0.29292 0.0349065 -1 -3 3 
5893 6 0.0279612 0.353513 0.0689125 3 -2 0 
8032 6 0.718388 0.37602 0.0471957 0 6 2 
6766 6 0.823331 0.3513 0.997015 -3 1 0 
8140 5 0.252313 0.36822 0.0718268 1 -2 3 
7587 6 0.34301 0.392906 0.00949386 5 0 5 
6231 6 0.918554 0.332979 0.00213138 2 1 3 
7820 5 0.959834 0.35324 0.0529824 2 4 0 
8803 5 0.0941964 0.385821 0.0686402 7 2 -2 
7211 6 0.669989 0.399685 0.0565901 3 -6 -3 
6330 5 0.787346 0.388997 0.0187345 0 -1 -3 
8882 6 0.164716 0.402003 0.0570983 5 -2 5 
6816 5 0.236764 0.478097 0.0624403 1 2 -1 
8821 6 0.689639 0.458874 0.0324003 0 -4 1 
5496 5 0.789821 0.510022 0.0288665 0 2 0 
7949 6 0.0330097 0.495012 0.030911 -2 0 -3 
6777 6 0.703214 0.445394 0.0068827 4 -1 -2 
7370 5 0.452451 0.496739 0.0215883 4 -2 -1 
6514 6 0.491763 0.541732 0.0130898 -1 0 7 
8703 6 0.971449 0.537029 0.0276738 0 -3 6 
6297 5 0.938401 0.537721 0.0284946 -4 4 1 
7930 5 0.424559 0.556613 0.994748 -1 -1 -5 
8573 6 0.748602 0.523137 0.0726451 3 -1 2 
6039 6 0.632795 0.575541 0.012589 -2 -4 1 
6289 5 0.994084 0.572598 0.00453862 -1 -2 -2 
8186 6 0.0229816 0.58708 0.0309542 1 6 -1 
5898 5 0.173127 0.561626 0.0469195 -1 -1 1 
8732 6 0.246166 0.579727 0.0383204 1 -6 3 
6849 6 0.605489 0.604563 0.0399839 0 4 2 
6335 5 0.808386 0.634841 0.0261668 1 2 1 
7988 6 0.299917 0.736259 0.0531909 1 -5 2 
7336 5 0.554976 0.677893 0.0208055 0 -3 2 
6144 6 0.757408 0.67402 0.0169591 1 2 0 
7589 6 0.975641 0.693154 0.0594629 0 1 -6 
8195 6 0.364509 0.711441 0.0302523 -6 1 -6 
5412 5 0.812005 0.667001 0.0170168 1 3 0 
7667 5 0.10445 0.688276 0.0255253 0 -4 2 
7484 6 0.657767 0.690652 0.0162843 -2 0 -1 
5836 6 0.075429 0.767956 0.0396379 0 -4 -7 
8766 5 0.816523 0.744537 0.0322749 4 4 -1 
7572 5 0.0159282 0.800937 0.0382271 4 1 0 
8590 6 0.648866 0.774899 0.0443723 0 -4 6 
7405 6 0.957956 0.772296 0.0319481 -4 -2 0 
7596 6 0.592962 0.836409 0.0259588 -2 -2 0 
8823 5 0.749496 0.810172 0.0281075 1 -1 6 
6729 5 0.0110249 0.841728 0.0635156 0 -1 5 
5320 5 0.758241 0.825814 0.0274912 4 -2 -3 
7335 5 0.50426 0.87456 0.0328242 0 1 -1 
8632 6 0.604431 0.805746 0.0316007 0 -1 4 
6752 6 0.969624 0.82471 0.0405305 -3 4 7 
8219 5 0.167741 0.917631 0.0202069 8 0 -4 
6340 6 0.687889 0.894794 0.0386548 1 -3 0 
7435 6 0.755027 0.883235 0.00436289 1 2 0 
8969 5 0.943547 0.920629 0.0271423 1 4 4 
6031 5 0.0850972 0.975598 0.0180304 -4 1 3 
6920 5 0.291585 0.967458 0.994539 1 3 -2 
5702 5 0.428302 0.992201 0.0325498 -2 2 -2 
7208 6 0.47496 0.960665 0.06529 -3 -1 -6 
7653 5 0.720129 0.978374 0.0203226 1 4 5 
5701 6 0.884805 0.96913 0.00970469 3 1 2 
8892 5 0.2364 0.92839 0.0200493 2 -3 1 
5517 6 0.27033 0.984601 0.0448035 1 -9 3 
8748 6 0.709868 0.980138 0.0251937 -4 -1 -1 
6127 6 0.232165 0.0304223 0.081328 0 3 0 
8547 6 0.382805 0.0778317 0.0510928 -1 -1 -3 
7455 5 0.484771 0.113618 0.0489577 -2 2 0 
6587 5 0.596889 0.0901178 0.0304109 4 -3 4 
5815 6 0.069176 0.0657298 0.0535957 3 1 -4 
6501 6 0.981901 0.0825929 0.0415538 5 0 4 
7011 6 0.628035 0.11966 0.0607811 -5 3 5 
6274 6 0.998095 0.124293 0.0732142 -2 0 5 
6616 6 0.284427 0.137999 0.0291534 -1 -4 -2 
8770 5 0.427354 0.134835 0.0873241 4 2 -2 
8781 6 0.142687 0.190165 0.0810573 -4 -2 0 
5443 6 0.140917 0.199754 0.0742882 -3 -2 2 
8403 5 0.655177 0.14436 0.0300306 -3 3 1 
6917 6 0.383835 0.188191 0.0610095 2 1 2 
8294 6 0.30723 0.281505 0.1063 -6 2 -4 
5578 6 0.107531 0.231433 0.0697736 3 3 3 
6040 6 0.818144 0.274449 0.116352 -1 -1 2 
5257 5 0.321053 0.266802 0.031302 2 -1 4 
6873 6 0.889732 0.321651 0.0502082 -1 -1 1 
7340 6 0.353032 0.296208 0.0884597 -5 2 -2 
8360 5 0.78023 0.332663 0.0880978 1 -3 3 
7306 6 0.0672827 0.376659 0.0452266 2 -2 1 
5725 6 0.13851 0.370241 0.0446466 6 4 2 
8080 5 0.242399 0.405234 0.0305577 -10 -4 2 
6969 5 0.807245 0.413305 0.075651 2 2 1 
6646 5 0.862613 0.426218 0.0694885 -1 3 -2 
7250 5 0.872995 0.393178 0.0468969 4 -1 7 
5536 6 0.0270421 0.39716 0.0913163 -2 -1 0 
8756 6 0.0936654 0.483419 0.0908628 4 -2 1 
5429 6 0.188735 0.470957 0.0544838 4 -4 0 
6167 6 0.200162 0.432895 0.0310397 1 2 0 
6047 5 0.969478 0.439974 0.0484422 -1 -2 1 
6226 5 0.149545 0.459129 0.0654098 -1 0 -3 
6250 6 0.455752 0.486879 0.0669767 -3 -3 7 
6794 5 0.856856 0.416027 0.0872527 1 1 -3 
8759 5 0.247656 0.482254 0.0782207 0 1 -1 
6482 5 0.643767 0.484812 0.0877625 -1 0 -2 
5707 6 0.191671 0.509075 0.058873 3 0 3 
8588 5 0.584571 0.536924 0.0525803 3 1 2 
5563 6 0.442277 0.553871 0.0676109 2 0 1 
6751 6 0.440108 0.586414 0.0349929 0 4 2 
7769 6 0.847072 0.55407 0.0528173 -1 2 -2 
7195 5 0.381906 0.63183 0.0573602 0 -3 1 
7811 5 0.230896 0.610453 0.0656435 -3 -4 -1 
5555 5 0.357528 0.612664 0.0879634 2 -5 -2 
6276 5 0.627767 0.601654 0.0586056 -2 3 4 
8092 6 0.997243 0.64029 0.0870172 6 0 5 
6725 5 0.123603 0.670991 0.0604594 2 2 -1 
7395 5 0.469311 0.669268 0.0522804 -1 -2 -1 
7913 5 0.980603 0.664313 0.0816158 0 -1 0 
6005 5 0.676253 0.688795 0.0319711 5 -2 -2 
8187 6 0.336725 0.714217 0.0917969 2 -4 -7 
5406 5 0.883063 0.708537 0.0574978 -1 2 -2 
8832 6 0.30326 0.730752 0.103945 -2 -1 1 
6391 6 0.383671 0.782549 0.0285733 -1 0 2 
6009 6 0.935832 0.732221 0.0633695 -1 -3 1 
8237 6 0.172071 0.765208 0.0527537 -2 -1 2 
6762 5 0.852408 0.729426 0.0393543 1 0 0 
8549 6 0.492704 0.790444 0.0831759 4 -1 1 
5303 5 0.79202 0.818278 0.0881154 3 -1 2 
6833 5 0.897498 0.777683 0.0585568 -6 -3 -2 
8238 6 0.101967 0.784872 0.0820755 0 -4 5 
5914 6 0.327626 0.811024 0.103247 -1 -6 6 
7166 6 0.654238 0.81489 0.060393 -2 -5 -4 
5334 6 0.733769 0.830522 0.0850102 -2 1 -1 
7181 6 0.885272 0.832939 0.0407641 -2 2 0 
7919 5 0.60938 0.876647 0.0356727 1 6 -1 
7707 5 0.577327 0.894777 0.0712548 -1 -2 3 
5813 5 0.630096 0.896936 0.0646939 3 -1 5 
6645 5 0.0531153 0.917434 0.026235 2 -2 -2 
8779 5 0.210302 0.903789 0.0646852 -2 -1 -1 
5269 6 0.371182 0.96852 0.0485036 -1 3 7 
6910 5 0.852826 0.896346 0.0554895 -2 4 0 
7328 6 0.153105 0.912269 0.0674506 -4 -3 0 
5161 5 0.381077 0.937594 0.0691455 1 -2 3 
8214 6 0.918212 0.980921 0.0917983 -2 4 -1 
5299 6 0.910525 0.96827 0.074684 0 -2 6 
8647 5 0.586567 0.999393 0.0671236 1 -3 -2 
6992 6 0.67129 0.961141 0.0411492 -5 0 5 
7282 6 0.1476 0.0270078 0.0449283 3 2 2 
7528 6 0.263855 0.981292 0.0952944 -4 -5 2 
6983 6 0.504128 0.973527 0.0729055 1 -1 1 
6384 6 0.0953334 0.05171 0.0777485 0 5 -2 
8801 5 0.426635 0.0489492 0.110211 1 -2 -5 
7687 6 0.619731 0.0460447 0.0813586 -5 -2 -4 
8308 5 0.195098 0.0849826 0.081372 2 3 -2 
6887 6 0.210523 0.0369737 0.0927722 -3 4 1 
7839 5 0.74012 0.0480443 0.0567833 2 0 2 
8907 5 0.143008 0.132061 0.0825928 2 2 1 
7399 6 0.204275 0.0947032 0.0914152 -1 0 8 
8815 5 0.600547 0.0976423 0.107423 3 3 -4 
8853 6 0.642857 0.13078 0.0489799 -3 2 2 
6353 6 0.692527 0.153368 0.0228989 -3 -3 3 
8208 6 0.589187 0.213637 0.0567371 -1 1 -2 
5731 6 0.101809 0.209957 0.0922374 2 0 0 
7016 5 0.321269 0.212732 0.0964218 1 0 4 
6277 6 0.543395 0.170841 0.0928671 0 0 2 
7338 6 0.920702 0.191811 0.0611899 -3 2 -3 
7742 6 0.206016 0.248644 0.0513766 -3 0 -7 
7163 6 0.359415 0.246605 0.0838631 3 -2 1 
6704 6 0.0503427 0.222075 0.0782523 -4 1 -1 
6688 5 0.862951 0.2525 0.103342 -6 -3 3 
8924 5 0.809044 0.3018 0.125589 -4 0 1 
6553 5 0.442881 0.320799 0.0931989 -2 -2 0 
7135 6 0.759429 0.311716 0.0927526 -1 0 2 
5966 5 0.393081 0.297224 0.0715612 -2 3 -3 
8424 5 0.88882 0.328427 0.0650988 1 -1 2 
6533 6 0.0910621 0.351247 0.0625937 -3 0 -1 
8721 5 0.430548 0.359477 0.0759035 -3 -2 -4 
5803 5 0.844896 0.336061 0.0757637 3 4 -4 
8344 6 0.383811 0.359693 0.0849724 8 -1 4 
6814 5 0.808595 0.366364 0.0525148 -5 7 3 
6934 6 0.779652 0.413849 0.0860223 2 2 1 
8718 5 0.23554 0.435025 0.0815811 -3 1 3 
7530 6 0.655087 0.466199 0.0885949 1 3 3 
5364 5 0.784481 0.436105 0.089931 0 0 4 
6972 5 0.860682 0.429217 0.108627 6 -1 -2 
7510 6 0.32269 0.474026 0.0565535 -2 3 2 
6711 5 0.151458 0.470758 0.0780843 1 -5 1 
8972 6 0.670074 0.474785 0.0639299 1 1 -1 
5293 5 0.434943 0.435323 0.0357001 4 2 4 
7581 5 0.0296125 0.519957 0.100983 5 -3 0 
8669 6 0.170875 0.503554 0.0549481 -2 4 2 
6278 5 0.789602 0.526939 0.0967843 4 6 0 
7935 6 0.906558 0.516262 0.0997456 4 3 -1 
7305 6 0.171202 0.533164 0.0807166 -1 -8 -3 
6154 5 0.272011 0.54394 0.0519768 2 -1 -2 
5270 6 0.337077 0.516939 0.0315123 -1 2 -2 
6311 6 0.931778 0.512284 0.0829242 2 2 3 
5961 6 0.955473 0.539929 0.0520216 6 3 2 
5841 6 0.043235 0.562896 0.0918667 1 2 1 
7285 6 0.0797633 0.56197 0.0983815 0 0 -3 
7721 6 0.735772 0.607364 0.0571631 -2 -1 -1 
6685 5 0.070097 0.587955 0.0568119 2 -1 3 
6475 6 0.175678 0.580082 0.99766 1 -3 2 
8174 6 0.378504 0.598351 0.0834423 2 4 4 
7557 6 0.707883 0.556916 0.0751471 3 2 2 
5864 5 0.0661173 0.613326 0.114772 2 -3 -1 
7005 6 0.0709508 0.642243 0.0720049 -5 1 5 
5998 5 0.0643208 0.603638 0.0929972 -1 -3 -1 
5423 6 0.820683 0.673652 0.115242 -1 -3 -3 
7280 6 0.829016 0.669474 0.0896709 0 3 -1 
6497 5 0.225733 0.652572 0.0956247 3 -2 -2 
7431 5 0.243305 0.661179 0.0745675 5 2 0 
6869 6 0.27633 0.638567 0.116592 1 -4 1 
5599 6 0.390099 0.686281 0.0705997 3 2 0 
7055 5 0.690047 0.674484 0.128392 -3 -2 2 
7487 6 0.206613 0.692783 0.0797527 1 0 -2 
8259 5 0.572789 0.679918 0.0746793 0 0 2 
8423 5 0.381105 0.705032 0.0582388 3 -4 -3 
6779 6 0.0713534 0.734572 0.102961 0 3 -2 
8891 6 0.508951 0.767562 0.0617004 0 4 0 
8618 5 0.851084 0.731147 0.0712266 4 3 3 
7095 6 0.440836 0.766516 0.0871497 -4 -1 2 
5213 6 0.1718 0.803872 0.0586412 -2 -2 1 
8315 5 0.448367 0.810974 0.0544067 -2 -2 1 
5829 6 0.496959 0.810392 0.065709 -3 0 4 
6738 6 0.647421 0.837003 0.0936233 0 -4 -3 
5358 6 0.334618 0.84506 0.0846758 0 0 2 
7695 5 0.473412 0.857357 0.095421 -5 1 3 
7683 5 0.644385 0.829983 0.104997 -1 3 6 
8523 5 0.785344 0.825111 0.0694363 -1 -3 0 
7072 6 0.788236 0.852453 0.0898577 -2 -1 0 
8281 6 0.396496 0.920627 0.109721 -4 -1 2 
6020 5 0.119686 0.901194 0.0837599 5 -1 -2 
5569 6 0.0781429 0.895477 0.0596226 1 2 -2 
6667 6 0.501365 0.957718 0.039571 -1 -1 3 
8274 6 0.741054 0.954163 0.0925419 3 -4 -2 
8258 6 0.990492 0.936914 0.091482 1 -3 3 
8673 5 0.228004 0.941443 0.0924639 2 0 1 
5863 6 0.209386 0.966962 0.084429 1 0 5 
5350 6 0.871759 0.929045 0.0650583 3 1 0 
7508 6 0.866482 0.917813 0.104016 1 -1 -3 
8507 6 0.403292 0.998017 0.0709873 -4 1 -4 
6017 5 0.761852 1.00017 0.067678 2 2 -2 
6493 6 0.654051 0.974311 0.126117 1 1 3 
8773 6 0.783179 0.966758 0.0864259 -2 2 0 
8486 6 0.244925 0.00917355 0.0701445 -4 1 0 
8024 6 0.325942 0.0352133 0.110305 5 1 -6 
6727 5 0.33901 0.0550508 0.0791521 1 2 3 
5430 5 0.761112 0.0551827 0.10522 -1 -1 -2 
8651 5 0.39476 0.053408 0.104851 0 -5 2 
7326 5 0.62777 0.103695 0.0713933 -6 2 0 
7222 6 0.598129 0.0949165 0.143798 5 -1 2 
8758 5 0.663809 0.101624 0.0917781 -4 1 9 
8640 5 0.783316 0.0914553 0.117624 3 -1 -1 
6168 5 0.333723 0.110434 0.124208 2 0 -1 
6569 6 0.154419 0.14159 0.116991 -4 -3 1 
8904 5 0.510239 0.148301 0.0925899 -4 -3 -3 
6579 6 0.502422 0.132853 0.0620424 -1 -2 2 
5992 5 0.709297 0.113895 0.133848 2 -6 -2 
5770 5 0.275504 0.152894 0.0890593 3 -3 1 
6192 5 0.0829914 0.218889 0.11566 -7 2 -2 
6460 5 0.966089 0.176252 0.133226 -4 6 -3 
6895 5 0.0472291 0.20842 0.11237 3 2 0 
7882 6 0.31246 0.219652 0.0947109 -2 3 -2 
6852 5 0.626887 0.230581 0.124851 2 7 -4 
8961 6 0.73818 0.181042 0.15647 -3 -3 3 
5571 6 0.590455 0.245763 0.107506 -4 3 -2 
8688 6 0.34629 0.308891 0.118387 -1 -2 -1 
5240 6 0.803071 0.284268 0.0755349 5 0 5 
8004 5 0.158104 0.314588 0.133024 4 -3 2 
8764 6 0.107698 0.364967 0.100261 0 -1 -3 
6083 6 0.520842 0.363363 0.0885807 0 -1 -3 
7779 5 0.00498622 0.4357 0.08848 0 -4 1 
8126 6 0.266636 0.390966 0.0669508 -2 1 3 
5413 5 0.557575 0.436523 0.127831 1 5 1 
7353 6 0.918222 0.415519 0.13813 -2 -2 0 
8531 5 0.0262095 0.435654 0.080107 1 -2 4 
5543 6 0.0457478 0.497304 0.113767 -1 5 3 
8200 6 0.159961 0.455869 0.109415 2 -2 0 
8679 6 0.377167 0.558175 0.103398 -1 -4 -10 
6825 5 0.491983 0.531933 0.0900154 1 -4 -4 
8494 5 0.543162 0.486039 0.133752 -3 0 0 
7183 5 0.92253 0.496352 0.122416 0 -2 0 
8398 5 0.946993 0.555527 0.0668393 2 -2 0 
6314 5 0.197767 0.585922 0.133548 3 4 -2 
6529 5 0.337445 0.555998 0.142238 0 -5 -2 
8405 5 0.679541 0.560002 0.112094 3 -2 0 
5354 6 0.240784 0.54571 0.119924 -3 -3 -6 
8520 6 0.643859 0.594224 0.154701 6 0 5 
5764 6 0.808557 0.598245 0.111831 0 1 1 
6771 5 0.140344 0.630351 0.110439 1 -3 0 
6069 5 0.982593 0.69127 0.0915087 3 -3 -1 
7198 5 0.0631377 0.707193 0.111333 0 3 -4 
5699 6 0.248507 0.732498 0.0955182 4 5 4 
7445 6 0.778527 0.693376 0.0749549 2 1 0 
7083 5 0.102188 0.718283 0.0906315 -3 -4 -1 
7420 5 0.280524 0.772357 0.100573 -3 -2 -8 
5793 5 0.593245 0.745255 0.128148 -1 -3 6 
7154 5 0.672531 0.73712 0.101091 -1 4 -3 
5115 5 0.835148 0.749403 0.154234 2 4 -3 
7619 6 0.675937 0.772248 0.140082 -5 -1 0 
5031 5 0.223597 0.855602 0.117802 1 1 1 
8234 5 0.433847 0.807993 0.0616302 4 0 4 
7324 5 0.880517 0.813002 0.124889 1 2 -2 
5675 6 0.364554 0.850174 0.0851234 0 -4 2 
6334 6 0.584358 0.84684 0.12804 0 -1 4 
7295 5 0.886935 0.838661 0.0991585 3 -3 -2 
7694 6 0.139177 0.876903 0.0838165 3 4 2 
6787 5 0.613374 0.809852 0.135642 -6 4 -1 
7616 6 0.90036 0.857714 0.12753 -2 -2 -1 
5859 5 0.916123 0.844955 0.101364 -1 1 1 
8509 6 0.524303 0.875281 0.146459 1 2 3 
6375 6 0.597917 0.897068 0.0526349 2 1 -1 
6361 6 0.321838 0.891753 0.113792 1 -1 -1 
5371 5 0.433014 0.921274 0.0759588 0 2 1 
5146 6 0.940363 0.914182 0.10844 0 0 -2 
7094 6 0.455347 0.949921 0.0723707 -1 -2 0 
6633 6 0.450368 0.935678 0.131855 -1 0 -2 
8597 6 0.844327 0.915567 0.147126 1 2 3 
5722 6 0.957082 0.94185 0.13141 2 0 -2 
8824 5 0.0768574 0.974698 0.088893 10 2 2 
8980 6 0.812924 0.0275439 0.10853 -2 0 3 
6848 5 0.369606 0.00480992 0.0595383 3 0 -2 
5063 5 0.373215 0.997067 0.137509 -2 -2 -4 
7193 5 0.51551 0.0126632 0.138652 -1 0 -1 
5830 6 0.52918 0.000384514 0.128389 6 4 -1 
8120 6 0.814623 0.996154 0.0969444 -1 -2 0 
5632 5 0.305841 0.0321963 0.147725 4 -4 5 
6184 5 0.554727 0.022387 0.152104 2 1 5 
7802 6 0.0736048 0.0953459 0.135484 0 0 0 
7308 5 0.776939 0.0828277 0.131586 -2 1 -3 
5515 6 0.313163 0.0716148 0.125625 -1 4 3 
5387 5 0.996978 0.122626 0.101772 0 -1 -2 
6988 5 0.336445 0.150577 0.100389 3 4 0 
7265 6 0.98773 0.130931 0.12907 6 -2 0 
8995 6 0.145259 0.208992 0.125763 -2 3 2 
7339 6 0.761158 0.215655 0.112524 3 -2 4 
6571 5 0.428976 0.181989 0.140784 2 0 -1 
5292 5 0.85167 0.180491 0.122005 1 2 1 
8880 6 0.228279 0.243688 0.137284 -1 -1 -1 
5547 6 0.509853 0.212546 0.099961 -1 3 7 
7465 6 0.916338 0.208232 0.106357 -2 2 -3 
7381 6 0.290837 0.260406 0.0955347 0 3 -4 
5068 6 0.401493 0.248784 0.104772 -3 3 0 
8630 6 0.0168254 0.33552 0.146802 3 -2 0 
8754 5 0.0307033 0.331444 0.146249 4 -2 2 
7817 5 0.751856 0.30586 0.0914618 -1 2 3 
8456 6 0.225808 0.331761 0.145743 -3 -2 -3 
8203 6 0.241814 0.368686 0.148526 1 0 3 
5100 5 0.413752 0.325396 0.111281 2 0 0 
6627 5 0.59987 0.317811 0.148389 -4 -8 -1 
8130 6 0.778868 0.341435 0.120513 2 3 5 
5681 6 0.383849 0.325285 0.113 -1 -2 1 
8757 5 0.398604 0.357507 0.12628 -2 -2 3 
6336 6 0.960308 0.360773 0.0805114 1 2 0 
6227 5 0.194868 0.388898 0.139646 -3 3 -2 
8488 6 0.294491 0.372978 0.109386 0 4 -2 
7556 5 0.621907 0.390128 0.129082 -1 -4 2 
7937 5 0.734366 0.372279 0.12081 3 1 5 
5258 5 0.405954 0.429924 0.0885813 -3 0 -2 
5390 6 0.350214 0.416382 0.126841 -4 0 1 
7073 5 0.563185 0.40592 0.133346 -4 1 1 
5780 5 0.995766 0.357056 0.117145 0 3 -1 
8205 6 0.524161 0.441464 0.122017 -2 2 5 
6486 5 0.691191 0.428916 0.11572 2 5 0 
6560 6 0.961882 0.435929 0.131438 -2 0 2 
6164 5 0.369058 0.449134 0.130493 -3 4 -1 
7093 5 0.346482 0.496064 0.124733 4 -1 -3 
8026 6 0.611849 0.469698 0.107854 2 2 -1 
6737 5 0.766968 0.4952 0.138544 4 0 4 
6261 6 0.975304 0.4705 0.137874 0 1 5 
6201 6 0.769526 0.481065 0.110796 -2 1 7 
5936 6 0.755275 0.526902 0.113951 1 -4 2 
5903 5 0.722013 0.583888 0.166414 0 -2 -4 
6332 6 0.145088 0.570518 0.137305 3 2 -6 
6421 6 0.1731 0.611203 0.139053 0 -6 -3 
6516 5 0.202751 0.639191 0.14903 7 -2 0 
8458 5 0.482039 0.62386 0.123735 0 1 -1 
6390 5 0.223028 0.632453 0.100083 -2 1 -4 
5862 5 0.382469 0.658718 0.116239 -1 -2 3 
5520 5 0.72605 0.635416 0.141673 0 -1 1 
7595 5 0.987276 0.672408 0.126347 0 2 0 
6443 6 0.073368 0.67545 0.0735127 0 -5 2 
6096 6 0.776213 0.75092 0.137987 -1 -2 2 
6679 6 0.0204504 0.683496 0.0926474 6 0 -3 
6914 6 0.835298 0.739111 0.101832 0 -1 3 
7457 5 0.422783 0.762402 0.118212 -2 -5 6 
6449 5 0.625315 0.760143 0.140816 4 0 -3 
5029 6 0.799358 0.720271 0.131417 1 0 6 
6043 5 0.233227 0.749266 0.141335 -1 -2 -1 
5801 5 0.796811 0.729077 0.123974 0 -6 1 
7540 5 0.866691 0.738497 0.173104 -1 -5 4 
8546 6 0.889197 0.798947 0.147825 -3 -2 -1 
7361 5 0.975156 0.751334 0.113252 0 1 2 
6051 5 0.490797 0.759473 0.10782 -2 0 7 
8152 6 0.320354 0.809265 0.137416 5 -4 -1 
6870 6 0.640578 0.794241 0.122376 1 -1 2 
6911 5 0.038933 0.858869 0.130635 0 -2 -1 
7444 6 0.436147 0.867673 0.0855889 0 5 3 
8835 5 0.870776 0.833796 0.103849 -1 -5 -1 
5913 6 0.106581 0.900421 0.0871127 1 3 3 
5771 6 0.482927 0.874703 0.135726 3 0 3 
5410 6 0.683926 0.908651 0.15457 1 -2 2 
6734 6 0.169414 0.943504 0.133321 0 -3 4 
6537 5 0.894746 0.927573 0.132116 -1 1 1 
8602 6 0.186585 0.9358 0.141734 2 4 5 
8154 5 0.403437 0.913613 0.107552 0 4 -1 
8722 6 0.536804 0.953908 0.104498 0 -2 2 
6767 5 0.623914 0.978877 0.127143 0 -2 4 
7180 6 0.296099 0.0057376 0.110577 -1 0 -1 
7654 6 0.503247 0.991092 0.126067 0 1 -6 
6049 5 0.67073 0.0387684 0.112596 1 0 -1 
6029 5 0.16212 0.00226196 0.157534 -3 -1 0 
7984 5 0.184648 0.999805 0.0895186 0 -2 1 
7961 5 0.335014 0.0329179 0.140367 1 3 2 
7730 5 0.773544 0.985551 0.135397 0 -2 2 
6071 6 0.837711 0.0351585 0.129706 3 -5 -4 
6919 5 0.0759865 0.0418366 0.124891 2 1 4 
8794 6 0.58727 0.0653329 0.13344 -3 -1 -4 
8099 5 0.762004 0.0526149 0.168836 2 1 -3 
8162 5 0.451734 0.0938941 0.12684 2 3 0 
6058 5 0.640493 0.103181 0.159125 -2 1 -4 
8055 5 0.564058 0.151824 0.132744 -6 -5 -1 
8634 6 0.911223 0.123105 0.128826 3 3 -2 
8345 6 0.992837 0.0636091 0.0871936 2 -2 3 
5212 5 0.454491 0.162162 0.150972 2 2 -1 
7468 5 0.687854 0.199979 0.137977 0 3 -1 
5432 5 0.810107 0.185635 0.196148 -1 -2 3 
5323 6 0.0943275 0.212977 0.100473 -1 4 2 
5874 6 0.58504 0.215686 0.158174 1 5 -7 
6523 6 0.611916 0.249014 0.133583 -8 -2 1 
8811 6 0.21635 0.193391 0.150088 3 0 -4 
8213 6 0.995245 0.24124 0.1708 -2 4 4 
5378 6 0.294809 0.250945 0.167696 2 3 -2 
8428 5 0.499278 0.257864 0.136513 0 3 1 
8810 5 0.979299 0.292963 0.112624 -3 1 0 
8954 6 0.189539 0.277957 0.162277 -1 -6 -4 
8550 5 0.604564 0.249967 0.127448 -4 3 1 
8491 5 0.44707 0.326723 0.158418 -3 -1 1 
8284 6 0.650734 0.318047 0.150586 -1 2 4 
5142 5 0.58559 0.335756 0.103675 -1 0 1 
5171 6 0.784021 0.353474 0.139169 -1 0 1 
5036 5 0.267934 0.344944 0.145614 4 0 5 
8599 6 0.0625392 0.38453 0.143767 4 -5 1 
6655 5 0.186021 0.40748 0.194666 4 3 -6 
8589 6 0.55411 0.417613 0.156026 0 -5 5 
7819 6 0.226013 0.401895 0.143699 4 0 1 
8848 5 0.449289 0.400454 0.125859 3 -3 4 
5481 5 0.513282 0.426088 0.177436 1 -1 -1 
6345 6 0.653569 0.422553 0.140407 -3 0 -2 
7170 6 0.745237 0.406286 0.133261 -3 3 0 
8312 6 0.802792 0.432195 0.142728 0 4 3 
6455 5 0.105034 0.43315 0.150103 1 0 1 
6021 6 0.684084 0.482382 0.14811 -3 1 6 
6966 6 0.702458 0.4608 0.164517 -1 3 -1 
8493 5 0.85912 0.447372 0.123412 -6 2 -1 
6386 6 0.658206 0.45206 0.154817 -2 0 -2 
6103 6 0.207602 0.51707 0.139408 -3 3 4 
5296 5 0.281217 0.535237 0.159353 3 3 -1 
5964 6 0.558222 0.447341 0.108622 1 1 5 
7927 6 0.00223006 0.5265 0.129457 2 -4 1 
8914 5 0.448508 0.51426 0.150256 -1 -5 -3 
8736 5 0.526589 0.550508 0.145029 3 -4 -3 
6468 5 0.893281 0.533989 0.133314 -3 -3 -2 
6408 5 0.963463 0.50406 0.174488 -2 1 -6 
8994 6 0.192793 0.552892 0.135181 0 2 -4 
8467 6 0.370562 0.552666 0.157993 -1 -2 -6 
7709 5 0.334683 0.55661 0.164693 -5 1 1 
6117 6 0.633925 0.526377 0.145446 6 -1 2 
5941 5 0.215776 0.541312 0.173371 2 -3 0 
5693 5 0.55747 0.553505 0.147592 6 3 -2 
6328 6 0.897723 0.547542 0.189012 -1 2 1 
5975 5 0.0923511 0.640155 0.12405 5 3 1 
8616 6 0.201878 0.536073 0.139092 0 -2 6 
5572 6 0.326353 0.618022 0.149246 4 3 3 
6826 5 0.0788979 0.643284 0.155795 -2 5 1 
7986 6 0.139819 0.643853 0.17587 1 0 4 
7628 6 0.534767 0.621882 0.148073 3 -1 6 
5548 5 0.622332 0.62719 0.203157 1 -3 -1 
5194 5 0.704853 0.708471 0.143927 6 1 -2 
5414 6 0.269914 0.68878 0.125805 5 -6 2 
7110 6 0.943596 0.698373 0.120483 -1 2 3 
7831 6 0.712449 0.672939 0.154363 6 -2 -2 
6305 6 0.891933 0.731314 0.154198 0 -1 6 
5566 6 0.911004 0.680721 0.151418 -1 0 -2 
6731 5 0.192435 0.70819 0.168721 -2 2 -3 
6810 6 0.629344 0.737031 0.123847 0 -3 0 
6723 6 0.765532 0.768556 0.150957 -1 -3 3 
8996 5 0.945853 0.748815 0.211661 -2 2 0 
8948 6 0.981301 0.785303 0.147361 -5 -2 1 
8849 6 0.342688 0.840275 0.152477 6 -2 0 
8828 5 0.605172 0.823556 0.158197 -2 -4 1 
5980 5 0.463263 0.776427 0.145724 3 -1 1 
6094 5 0.562309 0.813311 0.15688 -5 -2 -2 
5714 6 0.541965 0.853793 0.169182 0 -1 0 
8226 6 0.373652 0.855193 0.176228 -1 -5 4 
7096 5 0.459252 0.862316 0.120838 -4 1 -1 
6836 6 0.603282 0.867951 0.130922 -4 -2 0 
7298 5 0.790579 0.829843 0.15433 -1 -2 1 
8689 5 0.840291 0.878873 0.148865 0 0 -1 
5776 6 0.847339 0.884933 0.159452 3 0 0 
8257 6 0.0907466 0.899018 0.142814 0 -1 6 
8552 6 0.572821 0.857681 0.151192 -1 -1 -1 
7958 5 0.137452 0.887025 0.201694 0 1 3 
8114 6 0.00393302 0.905555 0.0999374 0 2 5 
8814 5 0.49872 0.960075 0.141465 -1 8 -3 
5144 5 0.572426 0.986987 0.146484 7 -3 5 
5828 5 0.684117 0.956514 0.138319 8 0 -1 
5370 6 0.694023 0.958636 0.143989 7 2 -2 
7448 5 0.863687 0.998535 0.131487 1 -4 -1 
6185 6 0.183569 0.968933 0.161247 -1 1 3 
6855 6 0.176675 0.0741359 0.198323 -1 0 3 
5251 6 0.924125 0.0544955 0.156962 -1 -3 -5 
6104 6 0.927543 0.0540579 0.167401 -1 -5 0 
8516 6 0.0280105 0.110212 0.152146 1 5 -2 
6150 5 0.147796 0.0706322 0.193058 7 2 0 
6953 6 0.405657 0.0910697 0.148451 1 0 1 
8046 5 0.847648 0.10044 0.15741 1 2 -2 
5594 6 0.110515 0.127455 0.169933 -3 2 0 
6034 5 0.810674 0.16302 0.165952 1 3 5 
8439 6 0.0606703 0.135125 0.143614 0 2 1 
5734 6 0.725301 0.132691 0.17396 0 -2 4 
6597 6 0.373702 0.141507 0.194257 -2 3 -1 
8984 5 0.752022 0.164731 0.157322 -6 5 4 
7621 6 0.0660498 0.173669 0.16699 2 -3 0 
5724 6 0.680486 0.194483 0.162445 0 3 1 
5798 6 0.0749303 0.253503 0.162038 -3 6 0 
7504 5 0.0982179 0.227753 0.172416 0 -1 -4 
7768 5 0.649719 0.256175 0.133078 1 -4 10 
8076 6 0.19817 0.275404 0.152346 -2 -1 -2 
5554 6 0.0893065 0.271855 0.131655 -4 1 -1 
8374 6 0.612445 0.302555 0.119513 2 0 -1 
5684 6 0.139053 0.333769 0.194634 -3 2 -4 
5417 5 0.498156 0.309667 0.198679 2 2 2 
5407 5 0.569457 0.323087 0.199745 0 -1 2 
8506 6 0.696992 0.275381 0.14521 -2 3 1 
5661 6 0.780529 0.293662 0.15776 2 -1 3 
6059 6 0.340028 0.346584 0.173515 1 -2 2 
8245 6 0.71074 0.340583 0.166666 1 6 0 
6606 5 0.808442 0.348226 0.177066 -3 0 -3 
8285 6 0.975932 0.314109 0.19278 2 1 -1 
5045 6 0.468134 0.353311 0.143478 -2 -1 4 
5847 6 0.588659 0.370693 0.148508 -1 1 2 
6892 6 0.517106 0.407118 0.21549 0 -3 -1 
7879 6 0.620252 0.399598 0.196523 -2 -2 -2 
5324 5 0.872509 0.383129 0.17064 0 -1 -3 
8654 5 0.153277 0.397501 0.168862 1 -2 0 
8028 6 0.269626 0.458652 0.181322 -1 3 -5 
7526 6 0.4439 0.42884 0.135085 2 2 -1 
7641 6 0.64435 0.461359 0.143433 -4 -3 -4 
6369 6 0.0596147 0.477537 0.174156 -4 3 8 
6630 5 0.00332951 0.468077 0.162749 0 -4 2 
7379 6 0.682099 0.431169 0.166067 4 -1 3 
6604 5 0.750596 0.445198 0.204712 5 1 -5 
8155 6 0.529255 0.528827 0.171347 7 0 1 
5690 6 0.667946 0.462923 0.175783 2 0 1 
8735 6 0.78696 0.487508 0.174972 0 1 4 
5602 5 0.207061 0.494043 0.175753 -2 -2 -1 
6829 6 0.502356 0.523959 0.161319 -3 7 1 
6077 6 0.656484 0.510772 0.143698 3 2 4 
7893 6 0.24836 0.492143 0.176782 -2 1 2 
7451 6 0.00671732 0.561065 0.161472 7 0 4 
8663 6 0.823226 0.590487 0.178415 0 -3 0 
6944 6 0.234403 0.644648 0.17344 -1 0 -6 
6942 6 0.863155 0.620841 0.128713 -3 2 0 
8027 5 0.908788 0.609646 0.148543 3 -1 2 
6567 5 0.00104565 0.604945 0.197043 -1 3 -1 
8655 5 0.0133176 0.693087 0.172 -3 -3 3 
7000 5 0.30292 0.657023 0.165269 1 1 -3 
8593 6 0.646274 0.651864 0.160026 3 0 -3 
5073 6 0.330535 0.677925 0.158216 0 -6 -3 
8093 5 0.504155 0.706361 0.220469 -1 -1 1 
7533 6 0.659844 0.755354 0.134073 -4 -5 -7 
5976 5 0.357932 0.734804 0.162335 7 2 -3 
7576 5 0.703391 0.711827 0.124622 -1 1 1 
6782 5 0.775415 0.710708 0.210638 -1 3 -3 
8438 5 0.0549182 0.757189 0.209032 -2 -1 1 
7886 6 0.517847 0.759962 0.173697 -2 -1 -7 
5076 6 0.237693 0.821455 0.171741 -3 -1 -1 
7147 5 0.888403 0.824378 0.162895 -3 -1 5 