ITEM: TIMESTEP
20000000
ITEM: NUMBER OF ATOMS
9000
ITEM: BOX BOUNDS pp pp pp
-75 75
-75 75
-75 75
ITEM: ATOMS id type xs ys zs ix iy iz 
5357 6 0.9249 0.0132045 0.978696 3 1 3 
6376 6 0.151555 0.0354589 0.0158978 -1 0 3 
8720 5 0.20274 0.00654094 0.983445 1 3 -1 
8463 5 0.884133 0.04277 0.0326117 -5 -2 -4 
6304 6 0.100979 0.0460891 0.999011 -3 -1 -7 
7417 5 0.117775 0.105095 0.987531 0 2 2 
7274 6 0.564745 0.0954853 0.0373479 1 2 0 
6150 6 0.258114 0.0822354 0.00279126 -2 2 -1 
6205 6 0.31864 0.101261 0.0594724 -2 0 4 
6420 5 0.552802 0.0834761 0.993481 2 -5 0 
5964 6 0.70326 0.153066 0.996606 -1 0 -1 
8196 5 0.35033 0.128377 0.990075 -2 -3 1 
6024 6 0.381095 0.145587 0.0391723 4 2 -1 
7526 5 0.243014 0.152502 0.00948143 -2 1 -2 
8662 5 0.401843 0.188966 0.0313483 -1 -3 -6 
7124 5 0.377986 0.142875 0.983951 3 7 -2 
7646 6 0.685176 0.165572 0.0349856 -4 2 -2 
8614 6 0.0491499 0.200603 0.00558881 -2 -2 1 
7134 6 0.547863 0.187164 0.00596997 1 -4 -2 
6408 6 0.672264 0.203032 0.0257834 2 -2 6 
7501 5 0.833722 0.18744 0.0168944 3 2 1 
7714 6 0.00138293 0.226935 0.0482857 3 -2 4 
7801 6 0.00152691 0.189597 0.997046 -5 -6 0 
6524 5 0.35637 0.229855 0.000334757 -4 1 -1 
5983 5 0.462382 0.203695 0.99244 2 7 1 
8479 5 0.629368 0.25115 0.0114146 4 0 0 
6785 6 0.818479 0.255219 0.0602055 -2 -6 0 
5632 6 0.37958 0.289587 0.0175437 -1 -1 1 
6527 5 0.327133 0.318713 0.0500204 -3 -2 -1 
8319 6 0.417137 0.313185 0.033724 -2 2 1 
7378 5 0.944267 0.23227 0.995879 -1 0 -3 
5227 6 0.0523171 0.320118 0.986556 0 -3 -3 
6854 6 0.313967 0.330905 0.000855883 -3 3 -1 
7096 5 0.490308 0.333649 0.0410602 1 4 -1 
5246 5 0.417491 0.341927 0.00679448 -1 -3 3 
7622 5 0.967968 0.293159 0.995409 -1 -2 1 
6834 6 0.295623 0.356145 0.00481756 2 -2 2 
7193 5 0.584689 0.367328 0.0134536 2 2 1 
8724 6 0.637398 0.352692 0.0303747 -3 -6 0 
8121 6 0.0298092 0.382157 0.0317145 -3 -3 2 
6990 6 0.501186 0.372175 0.0439951 -2 0 6 
6826 6 0.544537 0.359315 0.00259443 -2 -1 -7 
6637 6 0.779527 0.366316 0.0371796 0 -1 5 
5377 5 0.274029 0.409738 0.00297551 6 2 0 
6485 5 0.923235 0.415737 0.0101832 -1 -2 -3 
6445 5 0.977286 0.428098 0.00162689 -2 3 8 
5187 5 0.728509 0.428327 0.0251394 -2 -6 0 
6863 5 0.127833 0.405897 0.0134126 6 -2 -3 
6605 5 0.314491 0.463671 0.988496 3 2 -8 
6105 6 0.618664 0.45143 0.0526034 1 -2 3 
5639 5 0.721201 0.426178 0.982336 3 0 -1 
6510 6 0.880497 0.424674 0.00834314 4 2 -1 
5431 6 0.341312 0.510822 0.0195468 -1 2 5 
6198 6 0.77693 0.483573 0.995214 -2 -1 -1 
7980 6 0.832547 0.51955 0.0285995 -4 0 3 
7185 5 0.951504 0.502442 0.0028287 0 4 -1 
6734 5 0.146238 0.520246 0.0252254 -1 -1 0 
5362 6 0.693245 0.511648 0.00352272 2 1 0 
6825 5 0.0795674 0.574108 0.996497 -1 8 -4 
6438 6 0.00264599 0.597347 0.0122299 7 -2 0 
6025 6 0.930351 0.574005 0.02907 -1 -1 -2 
7704 6 0.31523 0.582188 0.994045 5 0 -1 
7076 5 0.605634 0.608669 0.0042407 -1 -3 2 
5298 6 0.968082 0.623851 0.0612032 1 -3 3 
5071 6 0.122698 0.622346 0.989846 6 -2 2 
6343 5 0.462422 0.663043 0.990187 3 2 -4 
8666 6 0.741775 0.65828 0.00707228 3 -1 0 
8838 6 0.773058 0.655677 0.994271 0 -5 3 
5971 6 0.922021 0.648716 0.985193 1 1 1 
5056 5 0.97914 0.64501 0.00401082 -3 0 0 
7863 6 0.0205049 0.671628 0.0135659 1 -1 4 
8139 5 0.325961 0.666192 0.952497 2 -7 -2 
7573 6 0.622899 0.631842 0.0262254 2 4 0 
7790 6 0.0550272 0.654541 0.00304346 2 -3 2 
7893 6 0.138862 0.691476 0.974822 -2 -8 -2 
5001 6 0.482832 0.661757 0.0466976 0 -1 5 
7563 5 0.473066 0.677989 0.0222831 4 3 7 
5214 6 0.669321 0.709462 0.0244864 1 -4 -2 
6913 6 0.430943 0.683726 0.0141634 1 1 4 
6890 5 0.442657 0.741241 0.97913 3 0 0 
8946 6 0.655949 0.714398 0.988895 0 -1 -5 
5445 5 0.726381 0.791945 0.0176463 1 1 -4 
7263 6 0.345024 0.815804 0.994884 4 0 -6 
6422 5 0.865168 0.77639 0.0479027 -4 1 7 
7776 5 0.168338 0.803127 0.994147 -6 0 -2 
6329 6 0.211468 0.794749 0.988471 0 0 -2 
6493 5 0.25445 0.786073 0.00142242 -5 -2 1 
5796 5 0.408329 0.823919 0.973464 4 -2 2 
5488 6 0.439526 0.797682 0.00540658 -2 3 4 
8586 5 0.463609 0.803671 0.985628 3 -5 -3 
7970 6 0.512979 0.804424 0.0014725 0 -1 1 
5789 6 0.978772 0.812785 0.0234184 -3 -5 -7 
5868 5 0.116932 0.849437 0.000234171 5 1 -1 
5618 6 0.265346 0.845927 0.0246641 4 -3 -3 
8880 5 0.489491 0.875453 0.00348698 3 -3 3 
7149 5 0.0503974 0.866462 0.0317654 2 -1 -6 
7938 5 0.991087 0.841509 0.0101084 0 2 4 
7453 6 0.0481819 0.829862 0.0240474 3 -2 1 
8460 6 0.0782909 0.891507 0.0394065 3 -3 4 
6237 6 0.177625 0.886742 0.0168692 -3 -4 4 
8862 6 0.575906 0.903938 0.021647 -1 7 5 
5614 6 0.882391 0.868855 0.998873 -3 4 -1 
8200 6 0.910211 0.8971 0.00814424 -2 0 -1 
5714 5 0.580875 0.925031 0.994355 -2 -1 -2 
7742 5 0.613447 0.937245 0.0482031 1 3 -2 
6046 5 0.121645 0.00325378 0.0319488 0 -1 4 
7683 6 0.160087 0.942944 0.980341 -3 -3 -1 
8513 6 0.411869 0.996902 0.994482 -3 1 0 
6065 6 0.410373 0.983802 0.0154636 1 -4 0 
6112 6 0.0406136 0.0121022 0.0105772 0 4 -3 
6365 6 0.391602 0.0122031 0.0217662 -6 1 -1 
5333 6 0.101146 0.0505109 0.0395615 6 -1 3 
6399 6 0.158177 0.0494583 0.0497839 -2 -2 1 
6287 5 0.398124 0.0717771 0.00462924 0 0 2 
5819 5 0.27731 0.0727352 0.0302471 1 -4 -2 
6452 5 0.117271 0.12141 0.0258562 -1 -2 -3 
5578 5 0.0559203 0.124812 0.051899 1 4 -1 
5803 6 0.0449715 0.179848 0.055974 1 1 -2 
5242 6 0.974357 0.130201 0.997271 2 -2 -3 
7095 6 0.708215 0.167694 0.0738448 -3 -3 2 
7967 5 0.26571 0.167139 0.0012621 6 1 0 
8069 6 0.577928 0.227975 0.0259685 -2 -3 -3 
6400 6 0.637836 0.164249 0.0787892 -3 3 0 
6148 6 0.798009 0.194048 0.0394217 2 2 -6 
8747 6 0.0079225 0.218882 0.0296961 -2 -3 0 
6140 6 0.215752 0.236748 0.0346093 -2 -2 3 
5100 6 0.491725 0.22164 0.043221 2 0 0 
8514 5 0.873502 0.226816 0.042189 4 4 3 
7843 6 0.910681 0.187251 0.0337157 -2 0 -2 
6840 6 0.107955 0.226446 0.02292 4 0 1 
8080 6 0.527974 0.24197 0.041527 -3 0 2 
5659 6 0.938006 0.222786 0.0300483 -1 -1 -4 
5364 5 0.804198 0.237738 0.00888437 -2 -6 -1 
5936 6 0.189601 0.260012 0.0702984 -3 2 7 
8382 6 0.390536 0.278561 0.0400691 1 0 6 
8292 5 0.852833 0.283973 0.0574299 1 5 -5 
5953 6 0.86579 0.293439 0.0209968 -2 2 1 
6319 6 0.615812 0.337524 0.0426551 -1 4 4 
7915 5 0.699656 0.388948 0.0528957 0 -1 3 
6749 6 0.239693 0.387831 0.0347557 2 1 2 
8320 6 0.352413 0.420602 0.00462027 -4 -1 -1 
8498 5 0.106302 0.452672 0.0574026 3 3 1 
7724 6 0.29776 0.463696 0.0388276 3 -2 -1 
5591 5 0.46635 0.417261 0.0709224 2 1 -1 
8969 5 0.00362059 0.515425 0.0358553 -1 -1 -6 
6053 6 0.875871 0.44432 0.0412097 -2 -2 1 
8639 6 0.523623 0.476576 0.0341824 0 2 1 
6012 6 0.544678 0.518384 0.0476144 3 0 3 
7071 5 0.984713 0.514843 0.0373354 -2 -9 1 
5482 6 0.34744 0.541445 0.00973736 0 -6 1 
8700 6 0.0428848 0.536572 0.0624297 1 -3 1 
6294 6 0.16716 0.54984 0.00687451 2 -1 0 
7003 6 0.0189149 0.547576 0.0644451 -2 1 1 
8607 5 0.229596 0.585626 0.053279 -1 -3 0 
7798 6 0.562366 0.620262 0.000267426 -4 -2 -4 
6914 6 0.741925 0.608076 0.00139742 0 -4 5 
5916 6 0.769197 0.608204 0.0363399 2 -5 -2 
7305 5 0.469037 0.658922 0.0540113 -2 -6 0 
8961 5 0.508188 0.612184 0.0379072 -1 1 -1 
8947 5 0.664661 0.629216 0.0181794 -1 -3 -2 
8007 6 0.579197 0.635804 0.0575886 -2 0 3 
6600 6 0.576997 0.652433 0.0599146 0 3 5 
6934 6 0.767691 0.642928 0.0790031 0 2 -5 
5981 5 0.807754 0.669057 0.038726 0 -6 1 
7972 5 0.992235 0.650627 0.0418746 -2 -1 4 
8123 5 0.722601 0.644525 0.0231261 1 3 -3 
7521 5 0.836941 0.711263 0.0371247 3 2 -3 
8117 6 0.0245593 0.716337 0.0169226 1 3 2 
7912 5 0.0759674 0.683351 0.00561632 -3 1 1 
5959 5 0.61377 0.717248 0.016896 1 1 -1 
7216 6 0.628272 0.697705 0.000687198 0 3 3 
5008 5 0.681191 0.749418 0.00895391 -1 1 2 
7810 5 0.75545 0.756725 0.0518713 1 0 -1 
6917 6 0.600183 0.784061 0.00153875 2 4 0 
6382 6 0.271374 0.784889 0.04887 5 -6 4 
6127 6 0.750339 0.773668 0.0460207 2 -9 0 
8595 6 0.826421 0.784976 0.0678061 2 -4 4 
8813 5 0.369479 0.829513 0.0216382 -2 -4 -2 
5539 5 0.205641 0.813507 0.0194277 1 3 -1 
7896 5 0.658982 0.895154 0.0431691 3 0 2 
6983 6 0.73258 0.872507 0.0180629 -1 2 2 
8824 5 0.1906 0.891024 0.0523874 2 -5 0 
8501 5 0.753786 0.894251 0.0237379 -1 -2 0 
6776 6 0.206665 0.909642 0.00744969 -1 -2 -1 
7048 5 0.713897 0.951977 0.0477523 -6 2 -2 
5835 5 0.863772 0.976678 0.982936 5 -2 -5 
7049 5 0.938647 0.93156 0.986198 -2 -1 1 
7699 5 0.175218 0.980782 0.0483908 4 0 1 
6241 6 0.362311 0.0270216 0.0254068 0 4 -2 
8014 6 0.701565 0.927433 0.047649 2 3 -4 
8486 5 0.818835 0.0243554 0.059239 0 -1 2 
5486 5 0.346991 0.0258793 0.0944982 3 1 1 
6490 5 0.391211 0.0608749 0.021866 3 -1 1 
8296 5 0.551938 0.0958149 0.0205989 2 0 2 
8644 5 0.690882 0.0535801 0.104854 -4 1 1 
5523 5 0.0985291 0.102593 0.0562709 -6 1 4 
5072 6 0.798152 0.104248 0.0757586 -2 -3 5 
8342 6 0.896209 0.110805 0.0557841 3 5 2 
8754 6 0.977591 0.157792 0.0478782 -4 -2 2 
5715 6 0.316132 0.14892 0.0795821 1 4 -2 
5549 5 0.984707 0.198095 0.0259775 -2 3 0 
7581 6 0.479959 0.213345 0.0533062 1 -1 0 
6162 6 0.742729 0.230262 0.0561761 4 -3 0 
7788 6 0.825185 0.218853 0.0735029 5 2 0 
5498 6 0.883843 0.232488 0.0731072 -3 3 -2 
7661 5 0.0642895 0.20517 0.063132 -2 3 -1 
5732 6 0.162441 0.247274 0.058172 1 -5 1 
7720 6 0.288978 0.245185 0.0873181 0 4 1 
6965 6 0.498999 0.231014 0.0657472 2 0 3 
6541 5 0.817162 0.213134 0.0484633 -5 -1 -2 
6685 5 0.0359225 0.299172 0.0213046 2 -3 -3 
6598 5 0.699271 0.318377 0.0670108 5 0 -3 
6788 5 0.756276 0.364975 0.0748561 3 1 5 
8645 6 0.582596 0.335426 0.0135818 -1 4 0 
8913 6 0.183673 0.342712 0.0554039 -2 -2 2 
8816 5 0.441291 0.376533 0.0586655 1 -3 2 
8166 5 0.146375 0.388187 0.0727507 -1 -3 4 
7333 5 0.244509 0.40401 0.0433538 -3 2 4 
6253 5 0.30011 0.41121 0.0346763 -4 0 -2 
6865 5 0.307337 0.378277 0.0730639 1 -2 2 
8612 5 0.713503 0.434279 0.0652076 -3 -3 -1 
5649 6 0.253188 0.490991 0.0575369 4 -1 -4 
8234 5 0.485101 0.459838 0.999995 -4 1 -5 
6030 6 0.63234 0.454842 0.0454484 -1 4 -1 
7028 6 0.0749481 0.52503 0.0380357 0 -5 0 
6662 5 0.412572 0.464198 0.0631588 2 -2 -5 
6334 6 0.782002 0.474331 0.0443172 -1 0 0 
7237 5 0.95274 0.461064 0.0939837 3 6 2 
7615 6 0.961051 0.513199 0.0377363 -3 -3 -3 
7373 6 0.915062 0.491224 0.0835008 0 2 3 
8063 6 0.305365 0.5423 0.0615032 5 -1 -1 
7519 6 0.388765 0.537115 0.0803326 -3 0 1 
6797 6 0.824063 0.536418 0.0776806 0 0 -2 
8137 6 0.0980619 0.536284 0.0742568 0 5 1 
6398 5 0.405879 0.565476 0.0508076 -1 2 3 
5447 5 0.740026 0.559446 0.0205819 -1 -3 0 
7651 6 0.938481 0.624322 0.0595273 2 -1 4 
8264 6 0.0194885 0.605055 0.0323995 -3 -2 -3 
8895 6 0.251264 0.645968 0.0472111 2 -2 -1 
8169 5 0.346601 0.630962 0.0870891 -5 -1 0 
7625 5 0.417416 0.645288 0.0312803 7 3 3 
6248 5 0.439514 0.638468 0.0490163 3 -3 -5 
8957 5 0.992372 0.626385 0.0549493 -2 0 3 
6210 6 0.147131 0.64481 0.0480448 3 1 -1 
5226 5 0.481458 0.668768 0.0859551 -3 -1 3 
5610 5 0.339341 0.723344 0.0708851 3 0 4 
5369 6 0.0694428 0.719426 0.0278668 2 -3 -1 
8408 5 0.0779241 0.74744 0.0813488 -1 4 5 
8630 6 0.238285 0.715433 0.0924548 0 -1 -1 
5075 5 0.885537 0.725408 0.034327 5 -2 -1 
6613 6 0.208279 0.747774 0.0475127 -2 3 4 
6935 6 0.786014 0.773462 0.0637085 0 0 -3 
8088 6 0.991039 0.785392 0.0344346 -3 -5 0 
6417 6 0.276553 0.836174 0.0486988 -4 -3 3 
6321 6 0.25665 0.752031 0.0548496 2 -2 0 
8743 6 0.505305 0.75066 0.0515697 2 -1 -4 
6498 5 0.75436 0.778105 0.0570324 -1 -6 -1 
5245 6 0.833 0.77472 0.019633 -2 8 1 
5795 5 0.719671 0.796996 0.0685921 1 2 -3 
6450 6 0.723742 0.830197 0.0401751 2 -3 5 
8730 5 0.629774 0.787838 0.0571875 -4 3 -1 
8817 6 0.190587 0.877547 0.0731338 2 5 -5 
7178 5 0.431225 0.916404 0.0687247 -4 1 3 
7716 5 0.846775 0.900152 0.0745473 2 0 0 
6871 6 0.2072 0.85217 0.0207658 5 -6 5 
6200 5 0.789571 0.89594 0.0209247 -1 4 -1 
6711 5 0.257848 0.957607 0.0663173 1 -2 1 
5676 5 0.529274 0.878349 0.0992613 3 -1 4 
8543 6 0.303903 0.937501 0.0336422 -2 -3 0 
5180 5 0.356573 0.957676 0.0635421 -5 -3 1 
8856 6 0.746508 0.975422 0.0666796 -2 -2 1 
8839 6 0.590219 0.981761 0.0613776 1 3 8 
5908 5 0.0632654 0.00953954 0.0848282 1 -5 -3 
7260 5 0.717924 0.0501453 0.120367 -3 1 5 
7524 6 0.687006 0.00203683 0.0644467 -1 -3 -3 
8210 6 0.991363 0.0295592 0.0607153 3 -1 1 
7669 6 0.434974 0.00860194 0.110495 0 4 0 
5888 5 0.54946 0.0394783 0.0557633 2 -1 0 
5430 6 0.751968 0.0859421 0.090545 -3 3 0 
7111 6 0.934425 0.995305 0.0681071 1 -3 0 
5405 6 0.0593344 0.117973 0.0667431 1 3 6 
8230 5 0.374315 0.12998 0.038691 -3 0 7 
5344 5 0.409109 0.0939485 0.0808817 1 1 2 
5130 5 0.655385 0.162222 0.0936615 -1 -1 0 
8725 5 0.654908 0.139787 0.0844958 -1 3 -4 
7383 5 0.238064 0.180249 0.0747086 -3 7 2 
5316 5 0.34035 0.17773 0.0984195 5 3 0 
7244 6 0.875114 0.190504 0.0824938 -1 -3 0 
8330 5 0.877677 0.191279 0.122075 -1 -4 4 
5784 6 0.334509 0.256162 0.116487 4 2 1 
6222 5 0.504781 0.257878 0.0693237 -1 0 -2 
6100 5 0.652982 0.312141 0.0702396 0 -5 0 
6235 6 0.203821 0.347492 0.0742443 4 -1 2 
5989 6 0.244664 0.33929 0.0168344 0 1 1 
5128 6 0.297967 0.342764 0.0376202 -1 -4 -10 
6786 6 0.568308 0.325945 0.096007 -2 -3 -1 
5114 6 0.847286 0.335375 0.0997019 -2 4 -1 
7199 6 0.970704 0.309134 0.0657489 1 -2 -1 
5104 6 0.561004 0.392611 0.0515806 -3 -3 -2 
5043 6 0.661964 0.391789 0.123717 -3 4 3 
8212 6 0.872626 0.336282 0.13167 3 -3 2 
5917 5 0.978749 0.342823 0.0635851 1 1 0 
7329 6 0.195272 0.429635 0.0446664 1 4 1 
5240 6 0.643858 0.421961 0.0784759 -2 0 0 
5818 5 0.445329 0.450638 0.0762683 -3 2 1 
6639 6 0.69941 0.447889 0.0344279 0 -1 0 
7447 6 0.195414 0.471021 0.0722159 -4 1 1 
8324 5 0.758379 0.446953 0.0816622 -1 -3 -1 
6809 6 0.857764 0.485698 0.0572031 2 -2 1 
7657 5 0.51834 0.498042 0.072728 -3 -3 3 
6234 5 0.531575 0.520947 0.0442356 3 1 -3 
6722 5 0.908149 0.502163 0.0620222 -4 -1 -4 
6958 6 0.586038 0.537603 0.0813245 2 -1 2 
5450 6 0.509905 0.52373 0.0477458 -2 5 2 
6669 6 0.652404 0.613305 0.0922085 0 0 2 
7599 6 0.516464 0.581206 0.0894118 3 0 4 
8699 5 0.358467 0.671612 0.0879581 -1 1 -2 
8384 6 0.357571 0.613228 0.116161 0 1 -1 
7473 6 0.566742 0.598332 0.0277812 -1 -3 -4 
6703 5 0.710885 0.623639 0.0501038 -1 6 5 
5844 5 0.235505 0.630567 0.0763559 3 -1 2 
8911 6 0.516587 0.63664 0.110745 1 -1 -1 
7764 5 0.495672 0.671064 0.0814646 0 1 0 
8991 5 0.984158 0.704438 0.0465617 0 1 -2 
6298 5 0.155198 0.67643 0.0755764 2 -3 0 
6577 6 0.239576 0.646949 0.121725 2 4 1 
6752 6 0.650973 0.66512 0.0757408 0 2 0 
5162 6 0.736475 0.690825 0.0934646 -1 -4 -4 
6807 6 0.870039 0.711456 0.0906558 -3 6 -4 
7084 5 0.334743 0.699203 0.0837162 0 0 -1 
5143 6 0.474255 0.70823 0.117057 4 -4 -1 
8487 6 0.545904 0.705742 0.0702568 -5 1 -3 
7428 5 0.773353 0.723711 0.0775264 0 -5 6 
5183 5 0.984307 0.708174 0.0758495 0 -1 3 
5118 5 0.215577 0.783178 0.0728341 -4 -3 2 
5694 6 0.126442 0.746714 0.104648 -1 -3 1 
8373 6 0.312474 0.765157 0.0602992 5 -2 -3 
7404 5 0.463722 0.749521 0.117355 -4 1 1 
5691 5 0.621344 0.752842 0.0924266 -1 -4 -2 
8214 6 0.481696 0.789084 0.0826267 4 -2 3 
5129 6 0.601968 0.788985 0.0921695 1 -1 2 
5033 6 0.116321 0.863788 0.0918848 0 1 2 
8184 5 0.407383 0.855415 0.0761704 -1 -2 1 
6404 6 0.0815392 0.884097 0.0801841 2 3 -2 
5529 6 0.293881 0.88185 0.0936621 4 -1 3 
7326 6 0.904503 0.879396 0.0714749 -2 0 2 
8502 6 0.196974 0.865401 0.119425 -2 1 -3 
6212 6 0.265412 0.924243 0.138218 0 -3 -4 
7164 6 0.433228 0.897894 0.0839581 -2 0 -1 
6916 5 0.550902 0.90806 0.0937968 1 2 1 
5157 5 0.139655 0.942196 0.0962983 2 2 4 
5491 5 0.32529 0.919904 0.0794042 2 0 -2 
5858 5 0.394957 0.902348 0.049583 3 -3 5 
5317 6 0.762675 0.902887 0.0697291 -1 6 -4 
7127 5 0.970237 0.899567 0.0435212 -2 -2 -2 
5332 5 0.0179395 0.927427 0.0810035 0 -2 -11 
5185 6 0.166038 0.952954 0.0919989 0 0 2 
7198 5 0.809968 0.981511 0.0746223 1 -4 -2 
6589 5 0.999832 0.966631 0.0795731 -5 3 1 
6118 5 0.731478 0.00787552 0.10197 -1 2 2 
7081 6 0.977639 0.0230312 0.117473 -3 2 1 
6758 6 0.457908 0.0665952 0.101039 0 -2 1 
5029 5 0.852485 0.0269056 0.128522 1 1 0 
6232 5 0.243465 0.073374 0.104705 0 -6 4 
5731 6 0.264952 0.0974974 0.107453 -1 -4 1 
6178 5 0.823357 0.139936 0.12003 1 0 3 
7342 6 0.940157 0.095784 0.0746878 -1 2 -1 
7937 6 0.380779 0.146776 0.10344 -5 -4 4 
8981 5 0.863139 0.178146 0.108734 3 -3 3 
7849 5 0.0380694 0.186098 0.102992 -2 1 0 
5443 5 0.0648065 0.226623 0.0971356 3 -1 2 
7464 5 0.11829 0.162754 0.0927756 -4 1 1 
5904 6 0.290739 0.185033 0.107901 -1 1 0 
8562 5 0.449751 0.193306 0.0735078 -1 -2 2 
8293 5 0.261847 0.199564 0.0957807 6 2 2 
5345 6 0.39407 0.24483 0.0824577 -2 0 0 
5407 6 0.105457 0.256094 0.103387 0 1 1 
8225 6 0.124097 0.245241 0.118432 6 -2 0 
8405 6 0.427242 0.241214 0.115413 3 -2 -1 
5851 5 0.915532 0.240846 0.107729 2 1 -4 
7822 6 0.198499 0.283449 0.115061 2 2 2 
6845 6 0.763019 0.30361 0.130357 4 -1 4 
6349 6 0.0971697 0.305744 0.129936 3 3 1 
5175 6 0.437933 0.358655 0.088589 0 -2 0 
6489 6 0.845143 0.312841 0.0775186 -6 0 6 
7006 6 0.887081 0.356331 0.117706 1 -4 5 
5234 6 0.882557 0.322857 0.10889 3 2 1 
5607 6 0.0734879 0.369184 0.0941825 -1 -1 3 
6817 6 0.788256 0.380545 0.121797 -2 -3 2 
8811 6 0.55161 0.410358 0.111002 -6 1 -2 
7322 6 0.0491699 0.469297 0.0811822 -2 -2 -1 
7236 5 0.866928 0.45595 0.103679 -3 0 2 
8395 6 0.924908 0.43874 0.129343 1 -1 -4 
6810 6 0.660484 0.511557 0.0733886 5 -3 3 
5825 6 0.878853 0.516824 0.139733 3 2 1 
5199 5 0.924717 0.50863 0.0676905 0 3 4 
7182 5 0.932893 0.502109 0.10845 -3 2 4 
7431 5 0.799449 0.467305 0.133128 1 -1 0 
7075 5 0.952689 0.53583 0.0971158 -4 -2 -4 
5729 6 0.145942 0.555064 0.0892235 -3 2 1 
6964 5 0.37692 0.548135 0.121782 -1 -2 0 
6076 6 0.502286 0.54285 0.140837 3 -2 -1 
6306 5 0.0429553 0.568778 0.144743 1 -1 -1 
5065 6 0.0913455 0.542721 0.126532 -6 3 0 
5013 5 0.511036 0.547363 0.11072 -3 -2 5 
7359 6 0.843295 0.570012 0.138408 1 2 3 
7045 6 0.522175 0.615996 0.0815944 0 7 -2 
5920 6 0.178196 0.612946 0.0765421 4 6 1 
6075 5 0.17763 0.639303 0.131749 -3 -4 -1 
6483 5 0.964784 0.624464 0.108272 0 1 -2 
5857 5 0.450389 0.722076 0.1042 3 0 -2 
5297 5 0.995588 0.750332 0.0733766 -4 -3 3 
5702 5 0.699035 0.796716 0.0818614 0 -3 5 
8219 5 0.0493536 0.803248 0.106398 -2 1 6 
5368 6 0.681887 0.800775 0.0657784 5 -2 0 
8451 5 0.347101 0.809322 0.10496 2 -1 -7 
5196 5 0.752696 0.819139 0.0986005 -3 3 2 
8545 6 0.472937 0.846955 0.109151 5 2 -1 
6110 6 0.908859 0.867831 0.100445 2 -1 -3 
7953 6 0.965588 0.855111 0.0869183 -1 -1 -3 
5023 6 0.751355 0.846938 0.0968605 -5 0 2 
8443 5 0.579843 0.881163 0.117686 5 -3 5 
8585 6 0.861545 0.893234 0.118581 -3 5 2 
5455 5 0.457761 0.922311 0.0748753 -1 -1 0 
8311 5 0.550852 0.931386 0.113043 0 -3 -3 
8530 6 0.74861 0.923322 0.0802428 -1 -4 -3 
5781 5 0.0345224 0.94451 0.10409 5 -1 3 
5327 6 0.506771 0.936284 0.116207 1 3 -1 
8182 6 0.516745 0.960149 0.0965014 3 1 -1 
6739 6 0.789302 0.984518 0.0565642 -3 3 1 
5918 6 0.0132522 0.966757 0.0947355 -6 0 5 
5542 6 0.338142 0.0421572 0.136924 -2 -1 2 
8996 6 0.789464 0.999608 0.141542 0 -2 -1 
6280 6 0.746738 0.994671 0.118175 -2 -1 -1 
7346 6 0.831105 0.036838 0.108372 0 -2 1 
6269 6 0.52292 0.0805143 0.132134 1 6 -3 
6424 5 0.08555 0.111674 0.0948073 5 0 2 
7897 6 0.2348 0.13622 0.162114 -1 -3 7 
6643 5 0.489177 0.160407 0.106753 4 3 -1 
8037 5 0.116156 0.2177 0.120974 3 4 4 
6460 5 0.767978 0.159802 0.130617 -1 -5 -3 
7913 6 0.0662236 0.235499 0.108777 1 5 3 
7243 5 0.286274 0.237839 0.122253 -1 -2 0 
8636 5 0.265565 0.270165 0.124147 1 0 0 
8218 6 0.608979 0.231726 0.115197 -1 -3 -2 
5540 5 0.702927 0.218945 0.118474 2 -1 -2 
7270 6 0.450757 0.277984 0.141652 0 1 -1 
7763 5 0.840429 0.26412 0.111053 -1 0 1 
6944 6 0.16597 0.27315 0.138175 4 1 2 
6561 6 0.396791 0.30945 0.126871 1 0 2 
8987 6 0.94777 0.290919 0.0732772 -4 -5 -6 
5174 5 0.682939 0.326633 0.0878683 -2 -1 4 
8603 6 0.787314 0.341639 0.106676 0 1 2 
7639 5 0.290734 0.346062 0.115496 0 1 1 
5988 6 0.346562 0.380547 0.115132 -1 0 5 
7867 5 0.762195 0.391209 0.110163 2 -3 1 
5126 5 0.351055 0.395877 0.126415 4 2 0 
5307 6 0.376013 0.396231 0.117008 1 -2 -1 
5648 5 0.559591 0.428953 0.128632 -2 0 3 
5172 6 0.702913 0.439285 0.11692 7 -3 3 
8934 6 0.169977 0.423216 0.155415 -1 -5 0 
8599 6 0.776573 0.426325 0.150774 1 -2 0 
5921 5 0.591966 0.49289 0.117528 -5 6 -2 
5310 6 0.849735 0.465923 0.148685 -3 -7 0 
7266 6 0.988104 0.492721 0.0877226 -2 1 -1 
5603 6 0.0276772 0.498409 0.134044 2 4 3 
6742 5 0.68112 0.474718 0.127156 2 2 0 
7751 5 0.630029 0.518951 0.0880708 3 6 3 
7858 5 0.94085 0.563692 0.14114 -3 0 4 
6239 6 0.725052 0.582538 0.142692 -1 6 -1 
7548 5 0.955683 0.605977 0.105487 -3 -2 0 
7430 6 0.371312 0.62893 0.117733 -2 1 3 
8777 6 0.583114 0.625786 0.145346 2 1 0 
7008 5 0.362527 0.617746 0.122044 8 5 1 
8457 6 0.37433 0.610915 0.118008 0 1 3 
7640 6 0.528348 0.628403 0.141842 3 1 -3 
5575 6 0.918669 0.610181 0.119324 -2 0 0 
7837 5 0.12044 0.634692 0.126155 -3 -1 -1 
8677 5 0.548669 0.643977 0.173453 1 -1 0 
7841 6 0.162346 0.704373 0.136225 -4 0 1 
5843 6 0.889303 0.659144 0.102128 -6 -3 -4 
8489 5 0.393218 0.6842 0.146333 1 -1 2 
7441 5 0.544663 0.703869 0.11471 -1 1 5 
8058 6 0.741702 0.700976 0.136867 -1 1 4 
6552 6 0.00651072 0.678107 0.105526 0 -1 3 
7440 6 0.927627 0.691568 0.117766 -1 -3 2 
7390 6 0.374438 0.667511 0.0925283 -2 -1 0 
8249 6 0.217823 0.768584 0.166404 -1 2 -2 
6277 5 0.679154 0.762505 0.150963 -1 -1 -2 
6378 6 0.240078 0.795302 0.148085 -2 3 5 
5530 5 0.239243 0.833679 0.111049 8 -2 1 
5927 5 0.677141 0.871433 0.128085 -2 -3 -1 
8544 6 0.343128 0.858529 0.101346 6 -1 1 
6166 6 0.570716 0.90555 0.14927 2 3 -2 
6033 5 0.632538 0.880978 0.1557 0 -5 2 
6940 6 0.794741 0.86524 0.127377 -3 -2 1 
7005 5 0.922231 0.880627 0.134075 0 -2 3 
5839 5 0.0167414 0.926057 0.146922 -2 -1 4 
5109 6 0.448046 0.867184 0.146244 0 0 1 
6242 5 0.616663 0.898103 0.134743 -1 1 -4 
7300 6 0.71807 0.887109 0.104556 3 0 -1 
5213 6 0.0165249 0.947384 0.136694 0 -1 -1 
8767 5 0.847347 0.938618 0.110521 4 0 6 
7450 5 0.956361 0.974704 0.120887 -3 3 0 
8054 6 0.00777657 0.987733 0.145636 -4 0 -2 
7823 5 0.0704969 0.981707 0.127536 -3 4 5 
7090 5 0.475012 0.00727725 0.120931 3 -2 -1 
8431 5 0.669421 0.0127869 0.0966268 2 1 9 
5785 6 0.935165 0.960967 0.108827 -3 2 0 
7491 6 0.257895 0.0686985 0.178988 2 -2 2 
7506 6 0.22592 0.0581346 0.160837 1 -4 1 
7780 5 0.680973 0.0392545 0.149241 -1 1 -3 
7271 5 0.154218 0.0770457 0.129752 -6 -3 2 
8907 6 0.120162 0.0827327 0.149008 1 2 1 
5874 6 0.16559 0.0623665 0.141605 -1 -3 -4 
5664 6 0.173205 0.121002 0.147146 -3 -2 0 
7765 6 0.758709 0.140048 0.126769 1 -2 2 
6405 6 0.828178 0.0635083 0.149992 4 -1 2 
8973 6 0.85891 0.133379 0.0996112 -5 -3 2 
7795 6 0.0661584 0.169064 0.172506 -2 1 6 
8005 5 0.170381 0.154389 0.154944 2 5 -1 
6667 5 0.417213 0.176985 0.146663 0 6 0 
7358 6 0.0837718 0.169624 0.143844 1 -2 0 
8128 5 0.122533 0.181163 0.119084 -2 -2 -2 
6131 6 0.910552 0.210942 0.144109 1 -2 1 
7454 6 0.770613 0.17555 0.134542 1 -5 0 
6646 5 0.961739 0.193525 0.146061 -2 1 -2 
5893 6 0.945189 0.249894 0.11518 1 -2 0 
7909 6 0.157789 0.226596 0.195313 -4 -2 -3 
7850 6 0.536401 0.264597 0.140993 0 2 -4 
7069 6 0.988814 0.260505 0.141948 -1 -4 1 
8233 6 0.00259287 0.251279 0.114179 4 6 6 
5736 6 0.648395 0.296753 0.179069 4 1 8 
7098 5 0.652043 0.270216 0.141303 -4 -1 3 
8478 5 0.83638 0.270143 0.146986 -2 -1 6 
8198 6 0.268056 0.382061 0.142675 -2 0 1 
7051 5 0.855806 0.33313 0.125413 3 5 0 
8345 6 0.83403 0.323247 0.182465 -1 5 4 
8185 6 0.0585835 0.361951 0.171587 0 0 1 
5601 6 0.0950676 0.386968 0.154354 -6 1 -1 
8728 6 0.656016 0.379029 0.153314 -1 1 0 
7412 6 0.939609 0.410267 0.0841102 -3 3 -1 
6477 5 0.666444 0.403102 0.14055 3 -2 2 
7001 5 0.738645 0.43073 0.13905 2 -4 -1 
6559 5 0.952121 0.437374 0.149447 0 -2 1 
8412 6 0.949125 0.459015 0.127648 -7 3 -4 
6895 5 0.436014 0.469158 0.156065 4 -4 -1 
6619 5 0.746213 0.468397 0.133624 1 1 -3 
8362 6 0.0405712 0.471239 0.17043 -2 0 -4 
6949 6 0.784758 0.518721 0.176715 0 3 4 
7990 5 0.907277 0.512541 0.161983 0 1 3 
5706 6 0.167687 0.492074 0.130857 2 3 0 
6453 5 0.699563 0.535942 0.172532 0 0 -5 
7311 5 0.85824 0.55553 0.131749 2 -1 7 
5826 5 0.881351 0.605056 0.158516 0 0 -1 
6828 5 0.940773 0.589907 0.120582 1 1 3 
8833 6 0.776648 0.59936 0.182685 -2 0 -2 
7806 5 0.991075 0.618074 0.139576 -4 3 6 
7761 5 0.164255 0.620768 0.121281 -1 3 3 
5793 6 0.424481 0.613836 0.150984 3 2 -3 
5544 6 0.9787 0.684455 0.178879 4 2 4 
8707 6 0.186991 0.66025 0.151964 0 -1 5 
5873 6 0.244495 0.660605 0.169494 1 -1 -1 
8712 5 0.0966739 0.655592 0.151934 2 -2 2 
5363 6 0.610483 0.696275 0.144351 3 1 1 
6393 5 0.151531 0.734191 0.152351 -2 -3 0 
6120 5 0.278954 0.734808 0.139474 3 -6 -2 
5773 6 0.845978 0.699614 0.147515 -5 1 -5 
8656 6 0.486288 0.759943 0.16559 -2 -3 -2 
5080 6 0.611126 0.730716 0.153201 2 -2 -6 
6291 6 0.859869 0.707684 0.12706 0 -4 1 
8646 6 0.208749 0.783577 0.156575 -2 -2 -3 
5898 5 0.357599 0.78515 0.154835 3 4 -2 
7682 6 0.0805603 0.804256 0.180226 -3 -1 -1 
6003 6 0.142531 0.831741 0.157011 4 1 3 
8786 5 0.367271 0.831479 0.169622 -4 -1 -7 
6772 6 0.868183 0.833818 0.111284 3 -4 -3 
6094 6 0.905006 0.833157 0.159787 3 7 -4 
8592 6 0.602946 0.826466 0.174549 -3 3 3 
7278 6 0.645186 0.887131 0.145631 -1 -1 -4 
8921 6 0.626445 0.867928 0.131876 -1 2 -3 
5089 5 0.590327 0.925392 0.155729 -4 -5 0 
6649 6 0.865438 0.878935 0.115466 -5 -1 3 
7108 5 0.874111 0.892081 0.111878 0 5 -2 
5877 6 0.428815 0.915879 0.126814 -2 -1 -1 
7117 5 0.866967 0.938131 0.114435 -1 0 0 
5723 5 0.886445 0.927761 0.172826 1 -5 3 
7492 5 0.417824 0.954536 0.141903 0 5 3 
6387 6 0.407995 0.964218 0.160985 0 0 -1 
6259 6 0.491821 0.955748 0.123012 1 -3 1 
5928 6 0.590657 0.957161 0.126364 1 2 5 
8031 5 0.183525 0.976246 0.169196 4 0 -2 
6819 6 0.0109468 0.0160388 0.172386 0 0 -2 
7574 6 0.555055 0.988956 0.207197 3 -1 -1 
7916 5 0.837659 0.014009 0.166262 -4 1 -5 
7698 5 0.968083 0.0183867 0.181806 0 2 -3 
5685 5 0.143156 0.0555939 0.184839 3 1 5 
6630 5 0.248055 0.0308385 0.133447 5 2 3 
7365 5 0.856901 0.0731402 0.182886 3 4 1 
8237 6 0.0510266 0.088288 0.178349 4 1 0 
7690 6 0.529153 0.072916 0.122595 -1 2 3 
7316 5 0.644448 0.0912132 0.156077 -2 2 -2 
8420 6 0.499638 0.130122 0.178047 -2 -1 3 
6551 5 0.762588 0.107619 0.198691 1 -5 1 
6332 5 0.316505 0.100908 0.165188 2 0 -2 
8889 5 0.393215 0.125677 0.160697 0 0 -2 
7604 6 0.495384 0.117711 0.176028 -2 -2 -2 
5653 5 0.541898 0.144794 0.160825 -1 3 -3 
8511 6 0.0642296 0.178188 0.1405 3 0 -3 
6721 6 0.230546 0.159655 0.125269 -4 -1 -3 
8217 5 0.652753 0.162014 0.170294 -1 -1 1 
6569 6 0.711424 0.198359 0.19104 -1 -1 2 
7826 5 0.789987 0.189633 0.142936 0 0 -1 
7207 5 0.9183 0.205067 0.200186 2 -3 4 
5666 5 0.0555182 0.231983 0.173068 -2 0 1 
5359 6 0.0301349 0.210444 0.163762 1 3 6 
5730 5 0.115761 0.271499 0.186044 0 -3 0 
6966 6 0.268669 0.249027 0.185272 1 6 -1 
7534 5 0.296244 0.231494 0.172769 -1 1 -1 
8286 6 0.842424 0.259877 0.172633 -2 -3 3 
8650 6 0.305031 0.260383 0.177852 -5 -1 0 
6503 6 0.843492 0.247135 0.177944 3 -2 2 
7100 5 0.8831 0.268718 0.199897 -3 -2 4 
7533 6 0.397742 0.254295 0.153966 -3 -2 3 
5522 6 0.46181 0.272162 0.166215 2 2 1 
8552 6 0.197106 0.321359 0.157963 -3 -3 -4 
6459 5 0.276121 0.301597 0.116791 -1 1 2 
5480 6 0.367784 0.313634 0.169184 -1 6 1 
5182 6 0.837984 0.326088 0.174311 1 -1 1 
8902 5 0.766014 0.341528 0.218987 -1 6 3 
7212 5 0.768101 0.343848 0.17313 0 1 -1 
7107 6 0.0518407 0.352979 0.171332 3 -1 -1 
8506 5 0.264546 0.327545 0.185094 5 0 3 
7032 6 0.746336 0.371728 0.174492 0 -1 0 
7035 6 0.202037 0.328384 0.176117 0 1 7 
7588 6 0.590933 0.406555 0.133046 0 1 5 
5371 5 0.703929 0.391662 0.160989 3 2 5 
5566 6 0.462163 0.468997 0.171618 7 0 -1 
7530 6 0.716295 0.45445 0.167718 0 -3 0 
5866 6 0.0504984 0.472066 0.176686 -5 2 -1 
6163 5 0.41145 0.472608 0.196948 1 2 1 
5424 5 0.376558 0.489071 0.16387 5 1 6 
7898 5 0.519093 0.463282 0.177699 7 4 3 
8100 6 0.738675 0.487634 0.176131 6 0 1 
5459 6 0.848555 0.54184 0.139875 0 2 0 
5496 6 0.881903 0.496346 0.168488 -1 -2 -1 
7920 5 0.883773 0.558474 0.156602 -5 -3 -1 
8503 6 0.873936 0.524747 0.181274 0 1 -1 
8769 5 0.310394 0.555761 0.184851 -2 3 -3 
8884 5 0.416733 0.575565 0.172804 -1 6 -2 
6262 5 0.476774 0.526438 0.135325 -4 0 -2 
7375 6 0.633886 0.567987 0.180231 4 2 -5 
7382 5 0.897852 0.565778 0.167761 -1 2 3 
8771 6 0.183674 0.569508 0.125571 -2 -1 3 
8851 6 0.635982 0.561235 0.204563 0 0 5 
7147 6 0.492735 0.620218 0.135716 2 3 -3 
6799 5 0.601271 0.596703 0.149959 1 2 2 
5824 5 0.223477 0.6085 0.168959 -2 1 3 
5992 5 0.992149 0.587348 0.191026 0 0 -4 
6028 6 0.138634 0.641208 0.168293 2 -1 1 
6720 5 0.12846 0.679619 0.200235 -1 -1 7 
5814 5 0.325807 0.649141 0.204735 2 2 3 
5478 6 0.463302 0.614546 0.13668 3 -6 -2 
6631 5 0.0712575 0.621626 0.176261 0 3 1 
6437 6 0.550289 0.649729 0.162257 -1 -8 -2 
7965 6 0.0855381 0.728173 0.170102 2 0 3 
8488 5 0.26991 0.737718 0.160408 -2 -2 0 
6652 5 0.461522 0.747119 0.187333 5 -1 1 
5284 6 0.0617105 0.72112 0.188491 -4 -1 -6 
6261 5 0.204169 0.768655 0.140406 -1 -2 6 
6794 5 0.334713 0.760618 0.177686 -3 -3 -1 
7723 5 0.459303 0.760531 0.171383 -1 -4 -4 
7025 6 0.556673 0.825856 0.159308 -3 1 0 
5158 5 0.605489 0.808762 0.142094 2 -4 4 
6542 5 0.0135048 0.867561 0.190403 -1 -1 1 
8132 5 0.119722 0.837032 0.15853 -1 3 2 
6548 5 0.259446 0.87634 0.142831 3 0 4 
7195 5 0.843565 0.911401 0.156128 -1 0 -4 
8584 5 0.546811 0.894605 0.178543 0 7 2 
5014 6 0.919393 0.907432 0.171172 0 1 4 
7738 5 0.992733 0.921155 0.129045 0 0 1 
5188 5 0.400174 0.932039 0.177812 3 -2 3 
7659 6 0.453775 0.932158 0.189685 0 3 -1 
5444 6 0.231184 0.987228 0.184327 -1 -2 1 
7552 6 0.35979 0.976854 0.180114 4 4 -1 
5473 5 0.0530599 0.00777608 0.170679 0 -1 -5 
7931 6 0.0937861 0.0326478 0.180841 -2 3 4 
6189 6 0.499168 0.950654 0.144402 -1 2 -2 
8314 5 0.813933 0.0196553 0.191868 -1 0 -1 
6956 5 0.835665 0.0168474 0.196029 1 3 0 
6800 6 0.332116 0.00570861 0.191857 -1 4 3 
7730 6 0.81947 0.00076536 0.260089 1 -1 2 
7228 5 0.388824 0.0534386 0.189768 1 -3 -1 
6415 5 0.10363 0.0343139 0.194687 -1 0 -1 
5204 6 0.586714 0.086467 0.215182 1 -2 -2 
8048 6 0.631363 0.156767 0.180689 0 -2 1 
6093 6 0.782825 0.115343 0.176605 2 -4 0 
5738 5 0.0278846 0.124452 0.173319 0 -1 -4 