ITEM: TIMESTEP
50000000
ITEM: NUMBER OF ATOMS
9000
ITEM: BOX BOUNDS pp pp pp
-75 75
-75 75
-75 75
ITEM: ATOMS id type xs ys zs ix iy iz 
8691 6 0.419708 -0.000233856 0.0265631 -4 -2 -2 
6515 5 0.925289 0.0770613 0.0218237 -5 2 -3 
5153 5 0.10478 0.0710301 0.0132834 -9 2 9 
8753 6 0.423996 0.103079 0.0154409 3 2 -2 
5511 6 0.785566 0.040154 0.997046 -3 6 5 
7434 5 0.745628 0.0932247 0.00341491 1 -5 -1 
8008 6 0.301351 0.138798 0.00842908 0 1 6 
8806 6 0.577753 0.122241 0.981226 6 5 -8 
5894 5 0.0434144 0.159526 0.0035361 4 4 4 
7354 6 0.46007 0.174758 0.0381037 -5 1 3 
5885 5 0.913732 0.179307 0.0318447 10 -3 -6 
5932 5 0.249459 0.233761 0.982369 -2 15 -7 
7080 5 0.795098 0.210412 0.0156647 -4 -3 -1 
6591 5 0.238144 0.203455 0.0159493 -3 -5 2 
7565 6 0.795883 0.218737 0.0241233 -3 9 0 
6471 5 0.142652 0.230093 0.0228971 7 2 0 
6787 6 0.199346 0.268894 -0.00100309 3 -1 -1 
6395 6 0.728365 0.272774 0.984126 -3 5 -6 
6762 6 0.228856 0.236214 0.988989 -7 -3 0 
8621 6 0.282013 0.277646 0.0164842 1 -1 3 
5264 6 0.551754 0.352099 0.999733 -4 -1 -6 
5782 6 0.581679 0.314023 0.983607 -3 1 2 
5600 6 0.81745 0.310812 0.000701501 -1 1 4 
8059 6 0.0116491 0.302977 0.986169 7 1 8 
5105 5 0.313039 0.316645 0.974517 -2 0 -6 
6217 6 0.426648 0.33102 0.984738 -2 0 1 
5626 6 0.0461394 0.351509 0.985955 6 1 7 
5147 6 0.450202 0.315244 0.981233 -2 -4 -2 
8013 5 0.624665 0.382258 0.0345238 -5 0 -3 
6814 5 0.805739 0.376127 0.0198186 -1 0 3 
7492 5 0.0777267 0.405642 0.980562 5 9 7 
5811 5 0.520304 0.421756 0.998244 0 -1 -3 
8945 5 0.624242 0.407239 0.976449 -2 1 -4 
7180 6 0.00604626 0.4233 0.0257273 -5 -6 3 
8705 5 0.0987609 0.419518 0.0278186 -1 -6 -5 
7504 5 0.152504 0.430119 0.0283742 4 -5 0 
6370 6 0.483496 0.41254 0.0210651 -2 -4 -1 
6825 6 0.167734 0.443617 0.980091 -3 4 2 
6063 6 0.242344 0.480585 0.0201104 2 2 -2 
7893 6 0.310233 0.490422 0.966665 0 -4 -3 
6055 6 0.382248 0.469138 0.010036 0 -3 5 
7809 6 0.72848 0.518278 0.0312706 -5 6 -8 
8414 5 0.0271457 0.483078 0.00890906 -2 9 3 
5356 6 0.291024 0.527933 0.020433 3 1 1 
7407 5 0.0488315 0.565069 0.0149671 4 -2 -1 
6513 6 0.544279 0.531155 0.985226 -4 -7 -10 
5944 5 0.597835 0.554086 0.99865 -3 -8 -5 
8176 5 0.808517 0.495621 0.99433 1 -9 -5 
8216 5 0.153406 0.589145 0.0104046 -1 -10 0 
6731 5 0.56818 0.567737 0.00673798 -2 1 2 
8884 6 0.618613 0.565517 0.0192287 -2 8 -1 
7155 5 0.935426 0.592858 0.997603 -5 -2 -3 
5260 6 0.0182276 0.571899 0.00971952 5 1 0 
6154 5 0.412367 0.608557 0.0283599 5 0 2 
5503 6 0.849799 0.5756 0.0281124 -7 0 1 
7108 6 0.507919 0.600871 0.0415131 -2 4 -2 
5383 5 0.640624 0.63117 0.0579967 2 9 -1 
5071 6 0.985717 0.621615 0.0244161 -2 -1 1 
7195 5 0.194639 0.624886 0.0285406 -3 -4 -4 
6809 5 0.711416 0.650375 0.0426956 -4 2 1 
5459 6 0.927113 0.6332 0.0345068 -1 -3 1 
8582 5 0.0581017 0.675434 0.0177712 0 -3 -2 
5712 5 0.400672 0.634695 0.0109773 6 -4 0 
6232 5 0.835816 0.637865 0.0271634 6 -1 1 
7670 6 0.0248788 0.666758 0.994257 -1 -4 -6 
6811 6 0.0669168 0.663538 0.0377711 0 -5 5 
7523 6 0.201576 0.689418 0.00424154 1 -3 -4 
5371 6 0.118095 0.768311 0.00559636 -5 0 -17 
5900 6 0.554581 0.735812 0.0245571 6 -3 2 
7409 5 0.327914 0.777084 0.0113537 -4 0 1 
7197 6 0.742588 0.765812 0.0168739 0 -5 10 
8375 5 0.73438 0.801735 0.0240157 -2 -4 -2 
6826 6 0.149398 0.804922 0.0577973 2 4 0 
7560 5 0.329858 0.80574 0.0280347 -4 9 -2 
5354 6 0.477644 0.828644 0.997303 0 7 -4 
7668 6 0.538932 0.849376 0.0268861 -2 9 4 
6085 5 0.551495 0.849492 0.0231685 2 7 4 
6455 6 0.990739 0.846639 0.988585 1 0 -1 
6239 5 0.145204 0.867983 0.980022 0 5 -2 
5280 5 0.883258 0.878301 0.024155 -1 2 11 
7677 6 0.349153 0.932885 0.0048978 -9 -2 -8 
6179 6 0.619112 0.89735 0.0217529 0 0 4 
8704 6 0.722205 0.9292 0.0303632 -5 3 5 
5386 6 0.939593 0.91416 0.994123 2 2 6 
8306 6 0.265463 0.937508 0.963324 -3 -5 -8 
5796 6 0.131369 0.997283 0.986299 -1 -2 6 
5943 5 0.503308 0.963979 0.0331056 -1 -1 5 
7810 5 0.853605 0.986411 0.0255016 2 0 0 
7286 6 0.944496 0.921532 0.995019 2 -3 -4 
5215 5 0.209305 0.991593 0.98616 -6 -12 2 
5635 6 0.436282 0.981074 0.997873 3 2 0 
6843 6 0.397355 0.00147206 0.0262318 2 -4 0 
8543 5 0.175475 0.979957 0.0508138 1 -3 -3 
5709 5 0.327908 0.985681 0.0123609 -5 -1 -1 
8916 6 0.419032 0.0128365 0.0503111 1 4 5 
6547 6 0.396829 0.012008 0.0342617 -1 -6 2 
7505 5 0.430096 0.981021 0.0146305 4 -6 4 
8307 5 0.697951 0.0298213 0.0263839 -3 5 0 
5751 5 0.505046 0.0423159 0.0381482 -9 -3 0 
7532 5 0.977177 0.0431043 0.0325371 -6 1 -5 
8942 6 0.635217 0.0941367 0.0338043 4 -1 0 
8250 6 0.703261 0.0956385 0.0739545 7 3 1 
8278 5 0.753331 0.0894499 0.01554 8 6 4 
8808 6 0.40772 0.131369 0.0638213 4 5 1 
5717 5 0.982033 0.132948 0.0386481 0 0 1 
5189 5 0.424236 0.117749 0.0167639 3 3 -1 
8324 5 0.598238 0.125845 0.0137181 -6 -1 9 
5910 6 0.863703 0.119548 0.0282414 -5 -1 -5 
7507 5 0.155889 0.199798 0.0114662 -6 -3 5 
6741 5 0.947633 0.19467 0.0164386 -2 -4 -1 
7951 6 0.844359 0.197856 0.0548416 2 2 6 
8047 6 0.654861 0.242167 0.0554456 -5 -6 0 
6852 6 0.937429 0.223397 0.0279205 -1 -4 -1 
5263 6 0.132868 0.221253 0.039845 9 -2 -5 
8366 5 0.666915 0.215682 0.0263019 -1 2 -4 
6616 5 0.113483 0.268809 0.0272449 4 -2 8 
5702 5 0.902438 0.263896 0.0411489 10 5 1 
8931 5 0.28789 0.282175 0.0118921 -2 5 0 
8561 5 0.728878 0.280646 0.0905018 -2 1 -2 
7194 6 0.00842441 0.293597 0.0289074 5 -6 10 
5130 6 0.850883 0.339063 0.0522508 6 -1 -5 
5299 6 0.0110971 0.305929 0.0379723 -4 8 3 
8473 5 0.067134 0.33613 0.0296128 8 5 1 
5072 6 0.464909 0.321071 0.0265279 8 9 -11 
8045 5 0.093944 0.351666 0.0371156 1 0 -6 
8643 6 0.592535 0.362306 0.00123679 6 -1 -1 
8832 6 0.00904701 0.383755 0.0310317 7 -1 -6 
5881 5 0.245673 0.4186 0.0536062 4 -5 3 
7252 5 0.0918757 0.401968 0.0449185 -2 1 3 
6410 6 0.301911 0.424128 0.0245043 -3 1 1 
7838 5 0.332862 0.45244 0.0762794 3 -3 4 
6185 5 0.959493 0.473585 0.00541226 3 4 5 
8224 5 0.305905 0.493481 0.0120566 7 9 4 
6607 6 0.688078 0.480815 0.00826654 -11 -2 3 
8417 6 0.0248042 0.520718 0.0662962 -3 3 1 
7739 6 0.241756 0.520897 0.997373 2 8 1 
7653 6 0.903087 0.546069 0.0685372 -1 2 -1 
8839 5 0.492386 0.50528 0.0465776 8 2 2 
8598 5 0.469307 0.542685 0.0626254 -3 3 5 
7309 6 0.819363 0.508254 0.0481565 1 -4 -3 
6350 5 0.24524 0.548746 0.00790712 -5 -3 -4 
6101 5 0.263567 0.567478 0.0622359 2 -2 -2 
8091 6 0.558414 0.515341 0.992705 -1 -4 5 
6092 6 0.239524 0.571992 0.0897435 0 -3 -5 
7141 5 0.850051 0.564054 0.0300408 0 4 -3 
8959 5 0.277619 0.617994 0.08112 -5 14 14 
8452 6 0.470681 0.57182 0.0427022 0 8 6 
5404 6 0.0743857 0.695825 0.00161451 10 -2 9 
8376 6 0.456532 0.632189 0.0140701 2 2 4 
6080 5 0.536713 0.586135 0.04624 -4 10 1 
5431 6 0.901498 0.629126 0.0320755 2 7 3 
6889 5 0.987432 0.629844 0.0392124 5 -9 2 
8232 6 0.69837 0.664412 0.0376581 1 -5 3 
6448 5 0.586596 0.648299 0.044222 2 2 1 
6303 6 0.392862 0.649911 0.0613622 -3 -7 -2 
8175 5 0.245509 0.735303 0.0486895 4 -4 11 
7528 6 0.571281 0.687178 0.0688171 2 -7 -1 
5348 5 0.974006 0.700484 0.0173581 -14 3 5 
5108 5 0.223018 0.756955 0.0797588 4 0 0 
8312 5 0.946271 0.730763 0.0459051 -6 -6 -3 
6491 6 0.652599 0.791703 0.03173 -3 -2 1 
5267 6 0.100697 0.763225 0.0397575 4 -5 4 
7275 5 0.807806 0.741162 0.997968 4 8 -3 
8267 6 0.576516 0.799007 0.0280057 -7 0 -7 
8302 6 0.683376 0.788363 0.0299289 2 -5 1 
8484 6 0.161877 0.809424 0.0335508 6 2 -2 
7053 5 0.404778 0.853166 0.0425584 6 -6 6 
8681 6 0.46646 0.834291 0.0397851 7 -4 2 
5714 6 0.731492 0.843898 0.0396435 -1 -1 0 
8206 6 0.297752 0.879263 0.0327839 1 -6 -3 
6463 5 0.481001 0.884785 0.0158626 -2 0 2 
7959 5 0.97937 0.938881 0.0331062 -3 5 10 
5556 6 0.0911856 0.964784 0.0375102 -5 -3 0 
5975 6 0.537428 0.95756 0.0519199 -2 -2 8 
6805 6 0.398948 0.984177 0.0401856 7 0 -4 
6207 6 0.231821 0.000915327 0.050394 2 9 -3 
8615 5 0.408747 0.0531787 0.0216334 -3 0 1 
7359 6 0.313255 0.0512033 0.00353499 2 -5 5 
6975 6 0.582753 0.0853325 0.0178349 7 0 5 
8549 6 0.0643478 0.0503703 0.0502285 -2 0 2 
6475 5 0.133853 0.0791385 0.0632882 -2 6 8 
6437 6 0.504057 0.0249721 0.0184432 4 6 8 
7727 5 0.367718 0.0972699 0.0376223 -7 0 -2 
7643 6 0.355349 0.13671 0.0768291 3 -7 12 
7612 5 0.843083 0.11998 0.0830756 6 -8 -4 
6537 6 0.439632 0.136757 0.0694794 -2 1 1 
7555 5 0.401099 0.155388 0.0629712 -5 7 0 
8108 6 0.365057 0.175544 0.0516982 1 1 4 
7059 6 0.0223923 0.195636 0.0912164 -3 -6 2 
7892 6 0.204166 0.209513 0.0445069 -9 1 2 
5225 5 0.765918 0.15062 0.0494634 -1 -3 1 
7034 5 0.960641 0.163896 0.0937794 2 -3 1 
5319 5 0.98675 0.247006 0.0643565 -5 1 0 
7283 6 0.110602 0.239265 0.0304879 2 3 -1 
5495 5 0.75822 0.223011 0.0667854 0 -5 4 
7088 6 0.696866 0.245381 0.0815399 -4 6 3 
8012 6 0.448328 0.25338 0.0789095 3 3 6 
8468 6 0.538212 0.254313 0.0771376 4 0 -3 
7191 6 0.851934 0.272421 0.0660428 -6 2 2 
6153 6 0.198855 0.311809 0.0562366 3 3 -1 
6830 5 0.302054 0.316505 0.106091 -6 5 3 
6894 6 0.643451 0.338196 0.0645495 -4 2 0 
5262 6 0.72938 0.324199 0.00940522 -2 -14 -2 
8526 5 0.893202 0.27351 0.0650556 -5 10 0 
8573 5 0.955664 0.341171 0.067102 3 -1 -5 
7956 6 0.221942 0.376603 0.071901 -1 -2 12 
7815 6 0.381498 0.350056 0.0331964 0 -2 -2 
5198 5 0.117133 0.365833 0.0570677 2 5 -1 
7439 5 0.489969 0.349533 0.0605316 -2 8 -2 
5470 6 0.807064 0.413395 0.0907682 1 1 4 
6072 6 0.465493 0.394969 0.0460918 8 -6 -2 
6036 5 0.829586 0.363428 0.0312518 7 4 -1 
7200 5 0.284502 0.39407 0.0643027 -3 2 -1 
8158 6 0.615915 0.44549 0.0631455 -4 -5 -4 
8574 5 0.917588 0.433902 0.046229 -1 1 -2 
5025 5 0.00921144 0.473062 0.0389317 -3 6 3 
6312 6 0.490764 0.418612 0.0441039 7 2 3 
6652 5 0.516951 0.468584 0.0606563 6 4 -3 
7681 6 0.289141 0.491246 0.0692174 -8 6 -1 
7049 5 0.487076 0.463333 0.0761296 5 1 -2 
5309 6 0.867811 0.540061 0.0809955 3 -4 0 
5475 5 0.218218 0.530273 0.0650606 1 4 2 
6331 6 0.368844 0.551108 0.0829342 -3 -2 -6 
5889 6 0.750225 0.498662 0.065891 -1 0 3 
6424 6 0.217169 0.572407 0.0219885 -5 -3 -2 
5151 6 0.0257677 0.571922 0.0528972 6 -4 -3 
7729 6 0.069916 0.585302 0.0535167 9 -8 -2 
5749 6 0.583345 0.579896 0.035718 1 -1 3 
6538 6 0.374759 0.589053 0.0681209 -3 -5 1 
8716 6 0.538049 0.602644 0.067687 9 7 0 
6098 6 0.888091 0.603307 0.0164423 -5 3 2 
5716 6 0.285409 0.610849 0.0534262 5 -1 -4 
7999 6 0.793296 0.608797 0.076823 4 -5 -2 
7697 5 0.0422093 0.652913 0.016302 2 -1 4 
7816 5 0.368545 0.66826 0.0450171 3 4 1 
5822 6 0.783966 0.692074 0.04468 -4 -1 2 
8595 5 0.866344 0.708328 0.0713973 -4 -2 0 
6017 6 0.28171 0.712202 0.0372136 -2 -12 3 
7964 6 0.332793 0.779145 0.050318 -1 4 -4 
7312 6 0.335497 0.74993 0.0656696 1 -2 9 
8168 6 0.550638 0.755226 0.0871472 1 -6 5 
7156 5 0.592546 0.745303 0.0177521 -5 -1 8 
8441 6 0.883515 0.758431 0.0662591 -1 1 2 
6125 5 0.160458 0.745048 0.0617696 4 -7 -11 
8490 6 0.206896 0.75312 0.0666463 -7 2 3 
6103 5 0.341396 0.739781 0.0255009 -1 8 2 
8430 6 0.784547 0.747518 0.0550784 4 1 -4 
8575 6 0.584259 0.810896 0.0300506 1 0 2 
7344 6 0.774544 0.739047 0.0365678 -2 2 10 
6545 5 0.331179 0.829762 0.0480765 3 0 -1 
7868 5 0.588743 0.844991 0.0345122 -1 -5 8 
8924 5 0.545889 0.841505 0.0609346 -5 1 4 
5648 6 0.183877 0.852886 0.0577206 -2 -5 3 
5656 5 0.160544 0.838536 0.0830317 -7 -3 1 
6415 6 0.489765 0.843198 0.0332029 1 6 -1 
6373 5 0.717031 0.842769 0.0395551 3 -5 10 
8726 5 0.30568 0.854893 0.0671721 -3 0 -1 
6225 6 0.475304 0.859789 0.0656504 -6 -2 -1 
6030 6 0.848807 0.893509 0.077948 -3 -11 -4 
7421 6 0.889769 0.89298 0.0495937 -1 -1 6 
8041 6 0.316828 0.923256 0.0940071 2 -9 1 
5287 5 0.598051 0.943346 0.0637232 3 -9 -3 
8870 6 0.734566 0.92571 0.0961978 2 7 4 
8006 5 0.49925 0.967369 0.0393381 -4 -4 -7 
5859 5 0.717061 0.933653 0.0318405 2 -4 5 
6479 6 0.929128 0.926323 0.0439003 -1 8 3 
5562 5 0.409739 0.933707 0.0322162 0 2 -1 
7112 6 0.64843 0.990541 0.0743337 2 7 -3 
7132 6 0.986826 0.979523 0.0127293 -1 0 -5 
7171 5 0.533585 0.977495 0.025296 -7 1 -11 
7121 6 0.583813 0.00329567 0.0686093 11 -7 4 
8541 5 0.908736 0.0271975 0.0830064 1 7 3 
8827 5 0.579956 0.0121761 0.0564338 0 -4 3 
6551 5 0.0846824 0.0196661 0.0672555 -2 0 -7 
6594 6 0.961351 0.0756645 0.0761024 1 -5 5 
8966 6 0.049099 0.112377 0.0603255 2 -5 -6 
5681 6 0.759777 0.132956 0.0775947 1 -6 -1 
7678 5 0.287585 0.119703 0.0689842 3 2 -5 
8878 5 0.357407 0.122888 0.0766719 0 4 2 
5226 5 0.127212 0.209406 0.0819609 -7 -1 1 
7111 6 0.182143 0.236692 0.10126 1 3 0 
5359 5 0.974692 0.178691 0.058908 5 -4 0 
7862 6 0.498681 0.209874 0.101465 -8 6 1 
7552 5 0.50139 0.212946 0.108877 -2 -6 3 
5960 6 0.612417 0.205332 0.0949047 -6 4 1 
8987 6 0.486899 0.253504 0.0998818 1 0 10 
8436 5 0.591773 0.277772 0.114236 -3 1 -3 
8442 6 0.342878 0.285545 0.0727903 -2 0 -6 
8189 5 0.38901 0.274002 0.118757 -6 4 7 
8381 5 0.0793665 0.282372 0.0925616 8 2 8 
6246 5 0.150298 0.287758 0.0874905 4 -1 4 
6866 6 0.713711 0.38344 0.111993 0 0 3 
8288 5 0.865921 0.291205 0.0822198 4 -6 7 
7072 5 0.804883 0.36429 0.0728734 1 1 1 
6226 5 0.36023 0.355908 0.055762 -7 1 -3 
6771 6 0.802028 0.342553 0.0847673 -6 -3 0 
6078 6 0.955228 0.404593 0.0366399 -10 2 1 
8695 6 0.177718 0.45713 0.0948697 0 -1 2 
5833 6 0.341439 0.478294 0.0494006 -3 -4 8 
8568 6 0.870867 0.396083 0.102003 3 -3 2 
5789 5 0.964622 0.4128 0.0516439 -7 -1 3 
6434 5 0.0643641 0.444769 0.0580327 -9 2 -3 
6270 6 0.0759452 0.47384 0.0852392 -4 -1 -3 
6288 6 0.359077 0.483734 0.0728492 0 6 8 
5689 6 0.417842 0.441936 0.0985305 5 -2 -2 
6666 6 0.624151 0.47298 0.0590347 7 0 -1 
7457 5 0.0417297 0.456402 0.0706497 4 -3 -5 
5992 5 0.486227 0.500653 0.0785703 1 2 -5 
5131 6 0.711951 0.476215 0.0840598 -11 3 4 
6523 5 0.554435 0.484886 0.0847265 1 -2 8 
8100 6 0.794987 0.511939 0.0561859 4 2 -7 
7628 6 0.391492 0.519648 0.0509981 -2 1 3 
6304 6 0.515639 0.560646 0.0422084 -7 7 -3 
7559 5 0.0516838 0.619274 0.0668238 -2 7 -1 
8234 6 0.13553 0.618305 0.0757002 -6 0 4 
8214 5 0.528932 0.630891 0.0978832 1 0 -3 
8815 6 0.732385 0.604151 0.119419 -5 3 -7 
8593 6 0.815654 0.651977 0.0673973 -1 -3 3 
6649 6 0.250253 0.616898 0.0602845 1 5 -2 
8099 6 0.317485 0.655149 0.109698 2 -4 -5 
7779 6 0.389601 0.616552 0.0834444 8 3 -2 
8084 5 0.920496 0.629686 0.0727316 0 -5 3 
7089 5 0.505742 0.68399 0.0674365 -5 -3 1 
6183 6 0.889532 0.691583 0.0974292 1 3 -1 
7162 6 0.0224275 0.683032 0.0834977 -4 -1 -2 
7165 6 0.169514 0.687573 0.114551 -1 -1 -3 
7947 5 0.233681 0.715123 0.0831384 6 -8 -8 
7960 5 0.574157 0.703901 0.0690869 1 4 3 
5030 6 0.95258 0.684458 0.0977059 -3 1 0 
7975 6 0.0972766 0.67078 0.0655087 -1 6 0 
7550 6 0.15904 0.704813 0.0971536 3 -6 3 
7071 6 0.276188 0.733202 0.0875664 8 -5 -1 
7441 5 0.00224627 0.748278 0.0858134 5 -5 -1 
5283 6 0.21285 0.752286 0.0897819 -3 1 3 
5525 5 0.301769 0.731535 0.0807227 -2 -4 -6 
6324 5 0.676309 0.720402 0.0687557 -5 -3 -7 
6285 5 0.12511 0.79328 0.0761253 -4 8 7 
6296 5 0.371262 0.828096 0.0724639 3 -7 -1 
6690 5 0.812445 0.821938 0.0809082 -8 5 0 
6751 5 0.997471 0.776051 0.0711 4 0 -4 
7557 5 0.143543 0.821232 0.0954595 1 5 8 
6220 5 0.290582 0.893223 0.100596 -1 1 7 
7431 5 0.649707 0.886577 0.125586 -3 -2 -6 
7790 5 0.65102 0.867803 0.0549705 -2 -4 0 
8611 5 0.501714 0.884403 0.0872838 7 -2 1 
6897 5 0.120167 0.905462 0.0993089 -1 1 -5 
5836 5 0.181352 0.921697 0.0197663 -3 2 -2 
7318 6 0.623459 0.961711 0.059106 -6 0 -3 
6938 6 0.564133 0.898659 0.0564061 3 0 6 
6346 6 0.763369 0.934298 0.119561 -13 -8 -1 
8142 6 0.831832 0.92188 0.0427819 3 -10 7 
6483 5 0.0165448 0.943939 0.0864614 -6 -2 -4 
8063 6 0.467395 0.959935 0.112232 4 9 0 
8249 5 0.627666 0.949878 0.081184 3 3 2 
8793 5 0.771598 0.949697 0.074223 -4 3 2 
7774 5 0.858706 0.937751 0.113864 -2 6 1 
6872 6 0.225033 0.986307 0.094827 0 -2 0 
5965 6 0.800054 0.992428 0.124013 3 -3 9 
7942 5 0.172489 0.0189215 0.0862304 0 -2 1 
5042 6 0.154246 0.0387083 0.108434 -4 5 0 
8024 5 0.00891259 0.0901784 0.10119 2 6 4 
7294 5 0.390306 0.0575011 0.134636 0 -1 -1 
8551 5 0.626741 0.0826354 0.0945714 0 -6 7 
5507 5 0.832025 0.0920462 0.086451 1 7 -2 
5560 5 0.904172 0.088185 0.152333 -4 -2 -6 
8030 5 0.205697 0.116485 0.113447 -2 0 1 
7969 6 0.440627 0.116478 0.0734567 0 -1 -5 
5497 5 0.352614 0.161489 0.108201 2 4 9 
6201 6 0.439559 0.146178 0.0925405 5 4 1 
5447 6 0.0223004 0.147086 0.0914338 5 6 1 
5421 5 0.715256 0.241189 0.118213 -1 3 -7 
8731 5 0.90776 0.206783 0.116035 -2 4 2 
8152 6 0.245058 0.225705 0.12184 -2 -8 11 
6542 6 0.24955 0.223503 0.114674 -2 12 5 
7786 5 0.366682 0.258965 0.126217 -3 0 7 
6488 6 0.517015 0.281356 0.078212 -4 -4 -1 
8200 5 0.261986 0.311067 0.11949 3 -1 1 
5666 6 0.445201 0.28533 0.124594 -3 11 0 
6863 5 0.491848 0.304078 0.107405 1 1 -1 
5688 6 0.809948 0.277571 0.0941106 0 2 1 
6642 6 0.745357 0.294171 0.108966 -4 -8 -8 
7257 5 0.762835 0.281952 0.0810124 -4 -3 2 
5632 6 0.536576 0.324198 0.10641 2 0 2 
5258 6 0.983006 0.332519 0.0986827 -1 1 -5 
8741 6 0.80005 0.354294 0.0617287 -2 2 -3 
6945 6 0.973274 0.358838 0.105336 4 1 -4 
7051 6 0.0123557 0.370842 0.0977917 -6 2 -4 
6143 6 0.577953 0.345758 0.0859694 6 -6 2 
7652 6 0.846012 0.363173 0.127474 3 -3 -4 
6487 6 0.986475 0.378331 0.115098 3 -4 3 
6832 6 0.525388 0.400035 0.0712496 3 2 -4 
5099 6 0.197682 0.436193 0.1263 -1 5 -8 
5015 6 0.176727 0.464954 0.125473 -1 4 1 
7330 5 0.477005 0.451529 0.13026 -6 9 -3 
7629 6 0.164978 0.464699 0.0968926 2 -4 -1 
6152 5 0.303988 0.482807 0.129741 -4 0 -1 
7031 5 0.731827 0.438023 0.138188 -2 7 6 
7382 5 0.802363 0.439119 0.1092 -2 -4 2 
6856 6 0.0378094 0.476119 0.0885942 1 1 4 
5574 6 0.466657 0.472717 0.0876767 -7 3 -5 
8135 5 0.990389 0.455867 0.0730466 5 0 -4 
5733 5 0.143872 0.517161 0.128391 4 -8 4 
8700 6 0.575014 0.509873 0.0658078 -2 2 -4 
7106 6 0.365986 0.555676 0.129405 -1 -4 4 
6980 6 0.417903 0.521729 0.0896842 6 -2 -7 
7345 6 0.52428 0.523556 0.141199 -3 -7 2 
5890 5 0.0324734 0.535419 0.0958021 1 7 5 
6572 5 0.0448443 0.576509 0.113398 -2 -5 5 
8589 5 0.283133 0.570127 0.0943407 -4 4 6 
6273 5 0.319418 0.557543 0.119603 1 -8 0 
7452 5 0.71824 0.567437 0.11403 4 -5 4 
5229 6 0.516168 0.564365 0.115125 19 -1 -2 
7832 5 0.680774 0.587353 0.107179 6 -2 1 
5752 6 0.862262 0.63277 0.13298 -2 0 -6 
5543 5 0.881877 0.629465 0.105449 -2 2 -2 
7695 5 0.273443 0.657837 0.0990223 6 -7 6 
8103 6 0.275501 0.623395 0.131609 4 -1 -2 
5145 5 0.427012 0.633588 0.0940023 7 -1 -5 
6182 6 0.950751 0.624302 0.0665629 5 1 4 
7876 5 0.923976 0.645791 0.104077 -9 -9 1 
6719 5 0.180018 0.653973 0.0831601 -10 -1 9 
5911 6 0.12396 0.685511 0.105686 4 -4 3 
5163 6 0.436751 0.695043 0.0784547 1 5 3 
6486 6 0.516439 0.694258 0.0938793 -10 2 7 
7974 5 0.475834 0.703065 0.111737 0 -5 5 
7498 6 0.518094 0.742493 0.13266 -5 1 -5 
8315 6 0.0265306 0.736475 0.0857848 -7 -1 -3 
6991 5 0.158444 0.771505 0.0962081 10 -6 -3 
8758 5 0.111769 0.7372 0.0971585 4 -6 6 
8244 5 0.090934 0.77164 0.113074 -6 -6 9 
6675 6 0.223962 0.809171 0.151701 -6 -3 -3 
5457 5 0.800436 0.845761 0.110584 2 10 1 
7206 5 0.728729 0.820284 0.112565 1 3 2 
8854 5 0.558746 0.859021 0.118772 -7 -8 -7 
5715 5 0.604309 0.874391 0.0806067 12 1 1 
5710 6 0.674526 0.877438 0.125119 2 3 -2 
7004 6 0.115774 0.957623 0.116847 4 -5 -1 
8940 6 0.988712 0.927683 0.0736415 -4 7 1 
7993 5 0.125445 0.992071 0.104901 -1 -2 -1 
5660 5 0.525381 0.936936 0.0816733 -8 5 5 
7237 6 0.932765 0.912811 0.0887888 -3 -8 4 
6561 5 0.11017 0.999289 0.0842536 1 -1 -1 
5429 5 0.164446 0.990581 0.0968035 1 -6 10 
6636 5 0.397264 0.964219 0.0898728 -3 2 5 
5496 5 0.449746 0.981618 0.0874136 -4 -9 2 
6935 6 0.545562 0.960434 0.103167 4 -4 7 
7506 5 0.440918 0.960507 0.0960202 8 2 -3 
8894 6 0.274224 0.017472 0.141224 2 4 3 
8193 6 0.410764 0.0120418 0.109178 5 4 -3 
6309 5 0.600861 0.98942 0.124422 -3 -9 7 
7351 5 0.791786 0.00826128 0.141253 2 3 3 
5940 5 0.469723 0.0379827 0.105375 2 -3 9 
5456 5 0.229903 0.0870015 0.14367 3 0 -4 
5550 5 0.595277 0.0941002 0.139354 -1 -2 3 
7888 6 0.173196 0.128221 0.147804 -7 3 4 
8439 5 0.537697 0.17442 0.134027 -3 -5 5 
7846 5 0.490179 0.135558 0.132326 4 0 -1 
5024 5 0.978496 0.160963 0.119107 0 10 9 
5972 6 0.00174593 0.152822 0.131757 -1 4 3 
7777 5 0.471155 0.155616 0.14882 1 -3 0 
5074 6 0.456419 0.204004 0.121692 0 5 7 
7761 6 0.441227 0.193226 0.113323 6 -12 0 
7123 6 0.523377 0.187752 0.101542 -2 2 -4 
8934 6 0.9395 0.246557 0.0530309 3 -2 1 
5524 6 0.411937 0.251497 0.134729 -9 -5 0 
7011 5 0.734437 0.238333 0.142267 0 -4 9 
7169 6 0.317762 0.256674 0.106387 -1 -2 0 
6050 5 0.462621 0.309362 0.121931 9 -3 2 
5669 5 0.56912 0.24937 0.0727057 -6 -3 -3 
8469 5 0.0870995 0.276146 0.127414 5 0 -6 
8074 5 0.826772 0.291904 0.130011 3 -2 3 
8897 5 0.231575 0.286149 0.128384 2 -2 -6 
6033 6 0.34064 0.312665 0.155163 -5 -3 -3 
5369 6 0.577621 0.355502 0.107047 -2 0 -6 
8254 6 0.752439 0.358576 0.108715 9 6 8 
5368 5 0.0304174 0.353856 0.111947 -5 1 8 
7808 5 0.506777 0.397838 0.113588 3 4 1 
5467 6 0.378511 0.382292 0.151183 -3 -6 4 
7821 6 0.231755 0.41983 0.151498 4 0 -4 
6816 5 0.768278 0.43748 0.12776 -1 4 2 
5695 6 0.906804 0.409221 0.10152 -1 -7 8 
8576 6 0.537219 0.460066 0.125101 -5 -8 -2 
7081 6 0.59299 0.452288 0.117042 -3 -5 2 
8044 5 0.303439 0.46312 0.127141 -4 4 6 
7086 5 0.161214 0.510247 0.102422 0 -1 -6 
8449 6 0.177252 0.505169 0.128244 1 -4 1 
6790 6 0.0604403 0.488858 0.135194 1 -6 -2 
5869 6 0.537784 0.531603 0.0742391 3 -6 -5 
7522 6 0.722377 0.543827 0.0953506 -3 -2 -3 
5122 5 0.389934 0.524083 0.121358 -11 -5 -4 
7456 5 0.64546 0.56649 0.138202 1 -3 9 
5240 6 0.924058 0.644227 0.122564 -3 4 6 
8956 5 0.949846 0.607182 0.12232 0 2 -2 
6927 6 0.581766 0.636371 0.130179 5 -5 -5 
5837 5 0.358594 0.639282 0.1166 -1 -7 1 
7381 5 0.197861 0.682471 0.121467 0 -1 -1 
5542 5 0.260425 0.699507 0.128657 1 4 -1 
6388 5 0.439063 0.701485 0.109559 0 -8 0 
5437 5 0.994571 0.71455 0.126568 -2 -1 1 
5004 5 0.0577506 0.724837 0.13612 1 4 10 
6233 5 0.109239 0.686585 0.112799 8 3 -7 
5302 6 0.732773 0.732508 0.134765 -3 -5 -13 
8688 6 0.831716 0.735591 0.133726 -4 -6 1 
8728 6 0.93244 0.712555 0.103393 2 -6 6 
6144 5 0.260108 0.755078 0.135249 8 2 -2 
5400 6 0.517412 0.742164 0.114793 4 -4 5 
7636 5 0.490697 0.804298 0.0952787 10 -7 -3 
5984 5 0.521515 0.792951 0.116178 -2 -4 5 
7568 6 0.630216 0.847698 0.100033 -3 2 5 
7511 5 0.763607 0.790304 0.114731 -2 3 0 
5952 6 0.412471 0.81995 0.113209 -2 1 -3 
8105 5 0.441439 0.848526 0.146318 -5 -3 7 
7269 6 0.0115616 0.843509 0.141972 -1 4 1 
6022 5 0.148063 0.907515 0.109629 -5 -5 0 
5398 6 0.402091 0.882606 0.140932 -1 -1 2 
6885 6 0.446525 0.828741 0.121895 -4 -8 -1 
8116 5 0.657802 0.863754 0.105645 2 -5 0 
6838 6 0.644931 0.864758 0.119386 -8 -3 -3 
5812 6 0.719222 0.852789 0.152355 1 -2 8 
6263 5 0.0177095 0.8868 0.128858 6 2 7 
6939 5 0.275586 0.917039 0.161492 -2 1 7 
6313 5 0.0244861 0.88404 0.11431 0 -6 -2 
6587 5 0.099598 0.929599 0.137762 -2 0 -3 
5577 5 0.665157 0.901084 0.101129 -7 -4 -7 
8297 6 0.814006 0.924191 0.110719 0 -1 3 
6197 6 0.907596 0.917766 0.117997 -5 8 -1 
6235 5 0.110071 0.942531 0.1074 7 -3 2 
8217 5 0.218273 0.928293 0.0921716 9 4 4 
7451 5 0.888693 0.914595 0.108135 -1 1 -7 
5428 5 0.170637 0.993491 0.128324 -6 -4 0 
6799 5 0.237961 0.951172 0.135285 7 6 -6 
6122 6 0.385277 0.0413232 0.165476 -4 3 -6 
5083 6 0.410687 0.0364156 0.145482 1 0 6 
7649 5 0.374863 0.0698265 0.166278 11 -5 1 
5143 5 0.608462 0.037385 0.120456 3 -4 -10 
8086 5 0.106365 0.0795388 0.164876 2 9 0 
5392 6 0.478603 0.118315 0.155518 3 5 -7 
8604 5 0.094868 0.0833196 0.13665 -3 3 -1 
8458 6 0.46362 0.0741024 0.119454 -3 5 -4 
5768 6 0.629765 0.117779 0.132473 4 8 4 
7499 6 0.368858 0.134261 0.157455 8 6 2 
6957 6 0.166795 0.136639 0.145242 2 -3 6 
8749 5 0.323688 0.149658 0.156506 -4 -2 1 
6484 6 0.717148 0.172737 0.138841 1 1 11 
5425 6 0.76037 0.118295 0.135224 1 1 -6 
8865 6 0.814818 0.148548 0.130864 4 1 0 
7831 6 0.163927 0.15403 0.188119 0 4 -7 
6777 5 0.178409 0.144879 0.119601 -3 0 5 
5505 5 0.31605 0.208472 0.104246 -6 1 -1 
8434 5 0.720961 0.152832 0.164009 -1 -1 5 
8742 5 0.642164 0.221519 0.140415 5 1 -6 
6108 5 0.777074 0.221494 0.136767 3 -3 0 
7818 5 0.108295 0.240796 0.140856 -3 -9 7 
8631 5 0.952611 0.204197 0.155828 1 4 0 
8208 5 0.170195 0.235506 0.168147 -1 -3 -3 
7842 6 0.798519 0.291538 0.150176 -4 1 -8 
8089 6 0.0340127 0.31073 0.132765 2 4 2 
6367 6 0.609512 0.291815 0.137874 -2 -4 1 
7535 6 0.279059 0.33393 0.172001 1 1 -6 
7730 5 0.754113 0.3475 0.155458 -1 -1 3 
5931 6 0.745106 0.3132 0.157454 -8 2 5 
6833 6 0.896584 0.334149 0.147502 -4 0 -8 
8386 5 0.182563 0.361382 0.149467 8 -3 -4 
7066 6 0.93326 0.380292 0.134295 2 6 -1 
8482 5 0.0344419 0.374108 0.142798 -1 9 -7 
7150 5 0.422385 0.369705 0.140982 -15 2 6 
5044 5 0.11216 0.381532 0.180823 2 6 -2 
7967 6 0.562784 0.407015 0.151946 0 3 -1 
5440 5 0.812584 0.400525 0.141093 -4 8 -4 
8223 5 0.618172 0.42726 0.128501 -4 -9 0 
7805 6 0.355099 0.433542 0.13833 0 0 -2 
8382 5 0.503079 0.468582 0.137698 6 -3 -1 
5120 5 0.959427 0.418656 0.122075 -4 -1 -2 
7260 6 0.239489 0.536071 0.107378 -4 5 0 
8330 5 0.486852 0.458535 0.148628 3 -6 10 
5461 6 0.662971 0.492296 0.134975 2 -1 -2 
5711 6 0.718076 0.507279 0.166177 -6 -9 -5 
8092 5 0.739782 0.496104 0.153036 -5 1 -6 
7598 5 0.312002 0.55567 0.167219 -3 11 -3 
8594 6 0.308619 0.522335 0.151007 -2 -5 11 
7843 6 0.473021 0.545225 0.143299 -9 -9 5 
7785 6 0.0376423 0.550311 0.174643 3 4 -7 
8639 6 0.727009 0.529034 0.143038 -1 -2 -10 
5772 6 0.598718 0.587613 0.160253 -6 -12 -4 
5341 5 0.731221 0.553021 0.16532 3 -2 2 
8499 6 0.914843 0.62039 0.143618 -2 3 4 
7310 5 0.0853729 0.683112 0.160383 -5 -7 4 
6764 6 0.578939 0.653233 0.138237 -7 6 -4 
7231 6 0.648943 0.662467 0.13414 -6 -8 0 
7978 6 0.470055 0.673296 0.115088 1 1 1 
5866 6 0.981675 0.735224 0.132284 -1 0 -4 
5739 6 0.736276 0.752644 0.105929 6 -1 6 
6585 5 0.801355 0.667507 0.147962 6 -4 0 
8026 6 0.828719 0.735481 0.199568 -2 4 -7 
7455 6 0.972556 0.705186 0.126199 -5 5 5 
8081 6 0.189441 0.702512 0.11239 -7 1 2 
5692 6 0.546603 0.716479 0.114144 -4 1 2 
7115 5 0.879709 0.746822 0.142229 -6 1 0 
8552 6 0.336911 0.760193 0.145001 9 7 -3 
7371 5 0.452075 0.84577 0.15203 4 -4 -3 
6194 5 0.627209 0.757687 0.169661 2 -5 -8 
8221 6 0.646143 0.798252 0.114697 0 -3 1 
7869 6 0.616646 0.808555 0.156466 3 2 0 
7881 6 0.771888 0.824273 0.149167 1 -9 -1 
8104 6 0.755778 0.81806 0.137042 2 -1 2 
6019 5 0.889053 0.769932 0.168866 3 -10 7 
6407 6 0.0626016 0.86313 0.143188 4 -1 -5 
8184 5 0.0748441 0.834126 0.170351 -5 -3 -3 
6880 5 0.150692 0.904579 0.16824 0 -5 -4 
8402 6 0.962807 0.905826 0.125268 3 -5 1 
7879 5 0.414229 0.940562 0.132428 -1 -7 0 
8715 5 0.121123 0.971292 0.119636 2 4 6 
5040 5 0.261267 0.973679 0.115967 5 -8 6 
6384 6 0.864415 0.980883 0.144332 -3 -6 -2 
8182 5 0.145878 0.995702 0.147492 -1 1 -3 
7098 6 0.990724 0.0347843 0.187794 4 -7 -2 
6134 5 0.0394191 0.0719188 0.168781 4 8 3 
6895 5 0.312319 0.986468 0.227657 -2 1 3 
7607 6 0.323835 0.040731 0.164352 -4 4 3 
7363 6 0.683489 0.998219 0.182835 9 -3 4 
6761 6 0.27997 0.0421427 0.14697 -3 -7 0 
5390 5 0.908322 0.0544644 0.167146 3 6 -5 
5655 6 0.275435 0.0786404 0.181886 -6 -2 0 
7782 5 0.78625 0.101094 0.207389 2 8 0 
6639 5 0.210523 0.129447 0.161598 4 -1 0 
6958 6 0.971939 0.123618 0.179286 1 8 -4 
5454 6 0.721533 0.178325 0.164153 -1 10 3 
6954 5 0.95277 0.17258 0.155478 -7 -2 2 
6521 5 0.566773 0.158583 0.200696 5 -1 2 
7175 5 0.620541 0.194599 0.127103 1 -7 0 
8036 6 0.736971 0.168162 0.190371 -4 4 0 
8901 6 0.341767 0.18867 0.187786 -8 7 10 
8362 6 0.844128 0.217313 0.184246 8 11 -2 
6184 6 0.773889 0.213571 0.16411 0 8 3 
6114 5 0.745969 0.210252 0.184324 1 0 2 
7667 5 0.793175 0.213666 0.192223 3 7 1 
6676 5 0.52834 0.244729 0.185248 3 -2 -2 
5539 5 0.594713 0.230194 0.161612 4 -4 -3 
7295 6 0.949493 0.254309 0.177909 0 0 -4 
5109 6 0.0641266 0.26021 0.189696 -3 -2 0 
7517 6 0.473293 0.254435 0.175273 0 7 -3 
7609 5 0.715366 0.234433 0.182512 1 10 7 
7709 5 0.907126 0.265563 0.166978 -1 3 0 
7627 5 0.110638 0.279842 0.143459 8 1 -5 
8464 6 0.472305 0.277173 0.199106 4 -4 8 
8506 5 0.886984 0.366806 0.165521 -1 -6 9 
6739 6 0.971456 0.355971 0.147582 -4 -1 -6 
6684 5 0.0738331 0.370787 0.181956 2 2 6 
8255 6 0.457965 0.348977 0.190555 2 -11 4 
6803 5 0.520819 0.333903 0.173576 -2 1 -5 
8825 5 0.331788 0.345969 0.170826 -6 5 -1 
8087 5 0.327528 0.417744 0.181629 -4 3 3 
7784 6 0.162861 0.396673 0.150502 -6 -9 4 
7618 5 0.342309 0.420009 0.183061 1 -12 4 
8459 5 0.497383 0.385513 0.163963 7 6 4 
6412 6 0.313789 0.435828 0.17767 -3 4 11 
6784 6 0.640903 0.431263 0.151157 2 2 -6 
5868 6 0.0591592 0.4606 0.133887 1 1 10 
8094 5 0.332454 0.495637 0.142792 -3 -1 -8 
6553 6 0.518686 0.433574 0.118585 1 5 -2 
8822 5 0.719186 0.402993 0.144501 -4 5 5 
6919 6 0.709196 0.462069 0.150708 -1 7 9 
8937 5 0.196244 0.472257 0.193265 -5 -2 -2 
5472 6 0.280021 0.473503 0.180475 -1 -3 3 
6216 6 0.392279 0.485011 0.151199 0 1 9 
5845 5 0.42158 0.478433 0.186166 2 -4 -2 
8169 5 0.626943 0.457642 0.151608 2 2 1 
6204 6 0.456416 0.53363 0.204877 -4 4 -1 
6605 5 0.608786 0.483562 0.18444 3 -2 -3 
6360 6 0.926951 0.474386 0.207248 3 4 2 
7765 6 0.349693 0.503902 0.119378 -3 1 2 
6271 6 0.815595 0.591159 0.179457 6 -2 -2 
8209 5 0.0223186 0.628569 0.136262 3 -9 4 
5323 6 0.133488 0.559588 0.14501 3 1 6 
5498 6 0.773929 0.612073 0.11089 5 -1 -6 
8275 5 0.00890718 0.564754 0.161406 -1 -2 -5 
8270 5 0.444693 0.576148 0.1621 6 5 2 
6752 5 0.49471 0.587827 0.204245 -4 -4 3 
5729 5 0.792763 0.58351 0.170872 2 -3 4 
6680 6 0.924411 0.566556 0.150738 -3 -3 -8 
7768 5 0.306044 0.606706 0.175462 6 6 2 
7239 6 0.817424 0.593778 0.188092 -3 1 -3 
7509 6 0.659173 0.649992 0.2033 1 -3 2 
7976 6 0.362658 0.712467 0.163023 -4 -1 2 
8463 6 0.650038 0.686239 0.13908 4 -2 3 
8971 5 0.296132 0.706636 0.171379 -1 1 3 
5165 6 0.760131 0.666251 0.16614 -11 3 3 
7494 6 0.0838581 0.749987 0.147435 6 1 5 
7440 5 0.112304 0.755643 0.167577 4 -6 10 
7569 5 0.251119 0.738929 0.14068 1 -3 5 
5018 5 0.350964 0.743235 0.137045 -4 -3 -7 
8185 6 0.532771 0.781304 0.179196 5 1 2 
5286 6 0.652476 0.805927 0.187602 1 5 3 
8903 6 0.778021 0.73485 0.190126 1 -1 -1 
7217 6 0.138771 0.72378 0.1586 5 2 0 
6343 5 0.621017 0.800196 0.177162 -3 0 -4 