ITEM: TIMESTEP
20000000
ITEM: NUMBER OF ATOMS
9000
ITEM: BOX BOUNDS pp pp pp
-75 75
-75 75
-75 75
ITEM: ATOMS id type xs ys zs ix iy iz 
5400 6 0.516979 0.98125 0.0256594 -1 2 -5 
6061 5 0.827232 0.974329 0.00821796 -1 -1 1 
5990 6 0.0661118 0.0329559 0.0569487 -2 3 5 
6054 6 0.0982139 0.0497474 0.0033244 2 2 -3 
5481 5 0.648483 0.0481272 0.967734 -3 0 0 
6695 5 0.436006 0.0323939 0.0192545 4 -2 -4 
5443 5 0.348557 0.0849982 0.0191428 0 3 1 
7388 6 0.95151 0.152131 0.0506528 1 0 3 
8472 5 0.885929 0.137305 0.979658 -3 -4 1 
5479 5 0.779312 0.181729 0.0382107 -4 -5 2 
5863 6 0.33546 0.194631 0.00968032 0 0 -2 
6142 6 0.412562 0.231087 0.0161085 3 4 4 
7483 6 0.289814 0.197628 0.0124502 4 2 4 
6303 6 0.338815 0.240089 0.0189569 2 1 1 
5565 5 0.551155 0.222865 0.00407321 -2 -2 8 
6554 5 0.701499 0.253562 0.0150009 -3 0 0 
5584 6 0.909315 0.257322 0.0523142 -1 1 1 
8786 5 0.146223 0.306076 0.986311 -2 3 -2 
5247 6 0.923308 0.281342 0.00379666 7 -3 -1 
7521 5 0.0876198 0.315296 0.00421306 -3 -1 2 
8329 6 0.790693 0.33074 0.00475841 0 -2 1 
5414 6 0.422266 0.355123 0.00650234 1 3 -1 
6508 6 0.140107 0.360903 0.0432125 3 1 3 
6306 6 0.330778 0.41618 0.046777 -5 2 5 
6267 5 0.439531 0.304621 0.99766 -2 4 1 
5779 5 0.610482 0.337832 0.0016983 0 -1 -1 
7049 6 0.709723 0.366001 0.00737159 1 -4 4 
5307 5 0.341185 0.396259 0.0153291 -3 6 3 
8079 5 0.427502 0.393831 0.00787372 2 -3 2 
6941 6 0.492882 0.381906 0.0449622 -3 0 -1 
7497 5 0.667884 0.382576 0.983404 -3 -1 -3 
5905 5 0.851635 0.428034 0.0282154 -2 -1 2 
6739 5 0.163248 0.434115 0.0639495 5 0 3 
5412 6 0.0568583 0.450339 0.0124861 -5 0 4 
6045 5 0.113172 0.449364 0.0257593 -3 0 0 
7128 6 0.3195 0.427814 0.00116084 1 -7 7 
6504 6 0.368038 0.466728 0.0202659 0 4 3 
5202 5 0.810394 0.476218 0.0545656 -2 1 3 
6542 5 0.257992 0.491068 0.986255 0 5 2 
5824 6 0.478492 0.49583 0.00376931 -1 -1 -3 
6252 6 0.781606 0.505898 0.0288281 -2 -4 1 
5670 5 0.592922 0.533667 0.0137658 -7 3 3 
8187 6 0.190581 0.569636 0.0270909 0 -3 -1 
7698 5 0.82268 0.554439 0.0267385 -2 9 2 
7936 5 0.386106 0.629438 0.0212569 0 -1 3 
7355 6 0.341139 0.620445 0.0114298 2 0 0 
8906 6 0.476104 0.612887 0.995685 -2 -1 2 
7858 5 0.456249 0.622646 0.0194006 3 2 -3 
6962 5 0.405974 0.670726 0.966593 -4 -2 3 
5907 6 0.838051 0.665372 0.0251108 5 3 -1 
8081 5 0.467055 0.665109 0.9967 -1 2 3 
8748 6 0.0895367 0.722298 0.0355015 7 0 2 
5284 6 0.107242 0.744614 0.984612 2 -1 -2 
7481 6 0.703961 0.765655 0.018138 1 1 -1 
6461 5 0.00727717 0.8379 0.955991 2 -4 3 
7662 6 0.133281 0.804076 0.0145236 -1 -1 -5 
8899 5 0.142174 0.81146 0.014023 -2 -2 -4 
6331 5 0.433911 0.824922 0.994997 5 -6 -2 
8768 6 0.605458 0.800321 0.00287265 0 4 -1 
7813 5 0.736465 0.796638 0.984124 -3 -6 0 
6519 6 0.863673 0.847644 0.0255999 -3 0 0 
5032 6 0.0406014 0.820033 0.02579 2 -2 3 
5086 6 0.457473 0.838363 0.0154432 0 2 2 
6696 6 0.946894 0.821042 0.0696385 1 -1 0 
7515 6 0.3263 0.864297 0.984927 -4 0 2 
5043 5 0.29348 0.871701 0.0178575 -2 -4 0 
5585 5 0.0183735 0.884327 0.034123 2 -1 3 
8379 5 0.872401 0.918729 0.0141252 -4 -1 4 
8868 5 0.860453 0.856461 0.0345564 -2 5 1 
8214 6 0.00256885 0.971511 0.987969 0 -1 5 
5859 6 0.120072 0.947603 0.0163485 -1 -3 -4 
8523 5 0.340569 0.000598394 0.00664235 -4 -2 0 
8069 5 0.0826112 0.990482 0.0252889 0 -3 -4 
5289 5 0.58886 0.0287103 0.0298776 -6 5 3 
8382 5 0.541308 0.0483199 0.0421834 6 0 -3 
5861 5 0.0364612 0.0323851 0.0332013 -5 8 0 
8041 5 0.214345 0.0639488 0.0441693 -2 0 2 
6581 5 0.767301 0.04235 0.043541 -5 0 1 
6937 5 0.950352 0.077445 0.0575668 -1 10 2 
8818 5 0.592718 0.0576529 0.00884936 -3 -4 2 
7893 6 0.0560769 0.129213 0.0546841 3 0 -1 
8638 6 0.974054 0.195471 0.0322346 -3 -1 2 
7888 6 0.846079 0.236705 0.0133504 1 4 -5 
8613 5 0.139865 0.249988 0.0507312 -1 1 -2 
7489 6 0.0292765 0.249901 0.0395377 -3 -3 4 
5357 6 0.12044 0.278839 0.0653336 -4 2 -4 
7220 6 0.214253 0.255939 0.0356139 -4 3 0 
8934 5 0.829135 0.27714 0.0641957 0 -3 7 
8796 5 0.0409437 0.249985 0.00902204 0 6 4 
6109 5 0.62032 0.283952 0.0170574 -3 -2 -2 
6961 5 0.22909 0.321452 0.0635348 -2 -5 3 
7097 5 0.788817 0.295265 0.0385915 4 -3 3 
5301 5 0.851455 0.323837 0.0482573 2 -2 -1 
8105 5 0.982777 0.329294 0.0397828 -1 -4 2 
7538 6 0.344168 0.352583 0.0317204 4 -3 1 
8446 6 0.797655 0.388805 0.0126529 1 1 2 
7193 6 0.02151 0.416621 0.0227987 3 2 1 
7331 6 0.0207679 0.467677 0.0494291 -1 -1 5 
7668 6 0.0918182 0.420601 0.0130952 -4 0 2 
8756 6 0.501601 0.427398 0.047835 -3 -5 1 
8423 5 0.624827 0.415153 0.978169 1 1 -1 
8158 5 0.175149 0.446532 0.0143709 5 2 1 
8224 6 0.657221 0.502617 0.0664156 0 3 -1 
5383 6 0.224254 0.538357 0.0571993 -7 3 -1 
6393 6 0.223951 0.555935 0.0392892 2 3 -1 
5224 6 0.567617 0.534723 0.0571318 -1 2 0 
5655 6 0.880659 0.517912 0.0242924 2 -2 0 
8107 5 0.0837711 0.557604 0.0393044 0 3 7 
8951 5 0.0369434 0.599887 0.0392191 -2 2 4 
5371 6 0.420898 0.5772 0.0535788 -1 -4 -1 
5140 5 0.812555 0.591398 0.0149346 -2 5 2 
6964 6 0.521233 0.613382 0.00095596 2 2 0 
8932 5 0.86698 0.593604 0.0686956 0 -1 0 
5265 5 0.0621093 0.634165 0.0386538 2 0 0 
5342 5 0.494158 0.64635 -0.00319671 -2 0 -3 
6510 5 0.812845 0.646454 0.043499 1 2 -1 
6389 6 0.283959 0.693437 0.0115413 1 2 1 
7892 6 0.846005 0.701426 0.0535877 5 -1 2 
7208 5 0.440573 0.714944 0.029715 3 -1 5 
5351 5 0.421731 0.718038 0.0703366 -4 3 0 
6702 5 0.0210098 0.742843 0.0342978 -1 2 0 
7661 6 0.374386 0.70606 0.0309744 3 3 3 
6745 6 0.647009 0.690955 0.0684397 -2 1 1 
8753 6 0.650719 0.736077 0.0195527 2 -2 3 
8163 6 0.866677 0.697563 0.0171085 1 0 2 
8658 5 0.0101601 0.720039 0.0427285 3 5 2 
7170 6 0.107382 0.750744 0.0554778 -1 1 -2 
7134 5 0.210727 0.734764 0.00635334 3 3 3 
5005 6 0.469207 0.738101 0.0238596 -2 3 1 
7442 6 0.167656 0.747059 0.0656488 2 3 0 
5856 5 0.740951 0.77228 0.0294808 0 3 6 
7122 6 0.942995 0.821281 0.0919571 -2 2 -1 
7335 5 0.623225 0.802936 0.0234742 -3 -3 0 
5868 6 0.478915 0.785186 0.0315156 2 -2 3 
5928 5 0.588629 0.819557 0.0328044 0 -2 1 
8666 6 0.798784 0.802973 0.0612562 -1 2 0 
7001 5 0.0908595 0.876254 0.0414054 -1 1 4 
7453 6 0.245491 0.850603 0.0713183 4 -1 0 
8884 6 0.143303 0.919075 0.0623887 0 2 6 
8886 6 0.225515 0.839185 0.0486775 3 -4 -1 
7704 6 0.0494915 0.916545 0.0388151 0 0 -1 
8124 5 0.748868 0.839656 0.0585084 0 -1 -1 
6732 5 0.913725 0.901658 0.0650122 -3 4 -4 
7812 6 0.00207302 0.881926 0.0229987 -4 -3 -2 
6425 6 0.425711 0.92619 0.052629 0 0 2 
7198 6 0.930788 0.92118 0.987421 -3 2 -2 
6181 5 0.990351 0.884043 0.0630124 4 -2 5 
7902 5 0.764058 0.955913 0.00948071 1 6 -2 
7151 6 0.846554 0.971239 0.02414 0 3 4 
7833 5 0.996339 0.94521 0.0229341 3 -1 0 
6748 5 0.822161 0.00596884 0.0522509 0 -2 4 
8689 5 0.908391 0.993784 0.0551141 4 2 0 
8710 6 0.416864 0.0064595 0.0301861 -1 1 1 
6374 6 0.231228 0.0344479 0.0827664 2 4 1 
7896 6 0.239841 0.0318002 0.0251506 -2 4 -1 
7249 5 0.437424 0.0590141 0.052054 1 -3 -3 
8377 6 0.763784 0.0757323 0.0618699 -1 1 2 
8522 6 0.84197 0.00347958 0.996745 5 1 -4 
6359 5 0.384691 0.0339292 0.111562 5 -7 2 
6537 5 0.690801 0.029155 0.0625017 0 1 0 
6540 6 0.618291 0.0605597 0.0694298 1 3 3 
6747 6 0.282631 0.0769306 0.0304969 5 0 2 
5341 6 0.363591 0.103126 0.0593646 -1 1 -3 
8567 5 0.757461 0.075071 0.0824164 2 1 -1 
7357 6 0.45458 0.168359 0.037491 0 1 1 
8092 5 0.533744 0.101373 0.0407822 -6 2 2 
5531 5 0.137512 0.15079 0.07258 -3 0 1 
6837 5 0.768956 0.135153 0.0683174 -1 0 -2 
7238 6 0.92383 0.210207 0.0348834 -7 -1 -4 
6800 5 0.986967 0.20588 0.0541682 3 0 -1 
8721 6 0.807763 0.209881 0.0301277 0 4 -2 
6847 5 0.539214 0.291431 0.0482634 -3 0 0 
5230 6 0.922165 0.252636 0.0672154 -5 -3 4 
7460 5 0.587437 0.266664 0.0564895 0 5 -3 
5879 6 0.225429 0.286127 0.0171709 4 3 1 
5583 5 0.392333 0.301042 0.0479277 -2 3 1 
7732 6 0.9989 0.302317 0.025307 -9 0 1 
7556 6 0.626741 0.322297 0.0286629 0 -1 0 
5571 6 0.839197 0.289797 0.0149503 -8 -2 -1 
7030 5 0.573588 0.405412 0.0952369 0 0 -4 
7739 5 0.766717 0.403758 0.0440581 -4 -2 0 
8265 5 0.106328 0.413571 0.0503054 5 1 1 
8775 5 0.242301 0.42956 0.0826766 -2 -4 4 
6557 6 0.671398 0.477048 0.0249829 2 4 -3 
6988 5 0.916025 0.473502 0.0449691 1 0 2 
7596 5 0.146823 0.49153 0.0637259 -1 -4 2 
5049 6 0.23372 0.490951 0.0572887 1 -2 1 
6902 5 0.963179 0.486854 0.0459769 5 0 6 
7755 5 0.0602108 0.49612 0.0458082 2 1 -3 
6694 5 0.129137 0.5244 0.062576 -1 1 1 
6826 6 0.539855 0.538488 0.0802334 -3 1 1 
7094 5 0.667811 0.551511 0.0478784 -2 -4 2 
8683 6 0.113773 0.573504 0.0832291 2 1 -1 
6301 6 0.997117 0.615394 0.0772904 -2 -7 0 
6992 6 0.214885 0.570719 0.0572791 0 0 5 
7539 6 0.510157 0.621935 0.0309998 -3 1 1 
5677 6 0.594122 0.6052 0.0669588 0 2 1 
7756 6 0.796799 0.635467 0.0681361 -1 2 1 
6296 5 0.719199 0.577072 0.0506298 4 -2 -5 
6320 6 0.0105905 0.632647 0.0763395 5 -5 1 
7218 5 0.151359 0.651437 0.0770255 -1 -1 7 
8813 5 0.489852 0.650162 0.0615614 -5 3 -3 
7942 6 0.573051 0.647944 0.0387574 2 3 -4 
7983 5 0.10937 0.71322 0.0195535 -2 -1 -3 
7718 6 0.423686 0.71969 0.0841606 1 -3 -2 
5845 6 0.976027 0.744842 0.0598507 -1 4 5 
5222 5 0.826283 0.717295 0.0536507 1 -3 3 
5946 6 0.994517 0.783507 0.0556885 0 -3 -3 
5602 6 0.0550424 0.764436 0.060996 -2 2 3 
8125 6 0.527786 0.750302 0.0391266 0 -5 -3 
5989 5 0.387565 0.791726 0.0306175 1 1 1 
8202 5 0.493199 0.808054 0.0425996 -6 2 4 
7965 6 0.645523 0.820545 0.0823787 -6 -3 0 
8024 5 0.923865 0.85383 0.0243822 1 5 -3 
7878 6 0.612275 0.830335 0.0311911 1 -1 -1 
6565 5 0.00572373 0.84108 0.0423494 3 6 4 
5841 5 0.449203 0.851116 0.0200559 -1 1 2 
6041 5 0.880682 0.906332 0.0971188 1 2 0 
6117 6 0.951089 0.888973 0.0184402 0 0 1 
5858 5 0.0919271 0.886696 0.0635729 2 5 4 
8436 6 0.674985 0.891732 0.00876877 0 2 4 
7566 5 0.186881 0.990674 0.0501563 -2 -3 1 
8954 5 0.383466 0.945559 0.0268891 2 6 -3 
7337 6 0.794158 0.962758 0.0535449 2 0 5 
8155 6 0.0688585 0.989887 0.0478132 -3 1 2 
5264 6 0.25148 0.00528394 0.0496574 2 0 2 
8972 5 0.330396 0.979983 0.0456438 -1 1 -3 
6698 5 0.901172 0.00319915 0.0559229 0 0 1 
6789 6 0.930859 0.026362 0.0774757 3 1 -2 
5888 6 0.68497 0.0526535 0.0400856 -5 0 5 
7681 6 0.265293 0.066287 0.0757385 5 1 0 
5073 5 0.818545 0.0180671 0.0671025 1 2 -2 
7880 6 0.227313 0.0564281 0.0374775 -4 -2 2 
7573 6 0.118654 0.0842915 0.0874301 6 -1 1 
7927 5 0.116258 0.0990623 0.0661332 3 -1 -3 
5718 5 0.277148 0.134719 0.0522946 -1 -1 1 
7366 6 0.40617 0.165326 0.0679915 -3 -3 -2 
5924 6 0.564601 0.113218 0.102791 2 -1 0 
7204 5 0.253211 0.143901 0.0981884 -1 -4 -2 
8859 5 0.641377 0.157497 0.0734685 7 4 3 
8864 6 0.793538 0.157447 0.0812394 5 -1 2 
6561 6 0.702689 0.180405 0.089722 0 -4 -2 
5093 6 0.238978 0.201952 0.0957412 -3 2 1 
8931 5 0.300381 0.18492 0.0608952 2 2 0 
7815 6 0.952783 0.216129 0.0883129 1 3 5 
5074 5 0.490919 0.259671 0.0944217 -4 0 -3 
8797 6 0.345798 0.243157 0.0613488 1 -2 3 
5862 5 0.88028 0.26977 0.0760529 -5 -4 -3 
5771 5 0.946033 0.210318 0.0822493 -3 2 0 
5616 5 0.973412 0.271481 0.0945405 3 4 1 
8025 5 0.0931274 0.277232 0.0768254 -4 0 1 
8318 5 0.525333 0.253441 0.0543529 -2 2 -2 
6311 6 0.802972 0.323795 0.0918033 1 -4 10 
7677 5 0.287839 0.307224 0.0940091 1 -4 3 
6810 6 0.341812 0.338643 0.124264 5 0 1 
7760 6 0.812091 0.339995 0.0915233 -4 -1 1 
7577 6 0.797469 0.350749 0.0883898 1 1 1 
7115 6 0.380644 0.387754 0.0553266 -1 0 1 
8977 6 0.4046 0.356535 0.067202 -3 -1 1 
7646 5 0.696369 0.365042 0.0884739 -5 3 0 
6000 6 0.0413826 0.450147 0.109164 -1 2 2 
5117 5 0.0711652 0.391177 0.0464012 -1 1 3 
8520 6 0.0539364 0.461073 0.0613309 2 1 -1 
8008 6 0.0605074 0.445808 0.105397 4 4 -1 
7805 6 0.258923 0.40923 0.0611923 -1 -2 -4 
8670 5 0.366204 0.440178 0.0891255 1 -4 -6 
8924 5 0.406106 0.40025 0.11902 -2 3 0 
6024 5 0.480715 0.398834 0.0924927 -2 -3 0 
6986 5 0.927042 0.416916 0.0506097 -3 4 0 
6930 6 0.524017 0.452296 0.0698564 1 4 1 
6579 5 0.595467 0.43964 0.0999784 1 3 2 
8234 6 0.893568 0.431645 0.118997 0 -3 -7 
5615 6 0.0126276 0.47262 0.0374818 3 -1 -3 
5055 5 0.820956 0.521789 0.115776 2 0 2 
5832 6 0.518469 0.50734 0.104701 -3 -1 0 
7017 6 0.196823 0.514861 0.097051 -3 -2 -1 
7156 6 0.352591 0.521717 0.0787949 3 4 -3 
7741 6 0.38849 0.549369 0.0824696 -1 -5 3 
7644 5 0.0136019 0.543541 0.0899538 2 0 -2 
7626 5 0.196293 0.523773 0.0875224 10 1 0 
6300 5 0.367767 0.553164 0.0861212 -2 3 2 
5920 6 0.53801 0.544646 0.0842248 0 3 1 
6470 6 0.16309 0.560303 0.0501938 -2 -3 0 
8042 6 0.501659 0.524953 0.0556661 2 -1 -1 
5604 6 0.0503661 0.638857 0.0886527 -2 4 2 
6367 5 0.000884665 0.636876 0.0448123 2 -1 -1 
6062 6 0.926611 0.593 0.0676839 -2 -1 2 
6857 5 0.0298292 0.653858 0.076488 -5 -4 -1 
7133 5 0.388583 0.656257 0.0615436 1 1 0 
5572 6 0.421577 0.683061 0.117857 3 -1 2 
5781 6 0.601579 0.639929 0.0618205 5 -5 -7 
8921 5 0.0174751 0.695033 0.108452 -3 -1 0 
5075 6 0.438164 0.609457 0.0682306 -3 1 0 
5094 5 0.527201 0.721495 0.0549694 1 0 -2 
5304 6 0.747144 0.65685 0.0889279 0 1 -2 
8719 5 0.797483 0.750947 0.0719679 -5 1 2 
5536 6 0.295049 0.807693 0.0716706 -1 1 -5 
7444 5 0.742965 0.788051 0.0531763 -1 4 -7 
6514 6 0.754845 0.805449 0.0514148 0 -1 2 
6676 6 0.921641 0.794894 0.0985721 -1 5 2 
7347 6 0.540828 0.813018 0.110861 2 3 1 
8505 6 0.501297 0.823626 0.0545384 0 -3 -1 
8795 5 0.326058 0.841951 0.066619 -4 -2 3 
8850 5 0.405766 0.835917 0.10329 5 3 -1 
6132 5 0.201078 0.910746 0.0798993 1 -2 -3 
6952 6 0.255148 0.911881 0.0730913 -5 0 -3 
6970 5 0.910703 0.873695 0.078093 0 3 -2 
6025 5 0.16723 0.945327 0.0831998 -2 -4 3 
7643 6 0.2245 0.891115 0.0957299 -2 -4 -2 
5658 6 0.35923 0.94903 0.0460318 -4 2 -3 
8319 6 0.516301 0.9192 0.0543384 2 -2 -3 
5029 5 0.428362 0.946778 0.0456237 2 -2 1 
6600 5 0.0590883 0.00816361 0.0762964 -1 1 6 
6228 5 0.356475 0.00217335 0.0588895 0 0 4 
5933 5 0.605598 0.00798003 0.0834097 -1 4 2 
5967 5 0.853217 0.0287064 0.060169 2 -4 0 
8640 6 0.0747029 0.0503018 0.0964211 1 -1 0 
7992 6 0.0545155 0.0879048 0.104939 1 -3 -1 
5546 6 0.291434 0.0296207 0.10724 -4 2 -1 
7276 5 0.00839406 0.115546 0.0718468 1 0 1 
7114 5 0.451779 0.135596 0.107632 0 5 -5 
7306 6 0.771389 0.0895206 0.0802904 -5 6 2 
7164 5 0.173525 0.123311 0.128197 -2 1 2 
8159 5 0.360234 0.141735 0.105853 -3 -2 0 
6081 5 0.504812 0.148706 0.103546 -3 2 -2 
8398 6 0.348715 0.162612 0.119091 -1 -1 3 
8968 5 0.458315 0.116026 0.117346 1 5 7 
8743 6 0.827256 0.178646 0.138122 -2 1 0 
7736 5 0.8582 0.146215 0.115549 0 -2 -3 
6520 6 0.0128685 0.175865 0.101542 -1 -1 1 
6410 5 0.627912 0.229684 0.111182 -1 -4 1 
8117 6 0.891341 0.15053 0.0810373 -3 -3 -1 
6474 6 0.469513 0.192286 0.132425 -5 0 -4 
6687 5 0.866979 0.17771 0.119039 -4 2 -2 
8711 5 0.550258 0.193556 0.104135 1 4 2 
5338 5 0.0759325 0.224378 0.155758 1 -2 2 
7028 6 0.567115 0.224061 0.0901922 2 1 4 
8418 6 0.709382 0.265651 0.104121 2 -4 1 
6105 5 0.69363 0.223779 0.0862271 2 0 -1 
5659 6 0.209774 0.295935 0.116101 3 2 -5 
5883 6 0.320947 0.270855 0.130929 0 0 1 
8863 5 0.351576 0.298912 0.100155 -6 3 0 
7263 6 0.975792 0.33529 0.0994115 2 1 0 
6858 6 0.254922 0.334848 0.0954801 -2 0 3 
6959 5 0.321632 0.358562 0.0857532 2 1 1 
5488 6 0.766402 0.352894 0.116885 -9 3 0 
7035 6 0.451692 0.377504 0.121934 -4 -1 0 
5437 6 0.410233 0.383422 0.103129 4 -2 -1 
7569 6 0.391919 0.396912 0.118598 -1 0 4 
7037 6 0.291614 0.396207 0.0979558 -2 6 6 
8341 5 0.675229 0.426926 0.0964171 1 0 -1 
8696 5 0.370624 0.470493 0.146539 -5 1 1 
7229 5 0.874888 0.41152 0.160326 -4 0 0 
6785 6 0.48314 0.485688 0.102507 0 2 3 
5900 6 0.579124 0.521789 0.100498 4 1 -1 
5261 5 0.755448 0.454037 0.125974 2 -1 1 
7811 6 0.865274 0.481042 0.110723 0 1 -1 
7175 5 0.9192 0.465394 0.107684 2 1 3 
5103 6 0.655962 0.432118 0.0723453 -1 5 -5 
6110 6 0.737637 0.44176 0.12348 1 4 4 
6497 6 0.661014 0.509047 0.109239 4 2 3 
7884 6 0.966102 0.495665 0.0990088 4 -3 -1 
6234 6 0.405882 0.5067 0.0954376 -4 -1 1 
7937 6 0.658001 0.548109 0.0945325 6 1 1 
6360 6 0.00791662 0.545737 0.116178 -4 0 1 
8415 6 0.697715 0.571869 0.0750196 4 -2 -1 
6721 6 0.240574 0.600822 0.0904427 -2 1 3 
6057 6 0.653372 0.63222 0.0862298 0 1 1 
7083 6 0.752604 0.634036 0.106032 0 -3 0 
6935 6 0.98122 0.60027 0.0970901 1 2 1 
5758 5 0.0452482 0.665012 0.070741 3 1 -3 
7782 5 0.207405 0.646272 0.0950856 -3 -7 1 
5256 5 0.342677 0.650741 0.141851 1 1 -1 
6058 5 0.548468 0.645942 0.0836867 1 1 0 
8342 5 0.697656 0.660931 0.0831009 3 -2 -5 
8521 5 0.534099 0.643485 0.100761 5 1 0 
6517 6 0.195136 0.692652 0.129288 7 -2 1 
8559 6 0.218027 0.712044 0.0771444 3 2 0 
5233 6 0.202 0.713781 0.105528 1 3 1 
7464 6 0.614466 0.738024 0.0679277 -4 1 1 
5079 6 0.0577926 0.742273 0.0770606 1 1 -3 
5340 6 0.681549 0.761949 0.114109 0 1 2 
8229 5 0.578149 0.837944 0.103123 2 -1 -5 
7044 5 0.949235 0.845424 0.107795 0 2 -3 
5974 6 0.30576 0.880246 0.104168 -2 1 -1 
7102 6 0.425816 0.809852 0.127883 1 -3 0 
5937 5 0.956415 0.826485 0.109814 -2 0 7 
8029 6 0.409878 0.858532 0.0879709 3 -2 -3 
8372 6 0.52549 0.848067 0.0704594 1 -1 2 
5179 5 0.631074 0.847745 0.12801 -2 1 5 
8261 6 0.198466 0.936762 0.0711584 6 6 3 
6728 5 0.227448 0.898778 0.0896445 -4 -1 -4 
7602 6 0.582879 0.95046 0.075841 5 0 0 
7385 5 0.265915 0.950924 0.109279 2 -2 3 
7794 6 0.240517 0.00729002 0.122376 0 2 -1 
7192 6 0.825286 0.985102 0.0873233 -2 0 -6 
7371 5 0.224073 0.992344 0.0902172 1 0 1 
8371 6 0.88507 0.00607376 0.0907509 -2 6 -2 
8242 5 0.559863 0.0732528 0.141143 -2 1 4 
6479 6 0.680475 0.00507675 0.115546 -1 3 3 
5820 5 0.312732 0.0666244 0.112054 3 2 0 
7985 6 0.70349 0.0804909 0.114679 1 4 -3 
6835 6 0.79574 0.0171808 0.13027 1 0 2 
8588 5 0.550662 0.0936116 0.0949573 -3 4 0 
8337 6 0.474698 0.0571887 0.154025 -1 0 2 
6289 5 0.583834 0.0820491 0.129534 1 -1 -4 
7136 5 0.806811 0.0886402 0.0905946 -1 -3 4 
8196 5 0.951862 0.103769 0.0963555 5 -1 2 
6226 5 0.200488 0.182408 0.0980132 1 -4 -3 
6423 6 0.353939 0.141664 0.127977 2 1 1 
8668 6 0.320971 0.181695 0.127111 1 -1 0 
7682 6 0.339521 0.145075 0.128811 2 3 -2 
8608 6 0.257345 0.173721 0.145245 -2 -3 -1 
7112 5 0.393623 0.18113 0.13595 -3 3 1 
8955 5 0.686503 0.247131 0.103303 1 1 3 
6356 6 0.823408 0.215248 0.110499 -3 3 4 
5762 5 0.120173 0.228791 0.0849529 4 5 0 
6553 5 0.166072 0.236072 0.079088 -2 -9 -1 
5493 5 0.201387 0.252766 0.119993 -4 1 4 
5376 6 0.261028 0.222768 0.111185 4 -1 0 
6357 6 0.810673 0.209767 0.116847 0 2 0 
8544 6 0.65624 0.282964 0.135084 6 7 4 
5695 6 0.82479 0.247231 0.100238 1 1 1 
5782 5 0.826503 0.261561 0.104587 4 0 2 
7901 6 0.288128 0.318569 0.130389 -3 2 2 
5310 6 0.658068 0.281172 0.104616 2 -3 4 
8700 6 0.270375 0.358613 0.133665 -3 0 0 
6113 5 0.279621 0.298607 0.128618 -2 2 3 
7358 6 0.13293 0.338428 0.122587 -3 0 5 
8828 6 0.306432 0.38233 0.131001 -2 -2 3 
8093 6 0.653537 0.355776 0.0920125 -3 -1 -1 
8987 6 0.76078 0.381596 0.111683 3 -3 -1 
6471 6 0.42603 0.396742 0.137874 4 -6 5 
6786 6 0.491669 0.332947 0.13524 -1 1 1 
8275 5 0.0821055 0.394271 0.132546 5 -4 -1 
7971 5 0.048456 0.422629 0.127947 7 -4 -1 
7443 6 0.120754 0.431467 0.0729908 6 -3 -1 
6370 6 0.760456 0.436563 0.12626 -3 4 1 
5168 6 0.929864 0.504991 0.0794272 -2 -1 -4 
7258 6 0.829912 0.511989 0.135999 -4 4 1 
5235 5 0.201393 0.588465 0.155029 0 -7 0 
8531 5 0.353573 0.555804 0.14599 -10 -5 5 
5932 5 0.831624 0.572856 0.0778866 2 -1 -1 
5243 6 0.123316 0.598441 0.0957982 1 2 3 
5430 6 0.472377 0.542352 0.148041 -1 -1 4 
5916 6 0.447017 0.565316 0.136251 2 0 1 
7975 5 0.0570475 0.597367 0.136372 3 -3 -3 
6987 5 0.986776 0.584991 0.103403 -2 -1 -1 
7633 6 0.801528 0.607548 0.139783 -3 -3 1 
5800 6 0.0301448 0.637102 0.142908 4 -4 3 
7868 6 0.610475 0.658545 0.121221 4 0 -6 
7609 6 0.850425 0.652227 0.146263 -6 -3 0 
6689 5 0.979713 0.690672 0.123177 -4 6 3 
6488 5 0.192097 0.638721 0.131938 -1 3 5 
7046 6 0.536459 0.701249 0.130481 1 1 4 
7676 6 0.064886 0.707031 0.119845 -2 7 -2 
7634 5 0.333048 0.72872 0.132917 6 -4 0 
5981 5 0.520077 0.734723 0.142412 -1 0 -2 
6491 6 0.771522 0.754819 0.117684 -4 3 -3 
8999 5 0.0846648 0.737307 0.119333 0 4 3 
6659 6 0.130312 0.796802 0.135189 0 4 2 
8585 5 0.410139 0.754906 0.152022 5 4 -2 
7292 5 0.504769 0.774646 0.104902 3 -3 2 
7996 5 0.104811 0.789586 0.117983 2 -5 3 
8823 6 0.771736 0.766429 0.111699 3 -3 -2 
5354 5 0.785784 0.73953 0.131875 0 -2 1 
7963 5 0.763522 0.804639 0.110295 5 -3 1 
7116 5 0.47285 0.84897 0.127448 4 -1 -1 
5018 6 0.835644 0.784156 0.130954 3 -1 3 
6095 5 0.971707 0.833109 0.181881 -2 2 -3 
8842 6 0.741594 0.922637 0.110252 -2 -6 0 
8315 5 0.874141 0.905031 0.146194 2 -6 10 
5522 5 0.95042 0.920141 0.10767 -2 0 3 
6173 5 0.995078 0.879675 0.103086 -1 4 3 
7599 6 0.157192 0.89891 0.136154 2 -5 0 
7078 5 0.161524 0.940465 0.134104 -3 -1 0 
7579 6 0.804483 0.905585 0.105586 -1 -3 4 
8257 6 0.0397751 0.952306 0.115839 -2 0 0 
5362 5 0.441579 0.938396 0.118261 -1 3 -3 
5469 5 0.432153 0.915131 0.151221 3 -5 -3 
5450 6 0.572838 0.965136 0.137052 3 -2 5 
8263 6 0.89056 0.983764 0.114429 3 -2 -3 
7867 5 0.0704874 0.028494 0.168119 -1 -1 1 
7819 5 0.137461 0.0552062 0.150794 -1 0 -6 
7127 5 0.696413 0.0481407 0.171096 1 1 -2 
5884 5 0.526541 0.0457607 0.128257 -4 5 -1 
8673 5 0.0653097 0.0800305 0.153619 0 1 -1 
5216 5 0.552279 0.104187 0.129091 -4 4 -1 
6065 6 0.920838 0.146615 0.165953 3 1 0 
5534 6 0.92414 0.111394 0.175619 3 1 0 
7228 5 0.844865 0.139295 0.125673 -5 4 2 
5173 6 0.575334 0.13553 0.120565 1 0 0 
5121 6 0.0876535 0.185766 0.190351 -3 6 1 
5736 6 0.37491 0.164535 0.154337 -1 0 -1 
6412 6 0.389642 0.144326 0.129516 0 2 -2 
5460 5 0.810453 0.185491 0.140636 4 -1 -2 
6562 6 0.142413 0.186629 0.169316 2 6 1 
6338 5 0.643927 0.204433 0.162433 0 -1 -2 
8267 5 0.909324 0.194966 0.149739 1 1 2 
7797 6 0.947673 0.176086 0.11206 1 4 7 
5874 5 0.210226 0.22223 0.164838 0 6 0 
7282 5 0.340019 0.232324 0.129522 1 3 4 
6571 5 0.918147 0.238398 0.136376 -3 -3 -2 
5744 6 0.614623 0.231956 0.164127 5 -1 -5 
8477 6 0.564544 0.283624 0.168368 3 0 -1 
8233 5 0.965231 0.241635 0.1481 -7 -4 -1 
5291 6 0.164676 0.301776 0.13923 -4 4 -1 
8390 6 0.293879 0.28407 0.145559 1 0 3 
5317 6 0.388588 0.299724 0.134138 4 1 2 
8231 6 0.524307 0.265958 0.156921 -3 2 1 
6599 6 0.847566 0.314166 0.133811 -2 0 2 
6977 6 0.174916 0.369331 0.169706 3 1 -1 
8562 6 0.290052 0.362034 0.176417 -7 0 -5 
8138 5 0.381776 0.392048 0.165947 4 -3 3 
6878 6 0.0862639 0.373878 0.149412 3 3 0 
8037 5 0.707049 0.377578 0.157661 -5 -1 1 
6950 6 0.762444 0.432185 0.143561 -1 4 -4 
8910 6 0.776912 0.407902 0.127406 -3 2 -2 
8000 6 0.939002 0.425251 0.133012 -2 1 0 
7219 5 0.504574 0.449616 0.133649 0 1 -2 
7651 6 0.673301 0.531944 0.163246 0 -1 1 
6418 6 0.981624 0.518923 0.159654 -2 -4 0 
8189 6 0.32495 0.52709 0.175105 -7 -3 -3 
5755 5 0.259998 0.553532 0.165572 2 3 -10 
6162 6 0.36325 0.560096 0.173389 0 3 -1 
7953 5 0.951084 0.586832 0.140536 0 0 -1 
7403 5 0.368994 0.602452 0.136126 -7 1 2 
8412 5 0.720996 0.649516 0.11512 0 -2 4 
5780 5 0.520162 0.686707 0.173115 -1 -1 -3 
8182 5 0.996974 0.675252 0.0950532 -1 0 -2 
7303 6 0.353903 0.641628 0.147682 3 2 -2 
7647 6 0.544246 0.649365 0.157145 -4 3 -1 
7034 6 0.437972 0.712661 0.166597 -2 2 2 
8207 5 0.22138 0.702232 0.141264 1 0 6 
6340 6 0.306306 0.716374 0.139411 3 -2 -5 
8235 5 0.888287 0.709993 0.13358 1 -1 1 
6083 5 0.749447 0.69372 0.12729 1 1 1 
5843 5 0.15741 0.771406 0.162446 4 2 1 
5092 5 0.754617 0.753607 0.130841 -3 5 1 
8898 6 0.82872 0.792729 0.149035 2 -1 -1 
6420 6 0.836619 0.791578 0.1613 3 -1 7 
8034 5 0.888761 0.779014 0.144526 0 3 4 
7625 5 0.185755 0.852465 0.118172 -3 0 0 
7742 5 0.295304 0.831352 0.180025 2 1 0 
6325 5 0.344385 0.80135 0.0833068 0 2 0 
5599 6 0.693509 0.807601 0.164105 4 3 0 
7088 5 0.0816734 0.856305 0.127802 -1 -4 1 
7316 6 0.484282 0.844246 0.166999 1 4 0 
5704 6 0.283686 0.854659 0.182756 3 3 5 
6352 5 0.45397 0.893875 0.129208 6 3 2 
7066 5 0.607726 0.877708 0.151735 -4 3 0 
6688 5 0.71178 0.887748 0.139411 2 -1 -1 
6596 6 0.228158 0.884518 0.150417 -6 2 -2 
5249 6 0.242601 0.917532 0.185041 4 0 -5 
6159 5 0.691266 0.868934 0.127769 -2 -3 0 
7747 6 0.845658 0.895454 0.146431 1 2 4 
8455 6 0.204096 0.930327 0.126952 1 -1 -1 
7610 5 0.506192 0.945479 0.148103 2 0 -2 
7945 5 0.366511 0.904565 0.164022 2 -4 -1 
8026 6 0.449939 0.998081 0.185449 -3 4 -2 
6527 5 0.0214364 0.956373 0.138521 3 -3 -1 
6602 5 0.0878876 0.967656 0.140119 -2 1 -6 
5778 5 0.47152 0.977188 0.128296 1 -4 -1 
7592 6 0.0103092 0.967062 0.104325 -2 2 0 
6501 6 0.363231 0.00627157 0.167605 0 0 -2 
7473 6 0.659687 0.971067 0.137999 0 1 5 
5204 5 0.12362 0.0112011 0.193162 1 -1 4 
8671 6 0.338037 0.0103444 0.119106 -1 5 -1 
8826 6 0.602066 0.985811 0.160564 -3 0 0 
8682 5 0.421961 0.0240913 0.180751 -2 2 -2 
7448 6 0.688124 0.0146395 0.148687 -1 -4 4 
7929 5 0.276212 0.0639522 0.145549 -2 1 2 
5742 6 0.407295 0.0420789 0.131552 1 1 -4 
6037 6 0.734767 0.0640255 0.229327 0 -1 -3 
7153 6 0.268792 0.0774357 0.165457 -3 1 -3 
7588 6 0.92005 0.103778 0.19446 -5 1 -4 
7734 6 0.190585 0.112908 0.188497 3 -2 -1 
6283 6 0.325908 0.109309 0.198355 0 1 -2 
7139 5 0.419265 0.0951859 0.176397 2 4 5 
7976 5 0.560181 0.0793703 0.191924 3 4 -2 
7025 6 0.780093 0.107152 0.193502 4 6 1 
7981 5 0.986273 0.134444 0.161664 -1 -4 0 
6314 6 0.0789686 0.0922737 0.173106 1 -3 -3 
6426 5 0.033984 0.125674 0.135492 2 -5 2 
8007 6 0.101933 0.154023 0.151958 -6 2 1 
5947 5 0.486394 0.141291 0.160325 -1 4 -1 
6321 6 0.362169 0.1872 0.194551 2 -2 1 
6664 6 0.401289 0.176358 0.142447 1 2 6 
8274 5 0.60498 0.157141 0.188958 -1 0 2 
6414 6 0.434445 0.224272 0.160357 -2 0 4 
7158 5 0.566287 0.249219 0.152015 1 5 -3 
8659 5 0.999197 0.273525 0.196493 -1 1 4 
6146 6 0.197412 0.263446 0.167042 1 0 4 
5158 6 0.485657 0.29069 0.200711 -1 0 2 
7427 6 0.0273173 0.324946 0.166705 -2 -1 0 
7250 6 0.371663 0.288832 0.133419 2 1 -1 
5322 5 0.579503 0.296623 0.150609 7 -1 1 
5023 6 0.829218 0.337705 0.135808 -4 5 -2 
8452 6 0.0598472 0.313045 0.191691 -6 1 -2 
7387 6 0.13859 0.343972 0.172519 2 2 -4 
6681 5 0.819594 0.326017 0.165809 -4 0 0 
5620 6 0.887092 0.32005 0.120692 -3 -2 2 
5960 5 0.346039 0.313455 0.184147 1 -2 0 
5012 5 0.37568 0.344815 0.184922 -1 -1 1 
7600 6 0.443262 0.325314 0.209764 -2 2 2 
5517 5 0.283463 0.398288 0.136175 5 2 0 
6886 6 0.396769 0.442554 0.195547 3 1 2 
5374 5 0.633277 0.410716 0.206623 -2 -1 1 
8449 5 0.898242 0.397723 0.11543 0 1 1 
7959 6 0.603467 0.441311 0.15412 -8 -1 -7 
5428 6 0.293856 0.455685 0.195567 3 -1 3 
8532 5 0.00997872 0.434652 0.190562 1 2 -3 
7994 5 0.735944 0.480217 0.152977 -5 -1 5 
6991 5 0.812642 0.495142 0.196574 1 -1 -3 
5154 5 0.787404 0.501043 0.15681 -5 -1 0 
5355 6 0.233081 0.551208 0.183725 5 4 0 
5449 5 0.573729 0.546671 0.149853 0 5 -1 
5068 5 0.120662 0.570641 0.138623 1 -4 3 
7199 6 0.374164 0.574646 0.152979 0 -2 0 
5229 5 0.0913018 0.580957 0.135183 -1 -2 -5 
7692 6 0.129235 0.608883 0.159737 2 -2 0 
8012 5 0.605218 0.592496 0.196221 5 -2 0 
7190 6 0.767297 0.562477 0.151612 4 -5 7 
7173 6 0.44505 0.671643 0.182543 1 1 -1 
7875 5 0.955095 0.673721 0.154593 -1 4 1 
6229 6 0.0611169 0.612267 0.146407 0 4 6 
8543 6 0.0825464 0.681499 0.195167 2 -6 1 
7389 6 0.336562 0.698282 0.19992 2 0 2 
6836 5 0.928681 0.668518 0.164617 0 1 -1 
8843 5 0.24607 0.71771 0.134921 5 -4 1 
7372 6 0.318517 0.719106 0.157515 -1 -2 -1 
7840 5 0.614218 0.726278 0.190966 -2 -2 -4 
8821 6 0.0145429 0.72911 0.184028 0 -1 -2 
8605 5 0.376651 0.802285 0.162984 4 2 2 
8698 6 0.835636 0.776682 0.164391 3 0 2 
8960 5 0.203588 0.756808 0.186008 0 0 4 
7074 6 0.682577 0.760355 0.154665 -2 1 1 
7260 6 0.683126 0.774792 0.139077 1 1 -5 
5838 5 0.380889 0.822046 0.155906 2 2 0 
9000 6 0.650512 0.868418 0.171063 3 -1 -1 
7147 6 0.896711 0.848904 0.131791 1 -7 -4 
6668 6 0.957346 0.862822 0.166973 1 -1 -2 
8548 6 0.916769 0.852524 0.165369 -1 -1 1 
6922 5 0.292682 0.869641 0.185179 -2 0 -1 
5492 5 0.540556 0.876085 0.120416 0 1 -2 
5592 6 0.20498 0.938954 0.152023 4 4 6 
5217 5 0.579968 0.924114 0.176929 -2 -1 2 
8619 6 0.652934 0.9216 0.157026 -1 3 -1 
8144 6 0.0833297 0.923354 0.162716 4 1 -3 
7321 5 0.68858 0.945555 0.184426 4 -1 4 
5263 6 0.737293 0.0324926 0.186707 -1 4 0 
5733 5 0.388395 0.0341088 0.203244 8 -1 0 
8036 5 0.546661 0.0390965 0.216721 -3 2 -3 
6919 5 0.904613 0.00551407 0.195006 -4 -1 0 
6811 5 0.463923 0.0371615 0.185292 -2 3 3 
5939 5 0.493648 0.0217829 0.20312 0 0 -4 
6008 6 0.0767135 0.0687098 0.132865 0 1 0 
8170 6 0.515297 0.0745538 0.188321 -3 2 1 
5871 5 0.129508 0.10339 0.2222 -5 0 1 
5248 6 0.582531 0.0954335 0.166499 -3 1 -3 
6953 6 0.737533 0.0984946 0.202297 -2 7 -1 
6294 5 0.318594 0.0810963 0.237648 -4 -2 -2 
8296 5 0.591052 0.137487 0.184307 0 -3 -1 
8733 6 0.915464 0.0816447 0.190949 -2 -4 -4 
6147 5 0.112461 0.12192 0.210311 -2 -3 3 
5913 5 0.298855 0.156139 0.149909 0 -2 -4 
5422 6 0.420892 0.139791 0.251018 -2 3 -2 
8064 5 0.472951 0.178627 0.199627 0 -3 0 
5911 6 0.510052 0.135633 0.20774 3 -3 1 
5983 5 0.349736 0.212751 0.233169 -5 -1 -1 
5560 5 0.628731 0.229713 0.172268 -4 -1 -3 
7129 5 0.844451 0.223465 0.199193 4 1 -3 
5190 6 0.346098 0.256217 0.18609 1 4 0 
6068 6 0.288487 0.287117 0.240363 0 2 1 
7171 6 0.00923849 0.312477 0.195379 3 -1 1 
7635 6 0.00930265 0.387385 0.184175 5 -1 -1 
5031 5 0.513341 0.341403 0.168005 4 3 4 
5747 6 0.119016 0.373975 0.151386 1 -1 -1 
6672 5 0.449195 0.35319 0.213502 -2 -1 -2 
5220 5 0.972748 0.342309 0.181383 2 0 -3 
8391 5 0.713366 0.365384 0.234393 2 3 -2 
6485 6 0.885389 0.37295 0.194331 4 -4 0 
8052 5 0.427223 0.398374 0.18142 -5 0 5 
6775 5 0.734818 0.37949 0.22017 -5 1 5 
8601 5 0.236178 0.430497 0.231165 3 6 2 
7336 5 0.373388 0.451299 0.199891 3 2 1 
6538 6 0.993471 0.429405 0.161251 -1 -4 -3 
8724 5 0.455492 0.483197 0.190057 -1 2 0 
5309 5 0.0404891 0.47708 0.189126 3 -4 1 
6119 6 0.316963 0.466208 0.229988 0 2 2 
7537 6 0.0591173 0.501914 0.187932 -2 3 2 
6200 6 0.700318 0.487977 0.181006 -2 -7 5 
6710 6 0.639261 0.53835 0.209141 -2 4 -4 
8245 6 0.365556 0.60566 0.198985 -3 -3 -2 
7831 5 0.00669374 0.589178 0.16298 -3 3 0 
5139 6 0.0487005 0.684189 0.184202 -2 1 9 
8298 6 0.0440658 0.692064 0.184295 -1 -5 2 
8054 5 0.237764 0.686672 0.209501 -4 -2 -1 
5761 6 0.619068 0.686741 0.187071 0 0 -2 
6190 6 0.662974 0.719224 0.175213 -1 -4 4 