ITEM: TIMESTEP
20000000
ITEM: NUMBER OF ATOMS
9000
ITEM: BOX BOUNDS pp pp pp
-75 75
-75 75
-75 75
ITEM: ATOMS id type xs ys zs ix iy iz 
7499 5 0.349289 0.0321673 0.996604 -1 2 -3 
6363 5 0.684521 0.0283891 0.988018 0 0 -1 
6217 5 0.670719 0.0301434 0.0229945 -3 -2 1 
8654 6 0.0424713 0.0361145 0.03295 -2 6 1 
5776 5 0.16061 0.0668423 0.0128293 5 3 -3 
5145 6 0.0164326 0.0755641 0.0337441 -2 3 -2 
8153 6 0.261206 0.070687 0.0410558 3 0 0 
7517 6 0.872282 0.0920553 0.0147272 2 -3 3 
8170 6 0.0431741 0.115889 0.00630937 4 -4 2 
8995 6 0.249468 0.106494 0.00625346 -3 -2 -1 
8561 6 0.442069 0.115384 0.996199 -1 1 3 
7541 5 0.170297 0.161244 0.0145011 0 2 -1 
7764 6 0.518529 0.155529 0.015365 0 3 1 
5425 6 0.575534 0.142659 0.0389736 -4 3 -1 
8223 6 0.198494 0.218579 0.971491 -1 -6 0 
8481 6 0.31809 0.180128 0.0379528 -1 2 -3 
8253 5 0.467938 0.165264 0.995703 -2 -1 -1 
8019 6 0.650219 0.191424 0.0206375 2 1 -4 
6644 5 0.0423801 0.21335 0.983982 -3 2 -2 
7110 5 0.312993 0.191396 1.00043 -5 -3 3 
5284 5 0.902051 0.195645 0.971505 -1 1 -3 
5274 5 0.905498 0.236467 0.0238014 0 0 -1 
6458 6 0.871983 0.287187 0.974835 -7 -2 1 
6496 6 0.409566 0.231839 0.0193716 7 1 1 
8264 6 0.808538 0.27124 0.99668 0 4 2 
6974 5 0.368097 0.300618 0.0028572 -1 -4 -4 
6528 5 0.622127 0.314594 0.996228 -1 4 -3 
6233 6 0.709925 0.230835 0.0286885 -6 3 -8 
5946 5 0.841565 0.298917 0.00312923 -3 2 5 
5927 6 0.247519 0.313618 0.99401 -1 2 -2 
6158 5 0.46314 0.314387 0.0190508 -2 2 2 
7083 5 0.201758 0.365844 0.00397172 1 1 1 
7897 5 0.212384 0.343643 0.065614 4 -4 -3 
7475 6 0.00729051 0.327888 0.0201807 1 1 -4 
6312 5 0.304028 0.344971 0.0103516 -1 -4 -1 
7362 5 0.309538 0.371803 0.0574753 2 2 0 
6042 5 0.656087 0.386108 0.0195802 -1 -8 -5 
7106 6 0.602315 0.387675 0.994257 -2 -5 0 
5913 6 0.322847 0.427556 0.00205755 2 -2 1 
6768 6 0.447108 0.439508 0.0315387 0 -2 0 
7280 5 0.501879 0.42173 0.00210799 -3 3 -1 
6439 5 0.735309 0.394149 0.0344598 6 6 -1 
5363 6 0.110658 0.434204 0.0316056 6 0 -2 
6620 6 0.201349 0.419529 0.0398491 -1 0 3 
6794 6 0.853426 0.477148 0.0304997 4 2 2 
7806 6 0.138231 0.468172 0.980627 0 -4 -1 
8977 5 0.936215 0.504966 0.0450786 -1 4 -3 
7048 5 0.192098 0.551399 -0.00128617 1 4 1 
8866 6 0.0537883 0.595282 0.0285382 3 4 0 
5693 6 0.155709 0.62125 0.0339715 -1 2 -1 
7615 6 0.871585 0.590538 0.00497877 -2 -1 1 
7411 6 0.124353 0.632595 0.00711355 -1 3 1 
8255 5 0.836343 0.64904 0.0349611 0 -1 -1 
8367 6 0.587296 0.678825 0.00288899 -3 2 -3 
6493 6 0.571914 0.653737 0.0441457 0 0 2 
6700 5 0.975372 0.685893 0.967187 2 -2 0 
5782 5 0.104675 0.747724 0.00327278 3 -1 -3 
6744 5 0.803998 0.755125 0.986706 -5 -1 6 
7781 6 0.142134 0.793982 0.0261117 -3 1 -4 
7054 6 0.715675 0.754299 0.00707318 -4 4 1 
5707 6 0.0853382 0.737075 0.0172615 2 2 3 
7908 6 0.176934 0.752043 0.00573186 1 -1 0 
6579 6 0.687515 0.809681 0.00792621 -1 2 0 
7811 6 0.840356 0.797026 0.0259772 3 2 -2 
7648 6 0.853913 0.833629 0.00880101 -2 -3 0 
6181 6 0.00174595 0.819994 0.971845 2 0 -3 
5183 5 0.180437 0.822241 0.985083 -4 1 2 
7337 5 0.322553 0.843745 0.0252881 1 1 4 
5535 5 0.543621 0.831793 0.0283859 3 4 0 
5283 5 0.863259 0.845718 0.00400811 -1 -2 3 
8200 5 0.925559 0.886625 0.00551759 -1 -4 2 
8380 5 0.851585 0.872905 0.997554 1 4 1 
7443 6 0.727783 0.896015 0.0124413 2 -6 5 
5774 5 0.0935528 0.909115 0.986197 0 0 3 
8847 5 0.323137 0.93242 0.00454382 2 0 2 
6447 5 0.870004 0.902925 0.993289 -2 -5 2 
6389 6 0.889223 0.930874 0.0166241 3 -4 -3 
5354 6 0.126679 0.972594 0.00580606 2 1 4 
5146 5 0.0194668 0.0345742 0.052968 0 -2 3 
8946 6 0.907028 0.991146 0.0168649 -2 -1 -8 
7987 6 0.360988 0.0589272 0.0280007 -2 2 1 
8798 6 0.65797 0.0363175 0.0364484 -1 0 0 
8236 5 0.79676 0.0167773 0.0316759 2 3 4 
7687 5 0.855531 0.130396 0.0543026 -4 -6 1 
6315 6 0.238233 0.136736 0.0325852 0 -2 1 
5325 5 0.253243 0.117998 0.023686 -3 0 0 
5551 6 0.394803 0.0989428 0.0610717 -2 4 3 
5393 6 0.0588227 0.150319 0.0757405 -2 -1 9 
7558 5 0.235315 0.136539 0.995029 3 2 5 
6893 6 0.288845 0.10754 0.038483 5 3 -3 
7694 6 0.284972 0.144231 0.0599188 -6 -2 -2 
5509 6 0.493722 0.136653 0.0729659 1 4 0 
7649 6 0.649567 0.168252 0.0391451 -3 -1 2 
6481 6 0.68288 0.149874 0.0406014 2 2 -3 
7447 6 0.31694 0.195491 0.0484561 -2 2 8 
6531 6 0.964063 0.17756 0.0280573 -4 3 -6 
5900 5 0.327653 0.221652 0.0643053 4 4 1 
8953 6 0.487488 0.239175 0.00207634 -6 2 0 
6934 6 0.615474 0.235505 0.0330546 4 -2 1 
8809 5 0.836928 0.25328 0.0284071 -1 1 4 
6487 5 0.849965 0.260144 0.0512421 -2 1 0 
5755 5 0.546035 0.283487 0.0146807 -1 -6 0 
5001 5 0.581985 0.361407 0.0206724 2 2 -1 
6108 6 0.159766 0.381001 0.0215015 1 5 3 
5642 6 0.119016 0.375865 0.0366595 2 3 4 
8842 6 0.641762 0.386068 0.0925173 -2 -2 1 
8098 6 0.628551 0.409158 0.0517606 3 -2 -2 
6694 6 0.217699 0.403714 0.0124413 0 -1 4 
8600 5 0.484168 0.406146 0.0633531 -1 2 1 
7552 5 0.525862 0.427453 0.0567779 -1 3 0 
5082 5 0.795716 0.432353 0.0192275 -4 -3 4 
5597 5 0.880478 0.460663 0.0236811 5 -2 1 
5912 6 0.112708 0.518379 0.0162334 -2 0 1 
7009 6 0.093981 0.485233 0.0437491 1 4 1 
7712 6 0.159294 0.517441 0.0321946 2 -1 -3 
8597 5 0.524355 0.503932 0.0155337 1 -5 4 
6129 5 0.00296555 0.501518 0.00253479 3 2 3 
5408 6 0.37685 0.514126 0.0148024 -2 1 1 
8907 6 0.0316361 0.506113 0.0532858 5 2 -2 
5979 5 0.0741517 0.548206 0.023029 5 5 6 
7653 6 0.9099 0.563252 0.0238546 -2 -2 1 
5298 6 0.181329 0.563231 0.0533992 -6 2 0 
7831 6 0.483815 0.597096 0.0432759 -5 0 0 
8377 5 0.179937 0.63112 0.0224648 -3 3 1 
6254 6 0.268139 0.620806 0.0713048 2 2 -3 
5626 5 0.397104 0.59034 0.054119 5 -5 6 
8277 6 0.574248 0.652225 0.0158418 2 -7 0 
5410 6 0.687255 0.614053 0.0674487 -1 1 0 
8539 5 0.00771667 0.634879 0.00877334 2 4 -1 
6546 6 0.0978219 0.672952 0.017187 5 -3 0 
8140 5 0.187815 0.660763 0.0134917 -3 0 -5 
8439 5 0.835463 0.658106 0.0480208 -5 0 -2 
8152 5 0.89992 0.632481 0.020998 1 1 -2 
6180 5 0.722327 0.698803 0.0242768 -2 0 -4 
7644 5 0.92141 0.731541 0.0246944 -2 -2 2 
5244 6 0.50018 0.692902 0.0519813 3 -3 4 
7021 5 0.644861 0.697026 0.0472462 2 -1 5 
5428 5 0.935618 0.754799 0.0581101 -1 -3 3 
8653 6 0.833483 0.730575 0.0499358 2 3 3 
5127 6 0.352707 0.778529 0.0521006 4 -1 -2 
6435 6 0.168698 0.789967 0.0509651 6 1 -6 
5761 5 0.332757 0.844717 0.0372099 -6 1 1 
7384 5 0.0173292 0.796491 0.00579364 -2 2 2 
6566 6 0.431946 0.839087 0.0277048 1 4 5 
6747 5 0.631713 0.791481 0.0249023 5 3 -1 
8025 5 0.955447 0.80741 0.0161591 -1 -1 -4 
8879 5 0.0326924 0.85819 0.0241089 -4 1 -2 
8321 5 0.627798 0.850966 0.026703 5 2 1 
7104 5 0.757841 0.866959 0.0497491 1 1 -3 
6145 6 0.0255794 0.919991 0.00154678 -2 -3 3 
6463 6 0.0447146 0.893096 0.0198213 -1 -2 -1 
7301 6 0.5588 0.893642 0.0173909 -2 -1 5 
7017 5 0.579518 0.934117 0.0506699 4 -7 2 
6923 6 0.724846 0.922217 0.0325128 1 0 1 
8647 5 0.413364 0.931208 0.0865082 3 -4 -2 
8952 6 0.578822 0.953768 0.0211251 1 -3 1 
8456 6 0.927744 0.975965 0.067087 5 3 4 
5615 6 0.339805 0.948299 0.0188528 -1 2 -2 
5168 5 0.269602 1.00035 0.0612479 -2 -1 0 
6737 6 0.426046 0.96548 0.998297 -2 -7 -2 
8741 6 0.547863 0.0123961 0.0634611 4 4 6 
7446 5 0.744866 0.00351371 0.0309009 -3 3 3 
8811 6 0.390479 0.0115441 0.0759247 2 3 -1 
8319 5 0.371623 0.0454833 0.0582814 4 -2 5 
8356 5 0.411811 0.0207256 0.0866653 -2 3 3 
5522 6 0.638494 0.0131177 0.112186 -1 2 -7 
5646 5 0.708084 0.00384067 0.0448705 -1 -3 -2 
5157 6 0.710235 0.0110907 0.0420455 8 -1 5 
7797 6 0.740956 0.0390069 0.0443288 -3 -1 -1 
8791 5 0.0692689 0.0805488 0.0551211 -1 -4 5 
5015 6 0.227169 0.0108174 0.0943949 -4 4 1 
6541 5 0.425331 0.0497669 0.0270019 0 7 -5 
6605 5 0.625952 0.0379881 0.0444189 2 1 0 
5202 6 0.335188 0.0785195 0.0632856 -2 0 -2 
5606 5 0.0885574 0.136489 0.0701724 -2 1 -2 
8393 5 0.346675 0.102791 0.0530238 -3 1 -7 
6027 6 0.754707 0.0814024 0.0783227 1 -1 5 
7877 6 0.0082204 0.113661 0.066063 1 -1 1 
8149 5 0.990216 0.086148 0.0477006 -5 -1 -4 
6071 6 0.151509 0.126542 0.103896 6 2 3 
8583 6 0.312319 0.115997 0.0948841 -1 1 -4 
6136 5 0.327212 0.160851 0.0350538 0 6 -1 
6532 6 0.49554 0.163205 0.0337751 -6 -3 3 
7868 6 0.623107 0.101465 0.0718905 5 -7 0 
8638 5 0.276291 0.144578 0.0434708 -4 -3 1 
7069 5 0.468874 0.156941 0.0620356 -2 -3 3 
6681 5 0.720088 0.162304 0.0769863 1 -7 3 
7559 5 0.215714 0.157151 0.0539391 -5 4 3 
7425 5 0.44327 0.183298 0.0516073 0 -1 -1 
7717 6 0.909067 0.150225 0.0442564 -1 0 6 
5384 6 0.484172 0.178086 0.0476446 0 1 -1 
6114 6 0.609519 0.234723 0.0399982 -2 -5 -2 
6157 6 0.6782 0.248095 0.0665929 0 3 7 
5297 6 0.200225 0.236874 0.0613455 1 2 5 
5789 6 0.432356 0.285556 0.0897247 2 -1 1 
7074 5 0.329983 0.277624 0.0835025 4 -2 0 
6573 5 0.343984 0.292626 0.0689941 -1 0 1 
5655 6 0.554221 0.303605 0.0402599 -3 2 2 
6619 5 0.909887 0.325229 0.0854886 0 -2 0 
8833 5 0.565961 0.357835 0.0312755 1 -6 5 
5699 6 0.730782 0.356865 0.0730797 0 -3 0 
6187 6 0.216598 0.35705 0.0909451 5 2 -1 
7310 5 0.170716 0.440637 0.0535166 1 3 -1 
8903 6 0.240276 0.360947 0.0435654 -2 3 -1 
8396 6 0.418775 0.444088 0.101867 2 2 0 
8100 5 0.5204 0.423113 0.0516 2 -2 0 
6094 6 0.560186 0.421291 0.0609686 -3 -7 4 
8078 6 0.172258 0.462314 0.0641468 3 6 -2 
5794 6 0.455708 0.432383 0.0748602 -4 5 0 
8145 6 0.738597 0.469538 0.0547954 -1 -3 1 
5905 6 0.172769 0.511405 0.0565003 -5 1 3 
6819 6 0.377955 0.439719 0.061878 -1 4 0 
6590 5 0.341604 0.520572 0.0209868 1 -5 -2 
7665 5 0.381475 0.471474 0.0615726 2 -1 -2 
6073 6 0.430447 0.495839 0.0905335 2 0 2 
6763 5 0.587412 0.499457 0.0825027 0 0 4 
6952 5 0.659067 0.436501 0.0140128 -2 0 3 
7834 5 0.940372 0.440644 0.0658627 0 -1 -1 
6197 6 0.415798 0.521476 0.0492155 6 0 0 
5767 5 0.45505 0.532966 0.0581484 -3 -3 -3 
5984 5 0.6055 0.550632 0.0649295 2 -4 -5 
5960 5 0.142685 0.545001 0.0417371 0 0 -6 
8843 5 0.841647 0.576117 0.0483506 5 -2 -2 
8173 6 0.92225 0.560204 0.0785284 -3 0 5 
6738 6 0.457778 0.555944 0.0747116 3 -3 0 
7290 5 0.670794 0.573541 0.0376683 -3 -1 2 
6996 5 0.288085 0.600429 0.0311036 3 3 -5 
8908 6 0.548118 0.637712 0.0760705 -2 -4 4 
8522 6 0.856955 0.648795 0.0634197 2 1 2 
5285 6 0.894863 0.711684 0.0897396 -1 -2 0 
7369 6 0.39733 0.727895 0.0403397 2 3 -1 
8822 6 0.460435 0.731901 0.0474031 -2 3 1 
5209 6 0.443367 0.757054 0.0505472 0 2 -4 
6021 5 0.487786 0.757157 0.0568676 -3 0 2 
5303 6 0.53002 0.740638 0.0625126 3 3 -2 
7471 5 0.59692 0.762607 0.0461949 1 -4 3 
6421 5 0.69306 0.749572 0.0536069 2 0 -3 
8657 5 0.759014 0.718123 0.0486027 2 -2 5 
8194 5 0.70117 0.770455 0.0502856 -7 -1 -2 
5832 5 0.89266 0.778622 0.0461 -3 1 5 
7208 5 0.458456 0.81513 0.06984 -2 -2 1 
6245 6 0.839345 0.783272 0.0914458 2 8 5 
8337 6 0.402705 0.829394 0.0310687 4 2 0 
5824 6 0.677515 0.848288 0.0240621 1 1 5 
7123 5 0.332921 0.884967 0.0835371 -1 2 1 
8527 6 0.616784 0.879653 0.044826 -3 -6 -3 
7622 5 0.190284 0.872568 0.104212 1 -1 -1 
7277 6 0.450222 0.903273 0.0752316 -2 -3 0 
5108 5 0.115627 0.936719 0.056259 4 -5 0 
7148 5 0.278328 0.917851 0.0536296 2 -1 -4 
5969 5 0.0122517 0.927908 0.0511451 8 2 2 
6235 5 0.0421752 0.965234 0.0250288 0 0 1 
6323 5 0.209261 0.974761 0.0454848 0 1 -1 
5517 5 0.274991 0.976502 0.0821483 -1 -4 4 
6283 5 0.5153 0.966015 0.0331574 -4 2 2 
6739 6 0.881036 0.965291 0.0712517 -3 2 0 
5552 6 0.667562 0.977254 0.101501 4 0 0 
5403 5 0.884982 0.952324 0.0342831 -2 2 2 
8989 6 0.0693089 0.0601665 0.131515 0 4 -2 
5478 6 0.10654 0.0835852 0.0632306 -1 1 1 
7281 6 0.145866 0.0510964 0.0657321 2 3 5 
5700 5 0.848026 0.0614774 0.069577 -6 3 6 
8819 6 0.682069 0.0485132 0.0978118 -1 3 0 
8272 5 0.872559 0.0676482 0.0541545 3 -2 1 
8299 5 0.0049191 0.130873 0.0841922 0 5 2 
7498 5 0.068489 0.0733387 0.0778095 1 -2 -2 
8616 6 0.875219 0.106625 0.0570941 -5 3 1 
6041 5 0.594358 0.147615 0.0614595 1 1 2 
6070 5 0.849597 0.0911198 0.0607949 -3 5 -5 
8817 6 0.11951 0.154943 0.073669 1 -2 0 
5674 5 0.262163 0.113336 0.0881591 -1 1 -2 
5464 5 0.429442 0.149107 0.0873983 0 0 -2 
8624 5 0.293833 0.197622 0.110662 5 2 1 
8801 5 0.515053 0.18678 0.0782615 -1 4 2 
7023 6 0.561518 0.159855 0.109629 5 0 3 
5272 6 0.730442 0.17637 0.0906926 2 4 4 
5475 5 0.188277 0.242178 0.089451 -5 0 6 
5227 5 0.152899 0.317918 0.144273 -2 1 1 
8441 6 0.18722 0.260213 0.072643 -2 1 -2 
8972 5 0.621159 0.259086 0.0729921 -3 -2 -4 
8736 6 0.710402 0.282878 0.0494166 0 3 0 
7990 6 0.247874 0.318803 0.101394 -3 -3 -3 
5715 6 0.780358 0.321405 0.11022 4 2 1 
5074 6 0.474483 0.318191 0.0864023 5 1 3 
5466 6 0.416644 0.308307 0.0702741 -2 -4 8 
6585 6 0.58822 0.308094 0.0708552 0 -2 3 
5314 5 0.451958 0.393123 0.100628 -2 3 2 
6090 5 0.735633 0.384659 0.0817709 -2 -1 4 
5955 6 0.263958 0.389971 0.0991751 7 4 0 
8797 6 0.682415 0.429752 0.0936886 -3 3 -1 
7906 6 0.116886 0.45848 0.121322 3 0 2 
6821 6 0.368351 0.447253 0.0854925 5 3 0 
7998 5 0.945663 0.47245 0.068701 -2 -1 -3 
5734 5 0.998533 0.458673 0.0730266 0 -3 0 
6648 5 0.221839 0.486627 0.0864048 2 -2 2 
5208 6 0.409308 0.512886 0.0416131 6 4 1 
5731 5 0.796256 0.468261 0.0419147 0 2 -3 
5683 6 0.537265 0.503137 0.103944 -3 -1 1 
8962 5 0.662911 0.536522 0.0617263 0 1 -1 
8924 5 0.486642 0.562711 0.0675173 0 -1 2 
6921 5 0.804866 0.516443 0.0504647 3 0 1 
8176 5 0.336467 0.554495 0.106929 1 0 -1 
6248 5 0.171114 0.604051 0.0469925 1 3 3 
5872 5 0.196481 0.575899 0.0773285 -3 6 -3 
7465 6 0.321807 0.579391 0.0823714 0 3 4 
6717 5 0.968685 0.664882 0.106593 -1 0 0 
5706 5 0.715019 0.655703 0.09009 1 -5 -2 
6554 5 0.728419 0.732476 0.0820636 -3 2 -1 
8691 5 0.0680029 0.728283 0.0838997 0 1 4 
8706 6 0.531531 0.770384 0.0713414 0 2 1 
6193 6 0.588817 0.718856 0.105384 3 -2 -2 
6002 5 0.968073 0.767846 0.0834434 0 0 1 
6581 6 0.164734 0.820617 0.0895779 2 6 -4 
8394 6 0.61726 0.778972 0.0962373 2 2 -2 
6791 6 0.0237955 0.837416 0.0757661 3 4 -3 
8771 5 0.447447 0.824882 0.1112 -4 4 -1 
8837 6 0.192706 0.84868 0.0995238 0 1 2 
8602 5 0.59149 0.799305 0.0782595 0 -3 1 
5838 5 0.711568 0.857858 0.113202 0 0 -2 
5632 5 0.699231 0.940099 0.0662095 4 -4 4 
8122 6 0.644883 0.927101 0.0675177 0 5 1 
7692 6 0.385398 0.949512 0.0594575 3 -4 0 
6135 5 0.684104 0.952853 0.13427 -3 -7 -5 
7305 6 0.0479165 0.0101624 0.0793286 0 -5 -1 
6639 5 0.736403 0.0244896 0.0887169 0 -1 1 
5494 6 0.170484 0.0368012 0.107461 -3 -4 -1 
6107 5 0.042544 0.0693868 0.0943874 5 0 0 
8406 6 0.249944 0.0802635 0.0904743 1 -2 -5 
5014 6 0.496863 0.0722936 0.120509 -1 1 -1 
5539 6 0.673312 0.0438217 0.0833481 -6 4 0 
6452 6 0.431234 0.141916 0.0835836 -3 4 0 
6471 5 0.911152 0.116924 0.119285 0 5 -1 
7741 6 0.163738 0.173727 0.139542 1 -3 -4 
7941 6 0.221856 0.137142 0.129175 0 1 0 
6978 6 0.635827 0.128984 0.0891279 -3 -1 3 
8150 6 0.955054 0.174145 0.114766 0 -1 5 
8820 6 0.185308 0.140083 0.110303 0 -3 -3 
7523 6 0.265052 0.168715 0.0776485 4 -2 -2 
8976 5 0.912176 0.220037 0.106706 0 2 4 
6166 6 0.468957 0.188426 0.0951859 4 4 1 
6622 5 0.113286 0.239842 0.0897819 0 8 2 
5934 6 0.368618 0.304379 0.130109 1 -4 -3 
6405 6 0.691734 0.264617 0.125373 3 -3 -1 
5670 6 0.0848637 0.280289 0.124163 4 0 1 
6544 5 0.689405 0.235698 0.103521 -2 10 -2 
5247 6 0.233515 0.31856 0.135879 -4 -6 2 
5855 6 0.763506 0.30435 0.125784 3 1 1 
7159 5 0.41438 0.305858 0.148795 -1 0 2 
6646 5 0.596533 0.299299 0.0879368 2 0 -1 
5911 5 0.0280242 0.33079 0.121066 4 3 -4 
6039 6 0.0596849 0.359905 0.0941898 0 2 -3 
5131 5 0.468967 0.335181 0.0937797 -3 2 1 
8284 5 0.744221 0.336084 0.0719282 4 2 2 
7816 5 0.748885 0.34637 0.0960537 -5 6 -1 
6425 6 0.268594 0.367269 0.102254 3 -1 0 
8054 5 0.165963 0.388383 0.125089 3 0 1 
7356 5 0.496063 0.407708 0.114346 1 -4 3 
7828 6 0.0440922 0.429745 0.137217 0 1 -1 
5696 5 0.219138 0.435931 0.106743 -3 -1 0 
8084 5 0.293763 0.400212 0.115219 -2 0 1 
7490 5 0.681226 0.436246 0.121073 3 -3 -4 
6304 5 0.868352 0.405244 0.10896 -2 -3 3 
6207 6 0.581668 0.422465 0.11656 -3 1 7 
8039 6 0.24082 0.470654 0.0651856 2 -1 3 
7585 6 0.806701 0.456077 0.079875 3 -2 5 
6497 6 0.198914 0.492479 0.13022 7 -2 3 
8947 5 0.20213 0.512943 0.138178 -2 -4 -1 
7508 5 0.57915 0.512374 0.0770892 2 0 2 
6083 5 0.671412 0.533025 0.0685788 1 0 4 
8905 5 0.715199 0.546957 0.149457 0 0 -3 
8280 5 0.393751 0.588415 0.0795031 0 1 5 
6195 6 0.526893 0.549261 0.119661 -3 -5 5 
7628 6 0.736618 0.571557 0.104484 -1 -3 -1 
5385 6 0.808758 0.53588 0.102033 0 2 -1 
5160 5 0.0184922 0.581483 0.108777 1 0 -2 
6592 6 0.119775 0.598995 0.103485 -2 -2 3 
8082 6 0.290292 0.608076 0.0911235 -5 -1 -3 
8442 5 0.82302 0.594138 0.113399 -2 -4 3 
6080 5 0.940028 0.606405 0.104971 1 -3 -3 
5004 5 0.911934 0.567972 0.0988783 2 1 1 
8038 5 0.305873 0.645516 0.0960565 5 -1 -4 
8717 6 0.657691 0.629335 0.110548 1 0 5 
5826 6 0.893466 0.620669 0.102987 3 3 -4 
8470 5 0.534705 0.660056 0.0690649 -1 1 -1 
8587 6 0.642245 0.655304 0.117455 -1 4 2 
8891 5 0.701414 0.6248 0.14565 -5 4 4 
8485 6 0.368791 0.648726 0.0751316 2 0 -2 
8123 6 0.161398 0.671269 0.0725596 -4 2 0 
8382 6 0.189411 0.711518 0.0701918 -2 2 4 
5976 5 0.729889 0.69213 0.0984051 1 4 4 
7426 6 0.944954 0.691342 0.109693 0 1 -4 
6689 6 0.321501 0.756513 0.0919298 2 -4 -1 
7531 5 0.703035 0.793254 0.127598 -1 -3 -1 
8677 6 0.294904 0.824911 0.0848972 3 -2 -5 
5467 5 0.321909 0.797781 0.0763807 -1 -1 -3 
8182 6 0.676665 0.803305 0.125301 2 1 2 
5785 5 0.407014 0.839475 0.102276 2 5 4 
8805 5 0.528351 0.854815 0.07296 -3 1 2 
8246 6 0.808698 0.850802 0.101198 -1 1 -4 
7058 6 0.922509 0.854153 0.0789974 0 2 -1 
7803 6 0.952736 0.873373 0.0848113 -1 3 8 
5159 6 0.702024 0.845526 0.100402 -4 -3 -1 
5663 5 0.742517 0.895325 0.117752 1 -2 0 
7486 5 0.834873 0.851392 0.114537 1 -3 1 
5910 5 0.239666 0.888648 0.104746 -1 1 2 
8033 6 0.440537 0.929738 0.124042 -4 -3 3 
7903 6 0.411523 0.935847 0.103868 0 -4 2 
5668 6 0.234293 0.965165 0.0768671 2 3 3 
8901 6 0.339555 0.00440721 0.109346 3 2 2 
8060 5 0.395528 0.962554 0.130029 2 -6 0 
6994 6 0.602019 0.94313 0.100786 1 0 0 
5654 6 0.734253 0.915199 0.105587 2 -2 8 
5875 6 0.178236 0.989801 0.0969268 2 2 1 
5523 6 0.278474 0.979781 0.135183 5 1 -1 
7086 6 0.671898 0.0291007 0.121221 -3 2 5 
7445 6 0.266436 0.0584821 0.108432 -3 -6 -3 
5511 6 0.226409 0.0521059 0.0991777 1 4 2 
8222 5 0.985194 0.0942016 0.147995 0 2 0 
6290 6 0.212704 0.0958574 0.150471 -1 -3 -2 
5938 6 0.648695 0.0631146 0.145635 -1 -3 1 
6460 6 0.173773 0.12578 0.12578 -4 1 0 
7501 5 0.857627 0.111393 0.0927981 4 3 1 
7672 6 0.460494 0.179954 0.128902 -1 1 -6 
7307 5 0.995045 0.182613 0.147072 -2 2 0 
6955 5 0.422701 0.172992 0.100527 -3 5 -2 
8941 5 0.593057 0.207892 0.108959 -1 -4 0 
5048 5 0.587177 0.164957 0.0995691 -3 -8 -2 
5740 5 0.864593 0.23173 0.121002 -3 -3 -1 
6707 5 0.998375 0.228472 0.132443 0 5 5 
8700 5 0.388183 0.225481 0.125054 -1 1 2 
7893 6 0.0808134 0.287504 0.156746 5 0 3 
5622 5 0.129195 0.29326 0.117545 3 -5 0 
5129 6 0.25878 0.290977 0.126091 -1 0 1 
6787 6 0.959077 0.274488 0.131205 1 -1 6 
5305 5 0.185347 0.332619 0.102353 -1 -2 -5 
6371 5 0.590847 0.295086 0.172241 -2 3 2 
5744 5 0.0101326 0.342465 0.119433 1 -2 -4 
6793 6 0.0736829 0.322654 0.112395 7 4 1 
7468 5 0.576386 0.324457 0.149991 -4 -4 5 
8572 5 0.58345 0.34764 0.14636 0 1 -2 
8135 5 0.784606 0.331409 0.137359 -4 0 0 
5343 5 0.0227724 0.343847 0.144421 1 3 0 
6340 5 0.2456 0.329043 0.1604 2 -1 -3 
8894 5 0.528824 0.394804 0.141382 1 2 2 
7702 5 0.623753 0.32368 0.12412 -1 1 -2 
8767 6 0.022941 0.36711 0.11498 5 -2 2 
8802 5 0.161018 0.402978 0.0841704 -3 -1 -6 
8800 6 0.31593 0.383328 0.104706 3 -3 -2 
6424 6 0.410939 0.373813 0.136631 -2 -1 5 
7587 6 0.0297385 0.4632 0.107765 -1 -1 -4 
7134 6 0.811519 0.463329 0.150222 0 2 -3 
5813 5 0.0611707 0.47881 0.114916 0 0 -2 
6672 6 0.129869 0.47214 0.124848 4 0 -4 
5954 6 0.507758 0.510423 0.14915 3 -1 0 
5714 5 0.540712 0.47101 0.124879 0 -1 3 
7950 6 0.119631 0.547117 0.11712 0 -2 0 
5216 6 0.412717 0.48914 0.105547 0 4 5 
5019 6 0.0313742 0.522838 0.123322 0 -1 -1 
5591 5 0.852056 0.546354 0.146001 1 4 -2 
7166 5 0.31942 0.557513 0.103116 0 0 -3 
8884 6 0.88264 0.574457 0.0977703 2 -2 3 
5545 5 0.40378 0.619862 0.119669 1 4 -4 
7266 6 0.46576 0.611977 0.0948709 -4 2 -2 
8684 6 0.811209 0.568178 0.103661 3 -1 -1 
6982 6 0.978192 0.631634 0.135613 -1 0 -2 
7316 5 0.127119 0.582877 0.151392 2 3 0 
7503 6 0.504232 0.659321 0.0998698 -2 3 4 
8228 5 0.965568 0.61677 0.160705 -1 1 0 
7370 6 0.228562 0.671987 0.104363 6 0 1 
5594 6 0.361968 0.670874 0.0989738 2 3 0 
6813 5 0.389546 0.642338 0.136714 -1 1 -1 
6767 5 0.733843 0.712268 0.114335 1 -1 2 
6140 6 0.830232 0.688777 0.130812 -1 1 2 
6815 6 0.0495079 0.732222 0.166819 0 0 1 
5032 6 0.579345 0.727954 0.124537 0 0 0 
8548 6 0.464318 0.705688 0.0573336 6 0 2 
6030 5 0.547892 0.778517 0.117574 4 -2 -1 
8430 6 0.189393 0.797302 0.144409 3 -4 4 
6095 5 0.691995 0.760493 0.134363 -1 0 3 
6050 5 0.761276 0.722877 0.154028 1 0 -1 
7267 6 0.0972704 0.804192 0.117558 2 2 -1 
7184 5 0.266977 0.835529 0.128475 0 2 -1 
8243 5 0.115361 0.775534 0.128371 1 -4 1 
8128 6 0.428646 0.80115 0.0953171 -3 3 2 
7249 6 0.408321 0.79743 0.109356 3 1 -4 
7528 6 0.930746 0.815083 0.0856199 -1 5 -2 
7308 5 0.461132 0.860152 0.113415 1 1 1 
5888 5 0.732964 0.864775 0.149616 -8 -1 0 
8944 5 0.0118601 0.865671 0.129953 0 -3 0 
5390 6 0.218481 0.858418 0.086081 -2 1 4 
6118 6 0.474183 0.844477 0.109822 1 -5 -3 
6555 6 0.600795 0.899564 0.112804 -2 0 3 
6828 5 0.655617 0.909334 0.130344 -8 -6 0 
5980 5 0.75553 0.906796 0.0944141 0 1 4 
6769 5 0.817457 0.878 0.131826 -2 -2 -7 
5525 5 0.176973 0.973182 0.128065 -1 -6 1 
5158 5 0.460672 0.963437 0.141263 2 1 -2 
6339 6 0.35473 0.954328 0.108598 -1 -1 3 
6182 6 0.867599 0.0124303 0.152104 0 0 -4 
6727 5 0.441667 0.00864204 0.133036 2 1 6 
6223 6 0.464751 0.0219226 0.184282 -3 3 3 
7701 5 0.0208941 0.0279227 0.156895 0 -2 2 
6850 6 0.228496 0.00206788 0.16637 -4 1 -3 
5753 5 0.776326 0.0540551 0.1406 -1 1 -1 
8745 6 0.303916 0.104381 0.125262 1 -1 5 
5842 6 0.532949 0.0813004 0.16995 -4 2 2 
5293 6 0.658512 0.0219132 0.109465 1 -3 4 
8935 6 0.666714 0.0624104 0.12979 -2 -1 -3 
8163 6 0.817052 0.0467282 0.152573 -4 -1 -2 
6829 6 0.58571 0.10375 0.096611 -3 5 -1 
6702 6 0.0733637 0.0890186 0.153718 6 -2 4 
5375 6 0.697439 0.098355 0.0975936 -1 5 5 
5749 5 0.282332 0.114064 0.164237 -2 3 1 
6467 6 0.370932 0.140094 0.13994 3 2 3 
8300 6 0.479519 0.163604 0.1141 -7 1 4 
8738 6 0.570692 0.163605 0.132916 -4 6 1 
6173 6 0.229465 0.19861 0.146398 0 4 1 
6719 6 0.110064 0.196954 0.138461 2 -2 -2 
7738 5 0.370123 0.202592 0.121828 -1 1 2 
5578 6 0.583261 0.226153 0.151985 0 1 2 
8753 6 0.883053 0.22616 0.172966 1 -2 -3 
5685 5 0.910028 0.234609 0.124466 -2 -1 -1 
8534 5 0.27928 0.257521 0.148394 1 2 3 
7315 5 0.493213 0.218484 0.158004 4 3 5 
8613 6 0.395339 0.292179 0.146634 -5 -2 -2 
6505 6 0.98364 0.233936 0.151194 0 -1 0 
7109 6 0.267287 0.238328 0.149992 1 -2 4 
8519 5 0.275713 0.274253 0.175827 -3 -2 5 
5128 6 0.653972 0.327968 0.177448 -3 5 -1 
6518 6 0.807712 0.296016 0.133304 3 3 3 
8762 5 0.867845 0.297686 0.127715 1 3 0 
7711 5 0.29634 0.313271 0.164043 0 -1 3 
6902 6 0.267244 0.317056 0.152497 5 -1 -2 
6230 6 0.516372 0.360871 0.135552 -2 -1 3 
6346 6 0.530558 0.293419 0.147102 -2 2 -6 
8478 5 0.0368303 0.287903 0.157665 -2 1 3 
7534 5 0.15113 0.318634 0.134581 -4 2 1 
8868 6 0.64694 0.381707 0.179547 -5 3 0 
5476 6 0.77937 0.371148 0.137457 -4 -2 0 
8855 5 0.681454 0.426674 0.182572 3 2 1 
6086 6 0.838074 0.419815 0.154357 6 1 1 
6882 6 0.361869 0.476248 0.165043 -1 3 -1 
8476 5 0.422605 0.446732 0.140796 -5 0 -2 
5034 6 0.967351 0.395476 0.13146 -2 -4 4 
5510 5 0.193723 0.490002 0.135946 1 -1 -3 
6683 6 0.0465647 0.476773 0.213281 -2 0 -1 
8489 6 0.189396 0.478191 0.14512 -2 2 1 
6160 6 0.0861774 0.533742 0.148404 2 3 1 
7347 6 0.167148 0.463891 0.180883 -1 -3 3 
5730 6 0.608786 0.55766 0.16597 2 6 -1 
8203 5 0.190704 0.534979 0.143271 -5 -2 1 
7756 5 0.440181 0.534691 0.100217 0 -1 3 
8286 6 0.735601 0.533109 0.131849 1 2 5 
7593 5 0.802596 0.588807 0.168181 1 2 -3 
7619 6 0.841219 0.550446 0.144093 -2 1 1 
7562 6 0.856217 0.56211 0.13078 -4 2 -2 
5503 5 0.925537 0.556335 0.119517 1 -1 0 
7795 6 0.289992 0.594764 0.129739 0 0 2 
8009 5 0.171854 0.570072 0.149542 4 1 0 
5186 6 0.534649 0.627925 0.106265 6 -1 -1 
8177 6 0.993201 0.610953 0.148967 -1 -1 0 
7774 5 0.247256 0.622814 0.146716 2 -3 4 
5299 6 0.210515 0.652745 0.125108 5 0 0 
8628 6 0.504054 0.69903 0.165571 2 -7 6 
6587 6 0.611252 0.67916 0.157818 -1 -3 1 
6004 5 0.874089 0.714134 0.118471 0 5 5 
7455 5 0.564662 0.739923 0.151072 1 0 0 
6316 5 0.0235191 0.709323 0.114918 0 -3 -3 
8526 5 0.339028 0.732471 0.160536 -2 -4 1 
6410 6 0.160409 0.716087 0.152412 2 -2 2 
5799 5 0.48038 0.782703 0.146926 1 -1 1 
8859 6 0.480921 0.812273 0.123369 4 0 2 
7512 6 0.856092 0.78528 0.150511 -3 -3 6 
8958 6 0.516957 0.755856 0.128736 1 1 3 
7030 6 0.769682 0.80228 0.142086 4 -1 1 
5149 6 0.138055 0.814836 0.139247 -1 -1 6 
7947 5 0.737928 0.818417 0.122389 -2 -1 2 
7112 5 0.885117 0.805361 0.128561 1 7 2 
7731 5 0.247117 0.852111 0.146495 5 0 1 
5101 5 0.949437 0.864603 0.159341 1 -1 -2 
7860 6 0.22629 0.913476 0.115547 -2 -3 -3 
8102 5 0.638026 0.933844 0.150016 -2 -2 5 
5065 5 0.192663 0.943142 0.164795 0 -2 -4 
5072 5 0.385158 0.943328 0.138712 -6 3 2 
7373 5 0.734507 0.937601 0.122747 0 2 0 
7199 6 0.860091 0.934924 0.149564 6 0 3 
5452 6 0.0752925 0.970734 0.130022 -4 -3 3 
8451 5 0.363023 0.979193 0.165663 2 -7 4 
7279 5 0.521297 0.954137 0.174059 -3 0 -1 
5702 5 0.602787 0.95718 0.144365 -3 -2 -4 
8365 6 0.172628 0.982274 0.205239 -1 2 1 
5882 6 0.245014 0.0381416 0.162547 3 1 0 
6790 6 0.27719 0.0281184 0.174932 5 5 -3 
7015 5 0.792573 0.0310685 0.135821 1 0 1 
5692 6 0.434559 0.0373 0.1402 3 2 -5 
7599 5 0.60738 0.02639 0.135685 -1 2 0 
5352 5 0.723011 0.0688283 0.149113 0 7 2 
5653 6 0.0592472 0.136683 0.208276 4 -2 0 
6020 6 0.845144 0.108484 0.196384 -2 0 -3 
7330 5 0.209841 0.129912 0.161451 4 -2 1 
7643 5 0.352515 0.146001 0.168927 4 1 0 
6509 6 0.058728 0.139453 0.176559 2 3 0 
5640 6 0.409607 0.154141 0.219067 -2 2 0 
7737 5 0.180203 0.17579 0.17885 1 0 -1 
6940 6 0.452544 0.212399 0.159885 -3 2 4 
6746 6 0.608385 0.190155 0.177724 5 -2 0 
7405 6 0.624656 0.191005 0.176949 -4 -4 3 
8134 6 0.69075 0.247074 0.153091 4 0 4 
5195 6 0.871921 0.203649 0.149281 2 3 -3 
6322 6 0.0334886 0.183746 0.132389 0 1 1 
6841 6 0.778815 0.211773 0.154453 -1 -3 -5 
7321 5 0.947435 0.208157 0.177507 0 6 -1 
8904 6 0.994566 0.233406 0.176617 -3 -3 4 
8620 5 0.302792 0.259652 0.189311 7 -4 3 
5728 5 0.808706 0.225518 0.166533 -4 0 3 
5317 6 0.0732131 0.225795 0.199403 -1 0 -3 
7539 5 0.614803 0.241664 0.189728 -1 3 -4 
6635 6 0.0703875 0.281238 0.193817 0 1 2 
8074 5 0.105283 0.298923 0.221524 0 2 0 
5775 5 0.297139 0.270801 0.17494 -4 -5 -6 
5212 6 0.436113 0.29286 0.187023 1 2 3 
5682 5 0.924778 0.286277 0.183178 -5 0 -6 
8652 5 0.273916 0.32425 0.18172 0 3 1 
8848 6 0.5541 0.312814 0.136862 1 -2 -1 
8565 5 0.894922 0.348118 0.164042 2 -1 2 
6866 6 0.334031 0.392739 0.208712 -3 -2 1 
7511 5 0.695567 0.356481 0.162194 5 -1 -4 
8721 6 0.186983 0.402271 0.173849 2 1 4 
8178 5 0.616246 0.354154 0.194119 4 0 -3 
6835 6 0.68568 0.376492 0.191371 1 3 1 
5453 6 0.967439 0.360746 0.180999 -2 0 2 
6755 6 0.262855 0.428884 0.192585 1 -4 3 
7393 6 0.742374 0.46622 0.172639 1 1 -2 
8278 6 0.555511 0.449849 0.194733 -5 -4 2 
6723 6 0.214307 0.479845 0.148592 1 -3 5 
6321 6 0.321651 0.509605 0.150167 -1 2 -3 
7879 6 0.448326 0.488669 0.166711 1 1 -3 
8108 6 0.591997 0.484972 0.174187 -1 1 -2 
5302 6 0.000923936 0.508596 0.189268 0 4 5 
5968 5 0.383898 0.518233 0.187754 0 0 1 
6956 5 0.411184 0.533547 0.17847 4 0 -2 
8160 5 0.495572 0.564622 0.157682 1 0 -5 
7201 6 0.26086 0.543216 0.166303 1 1 4 
5514 5 0.33525 0.544567 0.19628 -1 0 -1 
5739 6 0.745888 0.553145 0.135111 2 -1 -3 
6274 5 0.0836617 0.586085 0.195198 -1 0 4 
5008 6 0.553759 0.581729 0.160813 -2 1 3 
7470 5 0.704406 0.584712 0.207777 -3 -5 2 
6029 6 0.839302 0.623649 0.195124 0 -1 -6 
5540 6 0.633241 0.602773 0.174617 2 4 2 
8507 6 0.0305874 0.668705 0.146535 1 3 3 
8205 5 0.269776 0.646059 0.172361 -2 -6 5 
7683 6 0.826176 0.617919 0.161677 -1 -2 0 
6332 5 0.4943 0.717112 0.190055 0 7 -2 
8715 5 0.508842 0.714922 0.186431 2 0 1 
5598 5 0.34795 0.720007 0.183991 -1 -4 3 
8599 6 0.647928 0.744543 0.193302 -2 0 -5 
6811 6 0.406568 0.768082 0.150204 2 6 -4 
6479 6 0.531403 0.745987 0.198915 2 1 2 
8889 6 0.801523 0.772788 0.183064 -1 5 -1 
8551 6 0.824853 0.724698 0.181471 3 3 -4 
8633 5 0.695068 0.781536 0.186038 -1 2 3 
5323 5 0.817942 0.793522 0.178619 -3 -4 2 
7757 5 0.825494 0.829257 0.186489 4 -4 4 
5353 5 0.397242 0.82194 0.194166 -5 2 -5 
5486 6 0.144938 0.874957 0.170696 -3 -2 2 
7858 6 0.148566 0.873358 0.156645 -2 -4 -5 
6062 5 0.364386 0.89404 0.199801 -4 -5 -1 
5266 6 0.862843 0.874619 0.141474 2 1 4 
7082 5 0.935377 0.857514 0.172575 2 2 1 
6344 5 0.0250229 0.879098 0.200225 4 1 4 
7718 5 0.271168 0.877155 0.13398 1 1 0 
5401 6 0.448496 0.878866 0.197328 5 5 -4 
7527 6 0.696189 0.980325 0.154013 0 1 0 
8310 5 0.876495 0.877732 0.145753 -4 2 4 
5768 5 0.0927733 0.949591 0.12473 -1 -2 -3 
5624 6 0.307211 0.965308 0.172623 0 1 -5 
7555 5 0.458919 0.963029 0.149638 -2 -5 0 
6647 5 0.83629 0.929206 0.185513 -5 -5 -1 
5558 6 0.0772115 0.996643 0.172519 6 3 6 
7889 5 0.27255 0.961623 0.181919 -4 -5 -4 
8429 5 0.636405 0.998431 0.188203 -1 1 -5 
6931 6 0.614008 0.00302993 0.170656 1 4 0 
7949 5 0.922735 0.966671 0.146696 -3 1 -2 
6782 5 0.470968 0.0370707 0.211993 -4 7 6 
5437 5 0.35158 0.0485045 0.181339 1 0 -4 
7981 6 0.268717 0.032967 0.203445 -4 0 -1 
5392 6 0.0207555 0.0822132 0.191374 3 -3 6 
7830 6 0.231124 0.140908 0.203145 8 2 2 
6976 5 0.352472 0.105003 0.197728 3 -2 1 
8005 5 0.483136 0.0940599 0.199836 -6 1 1 
7177 6 0.262506 0.126188 0.151353 0 -2 1 
7403 6 0.370461 0.117762 0.191998 0 0 -1 
5197 6 0.495621 0.149026 0.183981 1 3 5 
6285 5 0.798048 0.0904404 0.216321 7 1 2 
8923 5 0.227004 0.166911 0.202014 -1 0 0 
6606 6 0.0478777 0.162606 0.213805 3 2 2 
8404 6 0.229076 0.177615 0.197684 1 -2 8 
8023 5 0.238818 0.161228 0.158947 6 5 8 
7209 5 0.714104 0.180519 0.184833 -2 -1 1 
6184 6 0.902908 0.173577 0.196746 1 2 6 