ITEM: TIMESTEP
20000000
ITEM: NUMBER OF ATOMS
9000
ITEM: BOX BOUNDS pp pp pp
-75 75
-75 75
-75 75
ITEM: ATOMS id type xs ys zs ix iy iz 
8617 5 0.0487183 0.0171289 0.0220696 -5 1 1 
5198 5 0.561976 0.983774 0.991036 0 -3 -5 
8696 6 0.150323 0.0419514 0.992587 -2 -4 -4 
8099 5 0.650402 0.0612373 0.986095 -2 3 4 
6129 5 0.193919 0.0712109 0.00643153 2 6 2 
5680 6 0.625828 0.0907005 -0.000456057 -1 1 3 
8902 6 0.557797 0.0992128 0.0555051 -5 -1 3 
6160 6 0.317206 0.154593 0.0121719 -1 3 0 
8369 6 0.131036 0.155283 0.0247349 4 0 4 
8079 5 0.159956 0.190333 0.0161879 1 5 -1 
7537 6 0.49507 0.124181 0.015226 -2 2 0 
7323 6 0.811253 0.164683 0.0188906 0 -2 0 
7813 5 0.720571 0.139609 0.989047 -1 3 -1 
8083 5 0.162581 0.186527 0.989959 0 -9 0 
5020 6 0.309095 0.177409 0.0185116 -4 2 3 
6764 6 0.680612 0.221795 0.997645 -3 6 -2 
6176 5 0.420095 0.242384 0.0113584 -3 1 0 
7830 6 0.194983 0.302029 0.0351411 1 0 3 
5197 6 0.736243 0.269658 0.0478445 0 4 1 
7031 5 0.745054 0.29958 0.991168 1 0 3 
6224 5 0.22553 0.325239 0.0247822 3 0 -1 
6436 6 0.876534 0.273455 0.96443 2 0 0 
5441 6 0.817702 0.334388 0.0140644 6 0 -1 
7724 6 0.866954 0.369809 0.00524104 -3 4 2 
6725 5 0.944435 0.352726 0.00801814 3 -4 -2 
6583 6 0.984104 0.411706 0.00535236 -6 -3 -4 
8791 5 0.112525 0.346752 0.979418 -5 5 -2 
5418 6 0.546622 0.361989 0.0231691 -3 -4 4 
6766 6 0.511838 0.3716 -0.000314611 -1 -2 2 
8194 5 0.737257 0.423049 0.0224255 0 -1 -1 
8811 6 0.790598 0.433708 0.0348227 5 -3 -4 
5085 6 0.783142 0.443814 0.0298862 -5 1 2 
6481 6 0.836738 0.444625 0.029022 3 -5 1 
8502 6 0.176056 0.486948 0.0373424 1 -2 2 
8426 5 0.603922 0.461678 0.00986429 1 -3 1 
5291 6 0.0656088 0.516108 0.0251426 0 2 1 
7708 5 0.724992 0.500398 -0.00477432 0 2 7 
7863 6 0.085305 0.559285 0.988402 1 3 0 
7174 5 0.420494 0.553531 0.996323 3 -7 -3 
7494 6 0.857487 0.507565 0.979072 3 1 4 
8854 5 0.069894 0.570092 0.986845 0 -2 1 
5610 6 0.167979 0.55522 0.0117261 3 4 -2 
5517 5 0.297184 0.598741 1.00045 3 2 2 
6975 6 0.647316 0.584515 0.995292 1 1 2 
6207 6 0.109691 0.652508 -0.00326406 -4 1 -3 
5700 5 0.492009 0.573808 0.0154135 -4 6 1 
5613 5 0.681561 0.616141 0.00558488 -4 -3 5 
6729 6 0.740945 0.580337 0.990497 1 1 1 
7855 5 0.487605 0.626479 0.984646 1 0 0 
5174 6 0.761893 0.680309 0.000933506 -1 4 -1 
8417 5 0.782896 0.628299 0.998197 0 -2 -3 
5274 5 0.901199 0.610079 0.976468 -3 -1 -3 
6103 5 0.32826 0.68858 0.0307179 4 0 -4 
5648 5 0.427015 0.669827 0.0248488 -2 -6 -2 
8141 5 0.859337 0.645204 0.015189 0 1 -1 
8690 5 0.358381 0.689585 0.00196647 0 -1 1 
7207 5 0.904294 0.716485 0.0555668 -4 3 4 
8196 5 0.703229 0.708695 0.0119754 -2 -1 2 
6691 6 0.0944719 0.751752 0.0073038 2 -2 4 
5345 6 0.116197 0.760491 0.997377 2 -5 1 
8202 5 0.987632 0.744544 0.974593 0 3 -3 
7792 6 0.253135 0.747892 -0.00709575 2 2 -7 
6581 5 0.411835 0.76626 0.0136568 0 -3 -4 
8580 6 0.690678 0.760645 0.0164954 0 1 -2 
6263 5 0.757424 0.777508 0.980862 -4 -3 3 
5337 5 0.899283 0.757484 0.0530216 0 1 1 
6823 6 0.41964 0.833841 0.0145145 3 -3 -2 
5393 5 0.870173 0.790785 0.0231147 3 0 2 
8142 6 0.0596507 0.781954 0.0243548 -3 -1 2 
7609 5 0.3062 0.815367 0.992513 3 0 2 
7074 6 0.63174 0.802305 0.976002 -4 2 -4 
7475 5 0.779668 0.80535 0.00601916 -3 2 -3 
8444 6 0.787588 0.765851 0.0106641 2 2 -4 
7993 5 0.233098 0.872935 0.977134 -6 3 -6 
8586 5 0.312455 0.873027 1.0003 -1 3 4 
5318 6 0.407178 0.867417 0.0408076 6 2 1 
6411 6 0.66601 0.884934 0.0177127 -1 -1 -1 
8234 6 0.149213 0.917201 0.0202829 0 0 0 
5655 6 0.661464 0.919959 0.014767 1 -2 -3 
8827 6 0.104528 0.905255 0.0223093 1 0 2 
5315 6 0.647641 0.930504 1.00188 1 2 0 
8019 6 0.749762 0.928032 0.997484 -3 -1 2 
6369 6 0.861035 0.986326 0.981153 -2 -5 3 
7117 6 0.874924 0.940741 0.990817 -2 -2 2 
5048 6 0.470935 0.957395 0.0559552 -3 3 1 
6924 6 0.177561 0.989772 0.0177326 0 1 -2 
7077 6 0.527919 1.00457 0.072541 -1 -2 1 
5659 5 0.831227 0.014595 0.0216091 -3 -2 3 
6208 6 0.93001 0.0142112 0.0270998 0 1 0 
6306 5 0.10324 0.0571067 0.994828 -3 -3 -6 
6250 6 0.201945 0.0530691 0.037983 3 1 1 
8130 5 0.218461 0.129271 0.979659 3 0 1 
8710 5 0.405092 0.111052 0.00530144 -3 5 2 
6423 6 0.535747 0.0955521 0.0255367 -2 4 -2 
8253 5 0.732553 0.132088 0.0110022 2 -2 3 
7915 6 0.0443504 0.109752 0.0314161 4 -5 6 
8574 6 0.247615 0.144977 0.0493613 -1 -2 0 
5364 5 0.301802 0.155887 0.0627097 -1 -2 0 
6338 6 0.522168 0.149132 0.0284516 -3 -2 -5 
5054 5 0.897817 0.14476 0.0245689 -1 1 1 
5935 6 0.794945 0.2081 0.0013125 -1 3 -3 
8713 6 0.98211 0.194114 0.0395649 -1 0 2 
7573 5 0.108976 0.195437 0.0386541 -2 2 3 
7773 6 0.321278 0.231178 0.0401743 -4 -5 -1 
6059 5 0.445271 0.243476 0.0449553 -2 2 0 
8323 5 0.485917 0.210577 0.0107846 -2 4 -2 
7580 5 0.506386 0.243197 0.0107709 0 5 0 
5770 6 0.514414 0.23137 0.0149705 4 -1 2 
6146 6 0.611837 0.217533 0.0126996 -6 -3 -1 
7709 5 0.376134 0.263862 0.0373074 -3 -1 0 
7770 5 0.250258 0.347661 0.00936809 -1 -6 3 
5841 5 0.383461 0.277328 0.0244694 1 1 -1 
6883 5 0.842496 0.353221 0.0366569 -2 6 -2 
5592 6 0.284296 0.307075 0.00499607 2 -1 7 
5327 6 0.432989 0.303264 0.0342739 0 0 -1 
5195 5 0.848289 0.297869 0.0213681 1 1 1 
6364 5 0.111956 0.378383 0.0683602 6 0 2 
7144 5 0.519115 0.349947 0.0266236 -2 -5 0 
7267 6 0.853408 0.345231 0.0669432 0 -5 6 
5669 6 0.96869 0.341182 0.0389474 -4 0 6 
5353 6 0.607224 0.365037 0.0538955 -6 0 1 
5447 5 0.669239 0.390871 0.0345133 2 -1 0 
8567 6 0.728136 0.335852 0.0757301 -4 4 0 
6470 5 0.95966 0.409592 0.0228483 -2 6 0 
6197 6 0.564312 0.384874 0.98631 2 0 1 
6274 6 0.695044 0.364397 0.0264162 4 -1 3 
6651 5 0.056399 0.43005 0.0211055 -4 0 4 
7053 5 0.54504 0.418483 0.0512295 0 3 1 
6120 6 0.946631 0.396881 0.0428462 1 -2 -4 
5951 6 0.740644 0.454073 0.0686613 -4 -2 -6 
5606 6 0.590933 0.473746 0.0324191 -1 -6 -3 
5637 5 0.927985 0.464129 0.0213171 -2 -2 -1 
5607 5 0.672867 0.482208 0.00660776 -4 -2 -1 
8995 5 0.0193023 0.542802 0.0612404 -2 1 0 
7437 6 0.388011 0.556591 0.0341722 0 0 1 
5773 5 0.60636 0.527086 0.0771945 1 4 5 
7270 6 0.127012 0.570506 0.0170208 0 1 0 
7193 6 0.290876 0.631067 0.0560721 0 1 -6 
8752 6 0.989779 0.613337 0.0542785 -4 4 2 
5533 5 0.239576 0.612432 0.0410177 -1 1 5 
6488 5 0.741375 0.656232 0.0311749 -4 -3 2 
5045 6 0.567172 0.672194 0.0691311 -4 2 0 
7453 6 0.0782943 0.718168 0.0200926 3 -3 1 
7529 6 0.257021 0.67523 0.0541629 -2 2 1 
8093 6 0.59977 0.713971 0.016189 1 -2 -3 
6113 5 0.910147 0.734098 0.00487669 -3 -1 2 
6228 6 0.324257 0.752131 0.0609832 0 1 5 
6047 5 0.527415 0.728986 0.993408 -2 0 -5 
8346 5 0.127663 0.711394 0.00481685 -1 2 2 
7969 5 0.403094 0.752456 0.0637309 -2 -1 2 
8210 5 0.536349 0.776056 0.0630953 -1 4 0 
7519 5 0.542982 0.769335 0.989406 6 -1 0 
6486 6 0.53862 0.787455 0.0555067 -1 -5 -1 
6134 5 0.495034 0.826567 0.0472915 0 -1 0 
8926 6 0.794669 0.851661 0.0165242 -5 -2 8 
7802 5 0.353885 0.84812 0.0225235 1 -4 1 
6471 5 0.441539 0.847557 0.0179423 -4 -8 -3 
7091 6 0.529671 0.889437 0.0359128 0 1 -1 
6108 6 0.425331 0.903638 0.00737682 -3 -4 1 
5433 5 0.559142 0.885065 0.0278666 6 1 1 
8939 6 0.0200457 0.914319 0.0131072 -3 6 4 
7446 6 0.478134 0.944746 0.0487382 2 0 5 
8970 6 0.0663313 0.931575 0.039209 -5 -3 -4 
6007 6 0.794364 0.951452 0.0211234 -5 1 0 
6751 6 0.759828 0.95423 0.997019 -3 -2 8 
6466 6 0.0890235 0.0213317 0.0638673 -2 -4 0 
5759 6 0.762874 0.0984776 0.0500722 3 -3 -6 
6591 5 0.445418 0.00814766 0.0558886 -4 0 -1 
6723 5 0.742137 0.042325 0.0591491 3 -5 5 
6433 5 0.898814 0.0186076 0.0801152 3 1 2 
8582 6 0.131576 0.0552709 0.036486 0 6 3 
5559 6 0.24262 0.0826105 0.081525 5 0 -4 
5897 6 0.43606 0.0763005 0.0661298 -1 -3 4 
7299 5 0.668442 0.0735474 0.070364 6 -4 1 
5249 6 0.341228 0.117295 0.0504519 2 -4 0 
6644 6 0.862447 0.09847 0.0586258 -3 -5 -1 
5579 6 0.890403 0.117225 0.0446143 1 5 1 
6064 6 0.233822 0.0956583 0.0495866 5 3 5 
5143 5 0.701293 0.108033 0.043454 -5 5 -1 
5029 5 0.87294 0.133462 0.0734585 -2 -5 1 
7367 5 0.232535 0.150881 0.0814838 3 -2 -1 
6035 6 0.94116 0.182142 0.0549619 0 1 2 
5455 6 0.162596 0.222725 0.0583733 4 -2 -3 
6439 6 0.732544 0.207727 0.107395 2 4 3 
6416 6 0.20378 0.203607 0.0400026 4 -2 -3 
6223 6 0.376237 0.211755 0.102196 -1 4 -2 
5484 5 0.0848693 0.251023 0.0123131 -2 1 -2 
6992 6 0.397601 0.233837 0.079925 1 2 2 
7853 5 0.47824 0.295271 0.0505203 1 -4 -1 
6049 5 0.580792 0.308074 0.065566 0 -1 -6 
7528 6 0.81112 0.269649 0.0574347 4 -3 -5 
5937 6 0.341858 0.3262 0.033704 3 -1 2 
8370 5 0.604343 0.335083 0.061393 -10 1 -2 
7939 5 0.697617 0.343744 0.0193969 -1 0 2 
5077 6 0.953092 0.380692 0.0321698 0 -1 5 
8839 5 0.997682 0.354898 0.0536754 1 -2 3 
8601 6 0.476492 0.404071 0.0519065 4 3 5 
7530 5 0.467993 0.462037 0.071332 0 0 1 
8281 5 0.627143 0.39306 0.0920633 -1 6 2 
6700 5 0.374601 0.467399 0.0709007 2 1 3 
8483 6 0.546394 0.473543 0.00290125 -3 -2 0 
7583 6 0.239783 0.463483 0.0281885 -2 -1 -2 
7854 5 0.12983 0.467874 0.0822585 0 3 5 
8357 5 0.61781 0.469223 0.0070276 0 -4 3 
5846 6 0.829567 0.53889 0.0450798 -3 2 2 
7657 5 0.883497 0.547944 0.0452495 4 -3 -4 
8627 6 0.00660705 0.594308 0.0706083 -2 -5 -3 
8255 6 0.0859008 0.55645 0.0335949 3 -1 0 
5948 6 0.288977 0.575773 0.0569649 -2 -5 -2 
6012 5 0.193911 0.548481 0.0307579 -1 7 5 
6158 6 0.158793 0.589881 0.0600537 3 -3 -1 
6687 5 0.973739 0.544791 0.0909633 -3 6 4 
6020 6 0.226851 0.602006 0.0533287 2 -1 1 
6816 5 0.441097 0.585321 0.0596082 -4 -3 1 
5646 5 0.323277 0.663296 0.0931201 3 2 -4 
8342 6 0.682273 0.598859 0.0289633 -1 -2 -2 
7457 6 0.928642 0.61404 0.0370855 0 1 3 
7827 5 0.222373 0.655709 0.05493 0 -8 1 
6871 5 0.656202 0.649728 0.0626854 1 -5 0 
6461 6 0.760508 0.676474 0.0919539 1 1 0 
5544 5 0.151203 0.670522 0.0553522 -1 -1 4 
6616 5 0.0024785 0.718167 0.0746298 0 3 -1 
6964 6 0.0396352 0.688939 0.101402 -7 -1 1 
7641 6 0.396805 0.663279 0.0566331 -2 -4 3 
7249 5 0.624403 0.702636 0.0495567 2 1 1 
6910 6 0.0406737 0.727587 0.0358541 2 3 -1 
6079 5 0.599737 0.720477 0.0796665 3 0 0 
7195 6 0.988791 0.747253 0.0490305 -4 5 6 
5899 5 0.166193 0.707322 0.0683331 -5 3 1 
7534 6 0.398739 0.727566 0.0925544 2 -3 1 
8739 5 0.736645 0.695711 0.020234 1 -1 3 
5688 5 0.940568 0.73368 0.0348073 0 2 4 
6577 6 0.145228 0.767719 0.0321091 1 1 3 
5047 5 0.0302158 0.797045 0.0293869 0 1 -3 
7152 5 0.301264 0.795268 0.0265045 2 -3 1 
5475 6 0.779745 0.79825 0.0429078 2 4 -2 
8182 6 0.482235 0.779586 0.0325295 0 -3 1 
8456 5 0.632112 0.825113 0.0529744 -1 -7 -1 
7478 6 0.303043 0.877353 0.00849565 1 3 -4 
7978 6 0.318658 0.83587 0.0812387 -1 -5 -4 
6449 6 0.350985 0.827898 0.0474201 -4 0 -2 
5549 5 0.760849 0.845732 0.069608 -5 -1 -3 
7860 5 0.0318734 0.869999 0.0906849 1 1 -1 
6828 5 0.321854 0.876455 0.0433274 0 -1 -2 
5282 6 0.949049 0.917368 0.0604121 -6 -1 -1 
7419 6 0.0498534 0.946576 0.0909682 -3 0 1 
8734 5 0.982799 0.93929 0.0422112 -3 -3 -3 
6659 5 0.506269 0.92694 0.0214357 0 0 0 
8183 6 0.678969 0.908515 0.0561744 0 -1 6 
6206 6 0.262861 0.971077 0.0303748 -1 -2 -5 
8660 5 0.484844 0.950981 0.0628545 3 -2 -2 
8148 6 0.32328 0.0175469 0.0800896 -3 8 -1 
7426 6 0.956927 0.0280664 0.0871435 4 -3 3 
7400 6 0.666225 0.0451737 0.0552417 -2 4 -2 
6592 6 0.663559 0.016818 0.0909432 -2 -3 1 
5052 6 0.496942 0.133222 0.0681781 2 4 -4 
6777 5 0.863111 0.0957313 0.0720639 2 -2 -2 
5256 5 0.173829 0.15673 0.0911405 0 3 1 
5101 5 0.288585 0.097637 0.0837343 0 -1 -1 
5730 6 0.812083 0.16612 0.0437379 6 2 0 
8859 6 0.169401 0.122725 0.1102 3 1 3 
8437 5 0.407908 0.166973 0.132314 1 -2 5 
7605 6 0.494007 0.128133 0.0429995 3 2 -1 
5665 6 0.23631 0.167963 0.11369 0 1 -1 
5701 5 0.618635 0.211902 0.0200131 2 -2 1 
8249 5 1.00011 0.185783 0.127622 1 1 -1 
8590 5 0.0838987 0.234532 0.0633867 -1 -2 5 
5330 6 0.067467 0.256616 0.0923525 0 -2 2 
8028 5 0.6068 0.255388 0.0562195 0 3 -1 
6095 6 0.771331 0.263 0.068603 0 -2 2 
6063 6 0.0966531 0.280042 0.0869482 2 0 -1 
8717 5 0.153842 0.302672 0.0665033 6 5 2 
6405 5 0.266204 0.279532 0.0757253 6 -2 -3 
5729 6 0.908123 0.279868 0.0723307 0 -3 4 
8309 6 0.347327 0.39801 0.0791337 -4 2 1 
5313 5 0.62607 0.403995 0.0690839 -1 0 4 
5037 5 0.714836 0.398891 0.0838041 -1 -2 1 
8707 5 0.0571417 0.404584 0.0813231 0 0 0 
5224 6 0.867261 0.392099 0.0877425 1 -2 6 
8001 5 0.482805 0.445827 0.0827718 0 2 5 
8339 6 0.657484 0.38569 0.0499771 2 -3 3 
6811 6 0.696714 0.383029 0.106153 2 1 -1 
6630 6 0.877476 0.450224 0.102649 0 -2 3 
6444 6 0.263679 0.448142 0.0812048 0 -6 -5 
5815 5 0.543826 0.394196 0.0497697 -1 2 -5 
5368 6 0.720619 0.454131 0.0741554 -6 -4 4 
7600 6 0.920474 0.433066 0.0345107 -2 0 0 
8861 6 0.163896 0.439281 0.110294 2 3 5 
7595 5 0.545749 0.467269 0.0771105 -1 -3 1 
7143 5 0.726957 0.466995 0.0599651 0 3 1 
8519 6 0.902781 0.434269 0.0466487 -2 -1 -2 
6858 5 0.322182 0.485414 0.0810191 4 -2 -5 
5924 6 0.717721 0.497563 0.0671814 6 -2 2 
8451 6 0.735474 0.498658 0.0792444 0 1 -2 
5267 5 0.745812 0.506668 0.0460998 -1 0 -2 
5366 5 0.79978 0.494274 0.0814959 -2 5 0 
6923 6 0.256842 0.523319 0.0587509 -4 2 3 
7469 5 0.340856 0.538001 0.0542732 5 -1 5 
7888 6 0.00618039 0.539468 0.0369622 3 -3 -1 
8941 5 0.437205 0.53832 0.107583 -1 3 1 
7489 5 0.709294 0.586585 0.10861 5 -2 -3 
8718 6 0.40006 0.608028 0.0683806 1 4 3 
7889 5 0.641615 0.622599 0.0654425 0 1 3 
5976 6 0.219498 0.626998 0.0791584 -1 2 3 
8432 6 0.234178 0.612634 0.0957347 7 1 -3 
8598 6 0.276733 0.608471 0.0988686 2 0 -4 
7178 6 0.77637 0.624886 0.0785412 4 -3 -3 
5554 5 0.823688 0.72509 0.110862 5 -5 -1 
7716 6 0.920201 0.761662 0.0613153 3 0 6 
5155 5 0.959 0.701823 0.0641725 3 4 0 
6980 6 0.0528799 0.722072 0.0739353 0 0 1 
7577 6 0.214306 0.756485 0.081518 0 -2 0 
5040 5 0.937788 0.729548 0.0908804 -3 3 -1 
8365 6 0.303289 0.763225 0.077457 5 -4 -2 
8834 5 0.441425 0.752089 0.0714001 7 -7 4 
5268 5 0.29395 0.796033 0.0889677 4 -2 -5 
7347 5 0.884946 0.782055 0.0721603 -2 5 2 
7849 6 0.208696 0.811155 0.0854754 -1 -2 -1 
8792 5 0.672995 0.80896 0.0643472 -1 0 -3 
8353 5 0.356299 0.833958 0.0607628 0 -1 -4 
6121 6 0.441572 0.864571 0.101546 4 -7 3 
8037 6 0.483278 0.859252 0.0507342 1 0 5 
5063 5 0.420547 0.848614 0.0895446 -1 -2 2 
8328 5 0.543351 0.845637 0.0735914 -1 0 -3 
7320 6 0.975873 0.871642 0.0667885 -4 0 1 
7850 6 1.00318 0.846843 0.0877359 -5 4 2 
6867 5 0.53969 0.904156 0.0997044 -7 1 1 
8616 6 0.768578 0.904223 0.119995 1 3 2 
6452 5 0.135257 0.928794 0.0967094 3 5 -2 
6270 5 0.789049 0.975525 0.0551067 -4 -5 3 
5023 6 0.829484 0.915309 0.075974 5 -4 -3 
8138 6 0.0736192 0.0107018 0.085379 2 -1 2 
6262 5 0.664931 0.978925 0.0991196 2 4 -1 
5355 6 0.103459 0.0159728 0.101481 4 -1 -1 
8994 6 0.533884 0.970696 0.0682134 -2 -4 -1 
8087 5 0.694821 0.984274 0.0710328 -2 0 -2 
6340 5 0.534608 0.0602378 0.121993 2 1 -5 
8540 5 0.626561 0.0338324 0.1101 3 0 -3 
6826 5 0.852286 0.0559039 0.11014 -4 2 -1 
8927 6 0.116711 0.115235 0.0867087 3 -1 -6 
8385 6 0.702503 0.114098 0.100055 -8 2 0 
5127 6 0.213262 0.106981 0.0979275 -2 -1 2 
5631 6 0.168068 0.225603 0.0920859 2 -1 5 
5482 5 0.349017 0.184772 0.0911063 2 6 -1 
7867 6 0.913662 0.258847 0.120947 -1 -2 6 
8312 6 0.207233 0.265137 0.121192 0 3 1 
7188 5 0.524229 0.249348 0.102937 0 -2 -4 
7402 6 0.652496 0.252136 0.0902277 0 -1 3 
7755 5 0.0498086 0.278405 0.0837578 3 -3 1 
8813 5 0.145609 0.296004 0.0620562 2 -1 -1 
6525 5 0.200172 0.283142 0.124028 1 -1 6 
6953 6 0.371866 0.316063 0.0870325 0 0 -2 
5684 5 0.744756 0.324522 0.113142 0 3 3 
6068 5 0.728062 0.304312 0.0988948 0 4 -6 
5060 6 0.162238 0.364941 0.103716 3 0 -3 
5963 5 0.40859 0.352838 0.113915 4 0 4 
5628 6 0.0818541 0.377655 0.12394 -2 -3 0 
6652 5 0.0953027 0.377834 0.118274 0 1 -5 
5885 6 0.709137 0.407033 0.127945 3 2 0 
8803 6 0.104902 0.465147 0.0743916 3 -3 3 
7021 6 0.107692 0.481197 0.124342 -1 3 -1 
5357 5 0.292296 0.424069 0.0511415 2 0 -1 
8473 6 0.335304 0.443484 0.129261 5 0 4 
6594 5 0.569952 0.465101 0.114587 -2 0 -4 
6456 6 0.362654 0.474006 0.0799629 -4 0 -4 
6589 5 0.254211 0.511588 0.0751395 3 -3 9 
6056 6 0.484688 0.516068 0.107258 -2 -4 0 
7948 5 0.827893 0.500818 0.102201 0 1 0 
6838 5 0.871561 0.499656 0.126357 -2 -1 0 
8805 5 0.365418 0.551617 0.105174 2 1 3 
5881 5 0.615144 0.527768 0.102098 -4 -2 -2 
7361 6 0.714039 0.550515 0.080083 2 1 3 
5797 5 0.149397 0.561941 0.123199 -1 -1 1 
7116 6 0.181391 0.571566 0.0975456 3 0 -1 
8474 5 0.67609 0.583836 0.115525 -6 -5 1 
5443 5 0.0978135 0.566941 0.0412672 8 -1 3 
7700 5 0.817587 0.583215 0.101216 0 3 -3 
8295 5 0.761197 0.649304 0.0776206 0 -3 3 
7909 6 0.408162 0.62088 0.0945402 2 0 3 
8334 6 0.67662 0.628338 0.0903638 0 -2 0 
8708 5 0.785694 0.642283 0.0767734 3 -1 0 
5693 5 0.0986335 0.66782 0.0737153 8 4 1 
6469 5 0.804971 0.716392 0.147212 5 7 -1 
7261 6 0.250028 0.733524 0.127279 -4 -2 7 
5993 5 0.916168 0.721984 0.103402 -2 0 1 
6997 5 0.470768 0.748885 0.100892 3 0 2 
7321 6 0.209386 0.830747 0.0988801 1 -1 3 
5822 5 0.44342 0.814087 0.0883091 0 2 -2 
5775 6 0.10469 0.822526 0.102966 -3 0 -1 
7652 6 0.465018 0.832106 0.104411 3 -2 -5 
7481 6 0.714177 0.850006 0.125506 -1 -4 0 
7933 6 0.857011 0.840423 0.114279 1 7 1 
7125 5 0.264455 0.886639 0.109467 3 -1 3 
8646 6 0.346161 0.886127 0.122182 -2 -2 -5 
8787 6 0.504466 0.852097 0.12244 -1 -1 -1 
6627 5 0.694817 0.90664 0.110065 3 0 0 
6739 5 0.979804 0.942013 0.0922589 3 3 9 
6147 6 0.490674 0.92693 0.11563 0 -1 4 
7938 6 0.77585 0.892125 0.10337 -4 -5 -7 
6493 6 0.543962 0.958393 0.0992579 0 -2 -1 
5140 5 0.521532 0.95384 0.111628 0 -4 1 
8577 5 0.644275 0.944329 0.107753 0 2 0 
6870 6 0.778946 0.982544 0.0977216 1 1 0 
6987 6 0.0989584 0.968468 0.105167 -1 -1 5 
5703 6 0.363182 0.0246255 0.115858 -4 2 2 
7331 5 0.566054 0.995188 0.110289 -2 1 1 
7501 5 0.171738 0.0369221 0.114789 0 -2 0 
7576 6 0.426026 0.0347008 0.133094 -1 0 -4 
5852 5 0.548769 0.0157199 0.175749 -4 -1 4 
7967 6 0.517367 0.0364951 0.111222 -1 1 2 
5332 5 0.533659 0.0578013 0.133956 4 1 0 
8494 6 0.770133 0.0272503 0.166877 1 4 4 
7740 6 0.245954 0.0146847 0.0761902 8 1 -2 
8011 6 0.543688 0.0968501 0.162595 0 4 2 
6065 5 0.741345 0.0491446 0.130199 -3 -5 -3 
5379 5 0.850565 0.0259539 0.0998708 -6 1 6 
7546 6 0.7669 0.0665399 0.116791 -1 2 -1 
8593 5 0.0663995 0.0905214 0.127787 3 0 -1 
7303 6 0.509586 0.0898983 0.090062 2 -1 -1 
6967 5 0.0576622 0.110381 0.141735 -4 0 0 
5620 5 0.356833 0.0927261 0.110447 0 2 -1 
8404 5 0.564311 0.141691 0.139341 1 5 3 
8697 6 0.669332 0.0955216 0.119425 1 -1 3 
8265 6 0.733352 0.107465 0.142574 1 2 4 
8493 6 0.236081 0.167617 0.125772 6 3 0 
8976 5 0.277735 0.18622 0.0803224 5 2 3 
6954 6 0.187228 0.201115 0.119732 5 0 -4 
6929 5 0.241661 0.250111 0.143426 -5 1 -5 
5913 6 0.362702 0.209354 0.081189 -5 3 1 
7264 5 0.460476 0.219229 0.141933 4 2 0 
7656 6 0.606169 0.239244 0.132469 3 2 2 
6679 5 0.814787 0.24936 0.115733 4 -2 -1 
6273 6 0.214245 0.264532 0.114952 3 0 -1 
8466 5 0.322497 0.185062 0.0930987 -1 2 3 
7417 6 0.73112 0.240774 0.0695091 1 2 1 
5762 5 0.179148 0.270346 0.138785 -1 1 -6 
5787 5 0.637311 0.330294 0.09907 -1 5 0 
7483 6 0.667436 0.282165 0.134309 4 2 1 
6272 5 0.686467 0.288153 0.097539 -1 0 2 
8796 5 0.79636 0.30529 0.130675 0 -2 -4 
5120 5 0.159338 0.34038 0.144406 -1 2 -4 
6797 6 0.203527 0.317962 0.110952 0 -1 2 
8914 6 0.72636 0.399952 0.116733 0 3 4 
6403 6 0.52325 0.419809 0.121927 0 -5 0 
5167 6 0.364689 0.444263 0.102438 0 0 5 
5348 6 0.714052 0.40628 0.122499 -1 3 3 
8049 6 0.396303 0.4218 0.128599 -2 -4 2 
7250 6 0.0981504 0.500245 0.138851 2 1 -2 
6549 5 0.357408 0.459533 0.145805 -3 -2 1 
8933 6 0.403564 0.418123 0.1449 -2 -3 -3 
7622 6 0.13231 0.487938 0.140104 3 -1 2 
6077 6 0.523537 0.545388 0.0922747 -2 -3 -1 
5024 6 0.965524 0.540163 0.129218 -1 -1 0 
6902 5 0.0403325 0.550142 0.108019 3 -2 -1 
6402 5 0.186545 0.54075 0.107056 -3 3 4 
6868 6 0.31111 0.601963 0.10139 4 -2 2 
5369 6 0.510567 0.58907 0.116119 4 0 -3 
8435 6 0.786268 0.591063 0.137741 -6 -6 -3 
8246 6 0.440936 0.609972 0.145326 1 -2 0 
7493 5 0.950518 0.594194 0.130826 0 0 1 
5992 6 0.481042 0.648978 0.107925 1 4 0 
8311 5 0.587628 0.698198 0.08816 -1 7 -1 
5884 5 0.90027 0.676889 0.147264 -2 -2 1 
8737 5 0.279234 0.723115 0.110629 0 -9 3 
5111 6 0.448249 0.772221 0.115752 -2 0 2 
8544 6 0.366566 0.760907 0.0990685 -4 0 -1 
8923 6 0.539632 0.767716 0.1262 0 -2 0 
8225 5 0.219947 0.811434 0.133396 4 -4 2 
5793 5 0.39294 0.777773 0.146018 3 -4 6 
6191 5 0.564284 0.804675 0.11474 -3 -3 0 
6941 5 0.640444 0.784753 0.129203 -1 -2 0 
7454 6 0.181982 0.80504 0.129287 -2 1 1 
8165 6 0.437656 0.809187 0.124048 3 -1 1 
7220 5 0.44524 0.834954 0.129896 -2 1 -3 
8936 5 0.572437 0.885333 0.146464 1 -6 2 
6760 5 0.880644 0.846831 0.166694 2 1 2 
8457 6 0.0475542 0.885315 0.0798158 0 1 -3 
8975 5 0.307887 0.86602 0.119092 0 0 -1 
7213 6 0.517663 0.866561 0.140246 2 2 -2 
7387 5 0.803795 0.878288 0.125944 2 -6 2 
6808 5 0.240551 0.885556 0.0858443 5 2 2 
7522 5 0.644762 0.924849 0.122944 4 -3 -1 
5173 6 0.0586695 0.930853 0.103514 6 -4 1 
7122 6 0.243905 0.0026624 0.15745 -1 -1 1 
8672 6 0.361957 0.970581 0.122057 5 -5 -2 
5223 6 0.188938 0.00759896 0.146583 -3 -3 -5 
8133 6 0.603945 0.986086 0.0922491 2 -3 0 
6529 6 0.407788 0.0663469 0.112122 -3 1 0 
7224 6 0.0526995 0.0536508 0.181832 3 -1 4 
7431 6 0.704312 0.037319 0.113365 2 4 -9 
5794 6 0.908649 0.0104069 0.155184 -1 10 3 
7030 5 0.983164 0.0608758 0.162392 -1 -4 -1 
6253 6 0.620471 0.0594838 0.137266 0 0 -3 
6231 5 0.957364 0.0702127 0.162606 0 0 3 
7471 6 0.221811 0.0851926 0.13911 3 -2 1 
5145 6 0.807312 0.0818486 0.16687 -8 2 -1 
7510 6 0.487837 0.105314 0.148404 0 -4 -2 
7465 6 0.622383 0.123183 0.15875 1 3 -3 
7842 6 0.0848343 0.173093 0.132066 -3 0 1 
8860 6 0.185374 0.104454 0.172823 6 0 -5 
5298 5 0.746877 0.13392 0.143823 -3 -4 3 
5689 6 0.00633658 0.190447 0.211923 2 2 5 
8810 6 0.347832 0.16417 0.124443 -4 2 0 
8288 6 0.180255 0.199216 0.148479 3 1 2 
7774 5 0.312191 0.216437 0.121951 1 2 4 
6511 6 0.947469 0.172284 0.131438 1 -2 2 
6357 5 0.290171 0.21096 0.125004 -2 7 2 
5262 6 0.492212 0.246342 0.160359 -2 -6 -2 
8954 6 0.52289 0.268598 0.143802 -3 1 -1 
6534 6 0.302278 0.242351 0.160481 -3 2 0 
5831 6 0.104739 0.311765 0.14818 0 2 -3 
7083 5 0.190076 0.329129 0.18548 2 0 -4 
5923 5 0.338953 0.332715 0.12262 1 -6 0 
6710 6 0.653825 0.312333 0.155447 -7 -5 -1 
7383 5 0.816659 0.318525 0.125602 1 6 3 
8828 6 0.73893 0.354996 0.119235 -4 0 2 
8892 5 0.0184391 0.339346 0.148968 1 0 -2 
6724 6 0.0708036 0.325845 0.145949 -5 -3 7 
6663 6 0.267178 0.347987 0.195669 0 -5 4 
5765 5 0.776318 0.358911 0.169238 -2 1 0 
6494 6 0.276032 0.383982 0.156033 1 3 0 
7275 6 0.834477 0.388045 0.124907 1 4 -1 
5862 6 0.987844 0.418704 0.137463 -2 3 3 
7427 6 0.699301 0.445104 0.167337 5 0 -1 
6907 5 0.97055 0.430679 0.121332 5 1 3 
7713 5 0.283125 0.426107 0.123225 -4 3 2 
6982 6 0.931742 0.403595 0.16236 1 -1 1 
6790 5 0.12817 0.4648 0.157721 1 -3 -1 
5410 6 0.723758 0.46299 0.16862 -3 0 1 
5808 6 0.918397 0.449352 0.140452 -3 0 -1 
7421 5 0.812829 0.557282 0.13485 -7 -1 3 
6989 6 0.686423 0.559427 0.15486 -1 -6 1 
8836 6 0.907002 0.540838 0.175787 -4 1 3 
5747 5 0.952151 0.543821 0.14622 -3 2 0 
7336 6 0.622388 0.58724 0.140046 -1 -1 1 
6820 6 0.231533 0.583707 0.163604 -1 3 -4 
5042 6 0.414389 0.607929 0.171536 1 0 4 
7086 6 0.530997 0.656153 0.191936 0 4 0 
7388 5 0.934196 0.646973 0.140608 4 0 7 
6351 6 0.181457 0.618843 0.166225 -1 -2 5 
6881 5 0.452182 0.651189 0.120794 3 -1 1 
7139 6 0.765404 0.617056 0.166514 -2 1 1 
5772 5 0.771513 0.672546 0.130362 3 2 0 
6813 5 0.984485 0.62502 0.186893 -2 -2 0 
8336 6 0.36194 0.638193 0.151858 -7 4 -3 
7059 5 0.50526 0.69177 0.184715 3 1 -1 
5363 6 0.538453 0.657182 0.171622 -7 -1 0 
8648 5 0.812341 0.671309 0.128044 -2 0 2 
5400 6 0.240227 0.718898 0.137178 2 5 1 
8115 5 0.53246 0.754104 0.120544 -3 1 2 
8477 6 0.846849 0.711171 0.162065 -5 -1 -1 
7011 6 0.852256 0.70807 0.157155 -2 -2 1 
8180 5 0.321604 0.730555 0.161905 -1 -5 0 
5148 6 0.272923 0.791913 0.153932 -2 0 -2 
6178 6 0.339188 0.785482 0.149618 1 2 -2 
7896 5 0.588089 0.791278 0.160065 2 -6 2 
6983 6 0.559951 0.780854 0.138042 -4 -4 -1 
8423 5 0.546959 0.763159 0.151987 0 -1 1 
6721 6 0.698357 0.749278 0.172823 -1 5 -1 
5139 5 0.154897 0.814375 0.152813 -1 2 2 
5129 6 0.33311 0.816052 0.114803 0 2 -2 
5477 6 0.866753 0.786009 0.176547 0 3 1 
7071 5 0.229823 0.821903 0.144841 0 -1 -1 
8623 5 0.307427 0.872548 0.17575 2 -3 -1 
7351 6 0.752662 0.895661 0.152112 -2 1 -1 
6380 5 0.0179836 0.887738 0.137971 -3 1 2 
5849 5 0.913196 0.929917 0.122594 0 0 2 
5711 5 0.344178 0.955685 0.155384 -2 0 5 
7520 5 0.635571 0.952718 0.145873 0 -4 -1 
6174 6 0.111995 0.964776 0.14708 -3 3 -2 
7816 5 0.638365 0.990201 0.149168 2 -4 2 
5967 5 0.0362672 0.0349079 0.137416 -1 0 4 
6758 6 0.0641202 0.0299573 0.155402 0 0 -1 
8883 6 0.411943 0.0185852 0.13714 0 -2 2 
8636 6 0.97162 0.0734993 0.147906 4 1 -1 
6920 5 0.333785 0.0481008 0.216882 1 1 0 
6792 5 0.80916 0.087947 0.150305 1 -2 1 
8096 6 0.869382 0.0724862 0.220377 -1 -1 -5 
5012 5 0.296301 0.108842 0.159118 3 5 -5 
8799 5 0.841866 0.120999 0.147736 2 0 2 
5548 6 0.997716 0.123936 0.199405 4 5 1 
8203 6 0.650219 0.108095 0.16599 -2 0 -3 
8247 6 0.907189 0.0935147 0.175135 4 -2 5 
7228 6 0.580047 0.211985 0.169044 -7 3 -1 
8655 5 0.761956 0.217838 0.17022 -6 -3 -2 
8555 5 0.262137 0.199064 0.159799 3 4 0 
6277 5 0.949092 0.180958 0.157935 -2 0 -5 
6286 6 0.40543 0.170563 0.172125 -2 1 0 
6582 6 0.554002 0.267961 0.171137 -1 -1 -5 
7248 5 0.571274 0.270604 0.169653 0 0 -1 
6891 6 0.76707 0.279004 0.191284 -2 4 2 
8429 5 0.757446 0.244361 0.150084 -9 0 5 
7758 6 0.385348 0.301391 0.160674 -2 -1 2 
8670 6 0.509471 0.275526 0.184902 4 0 3 
6530 6 0.656509 0.31994 0.16201 5 1 2 
5147 6 0.823198 0.293378 0.147187 5 3 -2 
5796 5 0.0240254 0.297324 0.146333 -1 -1 -2 
8974 6 0.966112 0.274325 0.138836 0 2 -7 
6004 5 0.404364 0.336489 0.165301 0 -3 3 
5099 6 0.507419 0.327482 0.157275 -1 -4 -2 
7566 6 0.768 0.295424 0.167905 -2 0 -4 
6626 5 0.96123 0.281823 0.12139 -1 4 0 
6895 6 0.169506 0.363334 0.188778 -3 2 2 
5883 5 0.45847 0.355238 0.184401 -2 1 1 
5284 6 0.785443 0.325214 0.206095 -5 -3 0 
7640 6 0.171577 0.397251 0.153248 1 -5 1 
6171 5 0.388212 0.38975 0.154087 -1 -1 1 
7746 5 0.654365 0.370905 0.183718 -3 -4 2 
8659 5 0.461881 0.365368 0.113557 2 -2 -3 
6091 5 0.317138 0.397999 0.166946 -4 0 -1 
8316 6 0.393408 0.388797 0.203652 3 -5 3 
7734 5 0.818448 0.419459 0.177503 6 1 1 
5008 6 0.0822761 0.453082 0.176384 3 -1 0 
8981 5 0.303613 0.397268 0.1694 1 1 2 
8583 5 0.528066 0.42323 0.153453 4 -3 0 
8871 5 0.312769 0.473707 0.168794 0 2 2 
6683 6 0.0757659 0.465484 0.131616 2 -1 -3 
7182 5 0.408463 0.47316 0.18 -1 0 1 
5863 5 0.488872 0.481223 0.20384 -2 -2 3 
7902 6 0.713903 0.497266 0.144732 -3 0 4 
8934 5 0.0847875 0.532079 0.187287 3 -3 -1 
5695 6 0.0975779 0.539144 0.173659 3 -1 0 
8625 5 0.393922 0.535001 0.162097 1 1 -4 
6496 6 0.549908 0.551972 0.188811 -3 1 0 
5519 6 0.121191 0.537265 0.182383 -3 1 -3 
7647 5 0.264513 0.554661 0.157101 -1 0 -4 
5854 6 0.646776 0.521745 0.150719 -1 2 0 
8056 6 0.705615 0.544178 0.1674 2 -3 -3 
6762 5 0.515791 0.560295 0.178407 -1 5 -1 
6161 5 0.0761934 0.612096 0.188074 -1 -1 -2 
8683 5 0.492969 0.558897 0.149745 1 0 -4 
5072 6 0.551323 0.575531 0.136824 6 1 1 
8592 5 0.72617 0.585766 0.167661 -3 -5 -8 
7762 5 0.804809 0.586101 0.174685 -4 2 0 
8333 5 0.93495 0.603892 0.159366 0 0 2 
7671 5 0.115316 0.603302 0.171645 -3 2 6 
7045 5 0.347043 0.566537 0.163867 -6 -2 -2 
7146 5 0.547077 0.62625 0.148909 -3 1 -6 
7090 5 0.564255 0.640193 0.193337 -2 -1 -4 
8414 6 0.148242 0.64081 0.179498 0 -1 0 
7988 5 0.429003 0.592144 0.156562 0 -3 6 
7666 6 0.781647 0.632707 0.165475 3 1 -2 
8082 6 0.0684155 0.670126 0.165316 3 1 1 
8452 6 0.162387 0.634091 0.131401 0 5 1 
6425 6 0.525772 0.667539 0.17678 1 3 -2 
7138 6 0.247588 0.73441 0.20137 -3 2 -3 
6301 5 0.325699 0.743261 0.165586 -3 -2 1 
5261 6 0.299664 0.75936 0.208371 2 4 0 
6746 6 0.865026 0.738267 0.174592 2 -2 6 
5108 5 0.841465 0.704153 0.203874 -2 0 3 
6681 5 0.956757 0.768334 0.18253 -2 -5 -1 
5123 6 0.183143 0.736289 0.193824 -6 0 3 
7349 6 0.431015 0.802392 0.151214 2 -2 0 
7389 5 0.782187 0.754652 0.129955 1 3 0 
6114 5 0.893569 0.768465 0.171583 1 7 4 
8702 6 0.054705 0.81999 0.135187 1 2 2 
7717 5 0.0219195 0.816181 0.169678 1 6 0 
8335 5 0.318424 0.833305 0.122215 -2 -4 -4 
8985 6 0.727721 0.820159 0.140233 -3 0 3 
7223 6 0.802712 0.819695 0.156585 -2 -1 -2 
7396 5 0.0169077 0.785921 0.12741 -7 1 -4 
7032 5 0.990586 0.866879 0.216991 -1 -1 3 
7908 6 0.843356 0.861725 0.124153 -2 -1 -3 
6347 5 0.286043 0.867175 0.172777 4 0 1 
5940 5 0.608409 0.853076 0.177389 0 0 0 
9000 6 0.228264 0.835945 0.216036 -1 -4 2 
7180 5 0.941495 0.862503 0.17385 7 -3 1 
8327 5 0.94834 0.892272 0.182277 -3 1 -2 
6335 6 0.346216 0.89525 0.220889 -1 -1 1 
7449 6 0.689192 0.930677 0.17766 3 4 -2 
5521 6 0.172981 0.930264 0.199403 3 -4 2 
5360 5 0.476818 0.920296 0.154308 4 5 -3 
6232 6 0.496557 0.906601 0.158186 0 -1 1 
6097 5 0.961135 0.934432 0.167828 -3 0 5 
8529 6 0.325787 0.922525 0.133903 -3 -3 0 
8257 6 0.135475 0.00721349 0.151812 -1 1 -1 
8963 6 0.518132 0.968335 0.222257 -1 3 0 
7185 6 0.78821 0.972913 0.150412 -2 -1 2 
6885 6 0.107707 0.0150844 0.159583 -3 2 6 
7375 5 0.173422 0.03402 0.164292 2 4 -1 
5926 5 0.452696 0.0411775 0.17908 0 0 6 
7626 5 0.765267 0.00222596 0.193957 -9 1 1 
8077 6 0.125761 0.0613764 0.14538 1 1 0 
6698 5 0.00451428 0.030247 0.169463 6 4 0 
8738 6 0.895661 0.0764662 0.173772 1 4 2 
6770 6 0.933919 0.0606134 0.267431 -3 1 -1 
6408 5 0.413687 0.0932217 0.206821 4 0 5 
5837 6 0.244153 0.0713783 0.199201 1 -2 2 
6662 6 0.319598 0.127417 0.202688 -2 1 3 
7808 5 0.186372 0.171173 0.206095 -3 0 4 
7342 6 0.495265 0.188667 0.194426 1 0 -2 
5934 5 0.166482 0.204774 0.187376 3 -3 -1 
5387 6 0.237959 0.200344 0.190509 -6 0 -2 
6516 5 0.784799 0.189586 0.19767 3 0 0 
6974 6 0.306152 0.296101 0.162344 3 -3 -3 
8798 6 0.445328 0.278695 0.192796 -3 3 -2 
5373 6 0.255798 0.286798 0.202394 2 1 -2 
7913 5 0.527267 0.3082 0.248445 0 7 5 
6409 5 0.264262 0.302078 0.188264 -7 1 1 
8543 5 0.244344 0.309813 0.19447 -4 2 -2 
8587 6 0.528538 0.3311 0.194016 -1 0 -1 