ITEM: TIMESTEP
20000000
ITEM: NUMBER OF ATOMS
9000
ITEM: BOX BOUNDS pp pp pp
-75 75
-75 75
-75 75
ITEM: ATOMS id type xs ys zs ix iy iz 
6344 5 0.0557737 0.0116389 0.0191699 -3 1 2 
6940 6 0.205984 0.012132 0.0166428 0 4 -1 
6971 6 0.573616 0.0510013 0.0277916 1 -1 -2 
8953 6 0.622836 0.0233951 0.0367638 -2 -2 1 
5742 5 0.733144 0.050158 0.0200563 0 2 2 
8554 5 0.982649 0.0145336 0.0377216 3 1 4 
7448 5 0.421796 0.0645136 0.0209827 0 3 3 
7657 6 0.731545 0.00164224 0.0127837 -1 1 -5 
7469 6 0.11974 0.116169 0.059064 1 -2 5 
7387 6 0.0423738 0.122236 0.0118646 -4 -4 4 
6256 5 0.758311 0.102617 0.992791 -4 1 0 
6052 5 0.463338 0.140939 0.00227017 5 5 -5 
7406 5 0.760443 0.169393 0.0214378 5 -1 -3 
6945 6 0.680609 0.105237 0.0521964 -3 0 1 
5191 5 0.777364 0.207387 0.993288 -1 2 5 
8436 5 0.86188 0.183118 0.0118548 3 2 0 
6699 5 0.0743985 0.19601 -0.000870849 -3 10 1 
6225 6 0.0613074 0.263003 0.0113619 -1 5 1 
7075 5 0.178087 0.212999 0.0159972 2 1 2 
8024 5 0.276401 0.235849 0.0227144 -4 -1 -1 
8048 6 0.420785 0.245706 0.00749326 0 1 -2 
7155 6 0.667864 0.237858 0.980506 -1 -3 1 
8223 5 0.0407824 0.266279 0.968755 -1 4 -4 
7148 6 0.893217 0.245459 0.0147687 -7 -3 3 
7039 5 0.457861 0.336956 0.0180803 0 5 2 
6199 6 0.409385 0.324929 0.00902513 2 2 2 
5821 6 0.400869 0.330543 0.995076 7 1 -1 
5940 5 0.781499 0.33482 0.0387349 -3 -5 -4 
6656 5 0.0496559 0.365511 0.0245303 -1 -1 3 
6610 6 0.523074 0.399489 0.982988 -1 5 1 
6329 6 0.0390616 0.405282 0.995263 5 2 0 
5085 6 0.285616 0.390795 0.995067 6 1 3 
7128 6 0.879924 0.419322 0.016588 2 -2 0 
4948 1 0.283075 0.449242 0.0216766 0 0 0 
4907 1 0.335234 0.451123 0.0127181 0 0 0 
4909 1 0.329522 0.456853 0.0131409 0 0 0 
4906 1 0.337088 0.452719 0.0185193 0 0 0 
4905 1 0.340128 0.447874 0.0162273 0 0 0 
4904 1 0.336742 0.446554 0.0218221 0 0 0 
4902 1 0.330741 0.441893 0.0222886 0 0 0 
4911 1 0.3256 0.458366 0.0191652 0 0 0 
4903 1 0.33505 0.442255 0.0176184 0 0 0 
4908 1 0.336367 0.457172 0.0129549 0 0 0 
4915 1 0.317602 0.465967 0.0163791 0 0 0 
6014 5 0.315509 0.456327 0.0241111 -6 -4 1 
4913 1 0.320595 0.463534 0.0215107 0 0 0 
4901 1 0.327793 0.438474 0.018 0 0 0 
4900 1 0.324449 0.438561 0.0233002 0 0 0 
8025 6 0.801173 0.414858 0.0167004 -2 -2 -3 
6265 6 0.189132 0.46723 0.98662 -1 5 -2 
8995 6 0.253483 0.487532 0.0123648 2 -4 -2 
4958 1 0.267692 0.460863 0.00964771 0 0 0 
4959 1 0.269028 0.467047 0.00916889 0 0 0 
4960 1 0.265772 0.464699 0.00385547 0 0 0 
4961 1 0.270278 0.468333 0.00183782 0 0 0 
4963 1 0.269343 0.475235 -9.35569e-05 0 0 0 
4964 1 0.264716 0.477013 0.995819 0 0 -1 
4962 1 0.264869 0.470564 0.998481 0 0 -1 
4957 1 0.264707 0.464259 0.0145571 0 0 0 
4956 1 0.264586 0.458154 0.0158002 0 0 0 
4955 1 0.268859 0.461906 0.0192372 0 0 0 
4950 1 0.278389 0.45303 0.0266366 0 0 0 
4953 1 0.271588 0.455552 0.0209527 0 0 0 
4949 1 0.284032 0.455134 0.0242418 0 0 0 
4951 1 0.276992 0.458334 0.0240603 0 0 0 
8298 5 0.330198 0.451852 0.0223171 -6 0 4 
4920 1 0.305819 0.463047 0.0244076 0 0 0 
4921 1 0.309607 0.459468 0.0276537 0 0 0 
4917 1 0.310609 0.467541 0.0153414 0 0 0 
4919 1 0.311804 0.463654 0.0220005 0 0 0 
4918 1 0.308346 0.468966 0.0210386 0 0 0 
4922 1 0.304978 0.455738 0.0246315 0 0 0 
4910 1 0.332016 0.45895 0.0189101 0 0 0 
4912 1 0.327142 0.464631 0.0204343 0 0 0 
4916 1 0.314366 0.471205 0.0183366 0 0 0 
6777 5 0.0740571 0.505369 0.0292166 4 1 1 
4717 1 0.308699 0.485858 0.0251981 0 0 0 
6186 6 0.711125 0.438342 0.985111 0 -1 1 
5758 5 0.777847 0.47647 0.0464115 2 -3 1 
4726 1 0.299679 0.49633 0.0212965 0 0 0 
4724 1 0.299168 0.49514 0.0137057 0 0 0 
4723 1 0.293941 0.493227 0.0163566 0 0 0 
4725 1 0.29719 0.500321 0.0173588 0 0 0 
4727 1 0.294972 0.499341 0.0242774 0 0 0 
7476 5 0.302319 0.496244 0.0282782 4 -2 3 
4722 1 0.296817 0.487792 0.0146065 0 0 0 
4730 1 0.300839 0.509334 0.0219848 0 0 0 
4732 1 0.300543 0.508932 0.0143276 0 0 0 
4731 1 0.296715 0.512862 0.0181179 0 0 0 
4733 1 0.303162 0.515026 0.0139995 0 0 0 
4728 1 0.300164 0.503112 0.0250854 0 0 0 
4734 1 0.303488 0.512118 0.00811649 0 0 0 
4735 1 0.307886 0.516641 0.00858762 0 0 0 
4720 1 0.300917 0.489748 0.0194451 0 0 0 
4721 1 0.295436 0.486934 0.0206175 0 0 0 
4719 1 0.30204 0.484122 0.0220993 0 0 0 
4718 1 0.302532 0.48874 0.0265485 0 0 0 
4736 1 0.310607 0.510937 0.00768165 0 0 0 
4737 1 0.315212 0.515202 0.00845836 0 0 0 
4738 1 0.316868 0.509885 0.011588 0 0 0 
6444 5 0.310997 0.513272 0.0150868 0 -3 2 
4742 1 0.318027 0.507804 0.0195487 0 0 0 
4743 1 0.322501 0.505538 0.0232806 0 0 0 
4744 1 0.323645 0.502797 0.0175865 0 0 0 
4740 1 0.323674 0.511098 0.014385 0 0 0 
4745 1 0.326046 0.499472 0.0228322 0 0 0 
4746 1 0.328839 0.505274 0.0224493 0 0 0 
4747 1 0.331183 0.501314 0.027054 0 0 0 
4748 1 0.335836 0.50546 0.025013 0 0 0 
6502 6 0.910306 0.506856 0.0230812 3 0 0 
5226 6 0.118854 0.507516 0.0205138 2 -2 2 
4739 1 0.318328 0.515001 0.0153162 0 0 0 
4741 1 0.322897 0.512398 0.0205338 0 0 0 
4820 1 0.336002 0.541405 0.0264825 0 0 0 
4818 1 0.331053 0.545056 0.0302796 0 0 0 
8022 5 0.447325 0.527946 0.0117015 -3 4 0 
7191 6 0.927361 0.508751 0.984591 1 6 0 
4819 1 0.336964 0.545762 0.0310871 0 0 0 
7821 6 0.614999 0.54352 0.0141801 1 0 -9 
6597 5 0.523327 0.561209 0.988931 3 0 -1 
6949 5 0.547171 0.634917 0.999587 2 0 -1 
7506 6 0.691459 0.63244 0.970029 0 -1 3 
5893 6 0.755934 0.68059 0.00544063 -1 -1 2 
5797 6 0.754312 0.688075 0.984258 1 4 3 
8719 6 0.359069 0.662558 -0.00134415 -1 -1 -1 
8935 5 0.419784 0.674002 0.0287658 3 5 3 
6376 6 0.992674 0.653222 0.989416 -1 0 -4 
7513 6 0.194348 0.766004 0.00281649 0 4 0 
5752 6 0.829006 0.774648 0.988543 -4 0 -1 
8085 6 0.86939 0.772611 0.0273322 1 2 2 
6915 5 0.857306 0.730255 0.0587418 0 -3 -3 
6751 6 0.216713 0.790687 0.047374 5 -3 0 
6831 5 0.399838 0.768804 0.991655 1 -1 -3 
8989 6 0.486787 0.75394 0.0221651 -4 -8 3 
5329 6 0.8126 0.7289 0.0198248 -4 -3 6 
7095 6 0.925249 0.714052 0.990064 2 1 -3 
8643 5 0.950458 0.760625 0.951478 4 -4 5 
8878 6 0.0445862 0.796691 0.999304 3 0 2 
7688 5 0.249936 0.734357 0.0292521 3 1 2 
6816 6 0.281661 0.765674 0.979094 1 3 0 
5908 6 0.890103 0.767637 0.990324 1 -4 0 
5338 5 0.49562 0.808957 0.0098661 1 -2 1 
5391 6 0.27354 0.831983 0.0281863 -3 -2 4 
8468 5 0.668708 0.833672 0.0418321 1 3 0 
6408 6 0.589598 0.868812 0.0130945 2 5 -1 
6231 6 0.674984 0.899289 0.977771 -4 3 1 
7392 5 0.0335875 0.917129 0.975519 -5 -2 -1 
8485 6 0.129837 0.873158 -0.00375905 -2 -4 -5 
5591 6 0.144757 0.889279 0.0205277 -3 1 4 
6397 6 0.86298 0.886624 0.0272323 0 3 3 
7437 6 0.892764 0.883409 0.0185561 -7 -5 -1 
5567 6 0.887433 0.87442 0.994911 -1 -3 -2 
5495 5 0.124906 0.953924 0.984806 3 -3 -2 
7349 6 0.797484 0.94127 0.0125061 6 -3 -1 
7364 5 0.188832 0.913958 0.99428 4 6 4 
6815 5 0.910223 0.930336 0.0446417 -2 4 -2 
6432 6 0.0949841 0.990896 0.0525295 -3 2 -1 
5260 5 0.337435 0.00645484 0.0136335 -7 4 -1 
8546 6 0.629121 0.00190455 0.0745004 -1 -1 -1 
6424 6 0.935484 0.0331356 0.0200959 1 1 2 
6893 6 0.231886 0.0329434 0.0102959 2 2 1 
7355 6 0.324206 0.010236 0.0739761 4 3 -7 
8999 5 0.857259 0.990943 0.0474049 2 3 1 
8655 6 0.14506 0.0660669 0.0577972 0 0 0 
7071 6 0.182403 0.0658736 0.0241794 -3 0 5 
7661 5 0.442849 0.0462374 0.0150722 1 0 0 
8647 6 0.804483 0.0896301 0.00578771 -3 -2 3 
8264 6 0.141461 0.101425 0.0532517 4 5 6 
8391 6 0.45682 0.104869 0.00761882 -1 0 -1 
6296 5 0.551412 0.0878636 0.0195525 -1 -1 6 
8509 5 0.654514 0.157098 0.0669142 4 3 2 
7695 5 0.806014 0.162811 0.0306964 8 0 -1 
6381 6 0.619622 0.239724 0.019889 -1 -2 2 
7652 6 0.744006 0.216974 0.0377622 3 -4 4 
8747 5 0.755972 0.228662 0.0463142 -2 3 4 
8337 6 0.444222 0.240449 -0.000387014 0 -2 0 
7631 6 0.516684 0.255393 0.0429289 -2 1 3 
8707 5 0.50325 0.214519 0.012407 0 2 0 
7455 6 0.707626 0.242568 0.0280034 5 2 -3 
8392 6 0.461465 0.224276 0.0402632 -2 1 1 
5190 5 0.208918 0.301512 0.0548367 -1 -4 0 
7002 6 0.227064 0.29064 0.0503589 -3 3 -1 
8599 6 0.351952 0.281259 0.011816 3 2 -1 
6281 6 0.517381 0.285633 0.0621131 1 -3 2 
5380 6 0.520235 0.299203 0.0237128 6 0 2 
7951 6 0.581803 0.309551 0.0324339 -1 -5 7 
8800 6 0.868989 0.304054 0.0143631 3 -1 1 
6299 5 0.72751 0.307875 0.0835479 2 4 3 
6645 6 0.0558167 0.381995 0.0202311 -3 1 -1 
7593 6 0.556101 0.389465 0.0427804 -5 1 5 
7398 5 0.828117 0.375304 0.0222021 -4 1 0 
7678 5 0.0219558 0.408114 0.0505126 0 3 -4 
5508 6 0.859479 0.377574 0.0385277 0 -5 -2 
8188 5 0.25697 0.382143 0.0307422 -4 0 2 
4937 1 0.299876 0.436717 0.0328541 0 0 0 
4936 1 0.298612 0.430572 0.0350942 0 0 0 
5469 6 0.499276 0.432947 0.044983 2 -2 3 
5507 6 0.547682 0.442995 0.0613539 3 -2 0 
4943 1 0.29735 0.44846 0.0198797 0 0 0 
4946 1 0.286387 0.447217 0.0151652 0 0 0 
4944 1 0.290943 0.446318 0.020485 0 0 0 
4947 1 0.286205 0.453439 0.017474 0 0 0 
4942 1 0.296401 0.442801 0.0234372 0 0 0 
4945 1 0.292025 0.45033 0.0156197 0 0 0 
4940 1 0.301442 0.437611 0.0242519 0 0 0 
4941 1 0.302255 0.44409 0.0244551 0 0 0 
4938 1 0.303509 0.43266 0.0298885 0 0 0 
4933 1 0.304823 0.436452 0.0425003 0 0 0 
4931 1 0.30573 0.443614 0.0442571 0 0 0 
4932 1 0.304382 0.441613 0.0384194 0 0 0 
4929 1 0.303724 0.450162 0.0432601 0 0 0 
4930 1 0.299565 0.444802 0.0429025 0 0 0 
4939 1 0.306325 0.438514 0.0287183 0 0 0 
4934 1 0.299198 0.435802 0.0399251 0 0 0 
4935 1 0.303829 0.431895 0.0375638 0 0 0 
4927 1 0.302668 0.45645 0.039809 0 0 0 
4925 1 0.301899 0.456615 0.0322461 0 0 0 
4890 1 0.333201 0.45267 0.0445332 0 0 0 
8641 5 0.331225 0.445644 0.0288834 4 2 4 
4898 1 0.319951 0.444371 0.0254528 0 0 0 
4892 1 0.326989 0.450619 0.040459 0 0 0 
4894 1 0.324354 0.446876 0.0343027 0 0 0 
4896 1 0.31845 0.448984 0.0304184 0 0 0 
4899 1 0.324631 0.44462 0.0215303 0 0 0 
4893 1 0.330099 0.450926 0.0347848 0 0 0 
4897 1 0.32218 0.450656 0.0254391 0 0 0 
4895 1 0.323103 0.452741 0.0326155 0 0 0 
7925 6 0.808363 0.476208 0.0862139 -1 1 -1 
8491 5 0.978725 0.445024 0.0352324 1 -2 0 
4954 1 0.265808 0.457942 0.0233755 0 0 0 
4952 1 0.271794 0.456095 0.0271939 0 0 0 
7714 5 0.308495 0.446188 0.0311451 4 -1 -2 
4928 1 0.29826 0.451965 0.0408537 0 0 0 
4926 1 0.304122 0.451084 0.0361585 0 0 0 
4924 1 0.30209 0.450564 0.0292136 0 0 0 
4923 1 0.308158 0.453172 0.0296917 0 0 0 
4891 1 0.33219 0.447466 0.0410373 0 0 0 
6729 5 0.319413 0.450835 0.038369 -3 2 1 
6734 5 0.366648 0.448526 0.0109218 -5 -2 -1 
5500 6 0.610586 0.464495 0.0327348 0 3 3 
7226 6 0.654028 0.470797 0.0372798 0 1 0 
7327 6 0.881391 0.502334 0.0449297 3 3 3 
5976 6 0.0352442 0.484419 0.0333194 1 1 -1 
4715 1 0.308163 0.491667 0.0306089 0 0 0 
4709 1 0.313285 0.485877 0.0433191 0 0 0 
4714 1 0.313949 0.494185 0.0292005 0 0 0 
4711 1 0.31211 0.492187 0.0394739 0 0 0 
4729 1 0.295591 0.506462 0.0210256 0 0 0 
4716 1 0.30843 0.492296 0.0242669 0 0 0 
4713 1 0.314569 0.489243 0.0329418 0 0 0 
4712 1 0.316858 0.49518 0.0360424 0 0 0 
4710 1 0.317758 0.489134 0.0405384 0 0 0 
4751 1 0.337142 0.512735 0.0285881 0 0 0 
4750 1 0.337376 0.507087 0.031823 0 0 0 
4755 1 0.333772 0.517814 0.0329405 0 0 0 
4753 1 0.340657 0.518697 0.0300169 0 0 0 
4752 1 0.342597 0.512529 0.0317181 0 0 0 
4754 1 0.339354 0.517567 0.036171 0 0 0 
4756 1 0.333195 0.522478 0.0368719 0 0 0 
4749 1 0.331404 0.507441 0.0293655 0 0 0 
4757 1 0.328324 0.51821 0.0373058 0 0 0 
6005 5 0.530074 0.507761 0.0249719 -2 3 5 
5562 6 0.962601 0.459258 0.9938 2 2 -4 
4822 1 0.332609 0.538049 0.0319953 0 0 0 
4825 1 0.336846 0.532906 0.0398052 0 0 0 
4827 1 0.341786 0.530716 0.0348288 0 0 0 
4824 1 0.33138 0.534885 0.0372317 0 0 0 
4821 1 0.339203 0.538697 0.0311004 0 0 0 
4823 1 0.335885 0.539738 0.0372384 0 0 0 
4826 1 0.335497 0.529374 0.03454 0 0 0 
4828 1 0.341881 0.524669 0.0349578 0 0 0 
4758 1 0.332831 0.517088 0.0415911 0 0 0 
4831 1 0.345446 0.52956 0.0428666 0 0 0 
4830 1 0.345119 0.523447 0.0418205 0 0 0 
8575 5 0.383378 0.535445 0.081127 0 -1 0 
4829 1 0.339631 0.526518 0.0406213 0 0 0 
4832 1 0.348113 0.526371 0.0480975 0 0 0 
5540 5 0.45872 0.565788 0.0452521 -3 2 5 
8380 5 0.894206 0.554772 0.0838656 0 -5 -3 
6437 6 0.0877995 0.555331 0.0392179 1 -3 -2 
4814 1 0.327863 0.542874 0.041545 0 0 0 
4812 1 0.321782 0.546065 0.0434201 0 0 0 
4810 1 0.316814 0.550628 0.0469474 0 0 0 
4815 1 0.326844 0.548149 0.0382356 0 0 0 
4816 1 0.333178 0.546082 0.0380794 0 0 0 
4813 1 0.327813 0.548381 0.0451005 0 0 0 
4817 1 0.332211 0.550307 0.0337571 0 0 0 
8072 6 0.0520989 0.628247 0.0590315 1 0 -2 
5707 5 0.192514 0.577768 0.0425317 2 2 2 
6112 5 0.314921 0.597579 0.0308076 2 -3 -1 
8769 6 0.848147 0.57411 0.0449777 -2 -1 -3 
7059 6 0.686853 0.651245 0.0160208 2 -3 -4 
6215 6 0.00445675 0.661647 0.0412377 -2 -3 2 
7790 5 0.638789 0.644328 0.0820549 -2 2 -1 
5932 5 0.310793 0.670246 0.0620086 4 4 2 
6839 6 0.941391 0.672347 0.00874298 2 0 -1 
6464 6 0.049527 0.706552 0.0183512 0 -3 0 
7145 5 0.0258793 0.685382 0.00942549 5 1 4 
8238 5 0.269799 0.71205 0.00915232 5 -4 1 
5322 5 0.542668 0.723934 0.0464152 3 -2 -2 
6452 6 0.581277 0.712856 0.045139 1 -4 1 
5413 6 0.800199 0.688051 0.0704824 5 4 1 
5605 6 0.948761 0.755917 0.995936 3 -2 0 
7421 5 0.496341 0.727237 0.0503936 3 -1 -7 
5215 6 0.620595 0.750483 0.0455129 -2 2 2 
5721 5 0.229622 0.765663 0.00175548 10 -2 1 
6342 6 0.361957 0.789564 0.0390677 7 1 -3 
7870 5 0.482112 0.780916 0.0326253 6 0 0 
7234 6 0.602084 0.819689 0.070872 2 2 3 
7430 6 0.391443 0.840852 0.0100051 -2 -4 2 
6370 6 0.65827 0.855796 0.0500492 3 -2 0 
5216 6 0.577415 0.819039 0.0210308 0 -3 -1 
8750 5 0.803937 0.892153 0.99913 -3 -1 -5 
7064 6 0.248063 0.903723 0.0335043 1 3 0 
8020 5 0.0664282 0.896299 0.044041 0 0 -7 
6417 5 0.661369 0.933715 0.0314745 4 0 -2 
6289 5 0.970429 0.910342 0.0644373 -2 0 1 
8730 5 0.958154 0.98428 0.0396938 2 0 3 
7581 6 0.203174 0.955633 0.0378422 -1 -4 0 
8928 6 0.654889 0.987773 0.0293505 3 -4 -1 
8897 5 0.233168 0.0447905 0.0969551 -1 1 2 
5657 6 0.578954 0.00830077 0.0725953 -3 0 3 
7836 6 0.274043 0.0771322 0.0624582 2 -4 1 
7072 6 0.747845 0.0763921 0.0498125 2 2 1 
5230 5 0.0850427 0.122053 0.0493179 0 1 1 
8785 6 0.248116 0.0842282 0.0521974 -2 2 0 
5794 6 0.576568 0.0905519 0.0439394 -3 2 2 
5393 5 0.780211 0.13432 0.0305633 3 1 1 
6779 6 0.785124 0.115586 0.0641192 3 0 5 
6227 6 0.229309 0.164962 0.0733275 2 -2 -1 
5189 5 0.833399 0.124306 0.0501218 2 1 2 
8210 6 0.905174 0.161323 0.0216401 4 -3 -2 
5107 6 0.86564 0.145626 0.0696202 -4 2 0 
8652 5 0.375237 0.215617 0.0572134 2 -3 -3 
7824 6 0.676991 0.225076 0.0398557 -3 1 1 
6245 6 0.631531 0.23612 0.0412998 -1 0 -2 
7723 6 0.888635 0.225023 0.065654 -2 5 3 
8720 6 0.936616 0.243831 0.0686001 2 1 2 
6028 6 0.0985863 0.314927 0.0379426 -2 6 4 
7417 5 0.263523 0.286624 0.0737052 -2 1 4 
6592 6 0.425206 0.289791 0.0525359 2 2 1 
5862 6 0.474688 0.255348 0.0246748 -2 -1 -1 
7650 5 0.713332 0.288406 0.0581546 -3 -2 1 
7204 5 0.672564 0.328175 0.0339659 -4 -3 4 
6860 6 0.805303 0.311359 0.0465384 5 0 -2 
7472 5 0.802905 0.345944 0.0361277 -2 0 5 
5271 6 0.81966 0.306521 0.0538406 -3 0 -1 
6941 5 0.37417 0.379264 0.0129489 0 2 1 
6583 6 0.901894 0.384457 0.063766 -3 1 -4 
6806 5 0.360365 0.394808 0.064147 -1 2 6 
5080 6 0.579215 0.373717 0.0205076 5 3 6 
5685 6 0.746052 0.358716 0.0306187 -2 -3 -1 
8875 6 0.806541 0.426891 0.0568495 -1 1 1 
4888 1 0.328847 0.451633 0.0511249 0 0 0 
4889 1 0.332979 0.447879 0.0484765 0 0 0 
6990 5 0.858434 0.425324 0.0581828 2 -1 -6 
5958 6 0.26551 0.44749 0.0698929 1 -5 7 
8614 5 0.351751 0.478748 0.0613297 0 -1 -4 
4884 1 0.338449 0.459976 0.0547638 0 0 0 
4882 1 0.343931 0.46402 0.0576559 0 0 0 
4887 1 0.334719 0.453416 0.0532851 0 0 0 
4886 1 0.332135 0.458748 0.0504527 0 0 0 
4885 1 0.332458 0.459933 0.0568808 0 0 0 
4883 1 0.337583 0.465922 0.0567471 0 0 0 
4880 1 0.348588 0.468363 0.0617046 0 0 0 
4881 1 0.342986 0.469937 0.0597397 0 0 0 
4879 1 0.344411 0.467396 0.066968 0 0 0 
4878 1 0.348776 0.462267 0.0662769 0 0 0 
4877 1 0.35119 0.466229 0.0701418 0 0 0 
4876 1 0.347219 0.462333 0.073445 0 0 0 
4875 1 0.351372 0.464795 0.0773143 0 0 0 
5639 6 0.573896 0.448985 0.0501624 -1 1 2 
4699 1 0.296575 0.498621 0.060082 0 0 0 
4703 1 0.308365 0.495184 0.0576885 0 0 0 
4701 1 0.301268 0.493847 0.0561787 0 0 0 
4702 1 0.305659 0.49588 0.0520999 0 0 0 
4704 1 0.313075 0.49609 0.0533286 0 0 0 
4705 1 0.310748 0.49056 0.052428 0 0 0 
4706 1 0.31729 0.489872 0.0531813 0 0 0 
4700 1 0.300256 0.499918 0.0551763 0 0 0 
4708 1 0.318831 0.48607 0.0463154 0 0 0 
4707 1 0.315068 0.491293 0.0473862 0 0 0 
4698 1 0.301045 0.502858 0.0617516 0 0 0 
6715 5 0.688465 0.475063 0.0617091 1 3 4 
5593 5 0.0501955 0.521439 0.0330998 -8 1 6 
4697 1 0.295294 0.505668 0.0628778 0 0 0 
4694 1 0.302416 0.509284 0.0634079 0 0 0 
4692 1 0.305615 0.515663 0.059611 0 0 0 
4695 1 0.297031 0.512429 0.0615679 0 0 0 
4696 1 0.297763 0.507188 0.0573508 0 0 0 
4693 1 0.302582 0.516141 0.0650689 0 0 0 
4690 1 0.312172 0.518065 0.0632764 0 0 0 
4691 1 0.306748 0.521739 0.0627582 0 0 0 
4688 1 0.316472 0.518837 0.0693709 0 0 0 
5457 5 0.309107 0.515594 0.0691712 2 1 4 
4689 1 0.31217 0.522959 0.0673275 0 0 0 
4836 1 0.343956 0.531053 0.0571308 0 0 0 
4838 1 0.34262 0.525425 0.0614354 0 0 0 
4840 1 0.342894 0.518371 0.0633818 0 0 0 
4833 1 0.343382 0.530539 0.0501725 0 0 0 
4841 1 0.342571 0.521506 0.0690059 0 0 0 
4839 1 0.348028 0.522541 0.0641685 0 0 0 
8029 6 0.238501 0.504622 0.0664357 4 -4 2 
4768 1 0.305798 0.530301 0.0493313 0 0 0 
4769 1 0.303092 0.53046 0.0553743 0 0 0 
4767 1 0.305099 0.524572 0.0522872 0 0 0 
4775 1 0.308038 0.534999 0.0701662 0 0 0 
4770 1 0.308608 0.533669 0.0549691 0 0 0 
4772 1 0.310591 0.539558 0.0590786 0 0 0 
4771 1 0.304737 0.536918 0.0582689 0 0 0 
4774 1 0.309007 0.540478 0.0659292 0 0 0 
4776 1 0.304152 0.540687 0.0718004 0 0 0 
4777 1 0.309356 0.539919 0.0752926 0 0 0 
4778 1 0.309987 0.544917 0.0712303 0 0 0 
4766 1 0.30786 0.523491 0.0464759 0 0 0 
4765 1 0.31231 0.525477 0.0502987 0 0 0 
4759 1 0.3273 0.514724 0.0435048 0 0 0 
4761 1 0.323196 0.517119 0.0494405 0 0 0 
4760 1 0.328184 0.520124 0.0472612 0 0 0 
4834 1 0.349139 0.53243 0.0516192 0 0 0 
4764 1 0.314623 0.521842 0.0446911 0 0 0 
4763 1 0.31908 0.523487 0.0486073 0 0 0 
4762 1 0.321696 0.520179 0.0436448 0 0 0 
8848 5 0.344009 0.530201 0.068901 -3 -3 -2 
4780 1 0.31464 0.549506 0.075371 0 0 0 
4835 1 0.348588 0.527282 0.0553084 0 0 0 
4837 1 0.347519 0.529469 0.0622892 0 0 0 
5765 5 0.485129 0.516966 0.0783317 -2 -6 7 
6550 5 0.0650074 0.565013 0.0530621 1 -1 -2 
8213 5 0.291399 0.554021 0.0636615 -3 -1 2 
4795 1 0.282734 0.554539 0.0590363 0 0 0 
4793 1 0.287797 0.548871 0.0599525 0 0 0 
4791 1 0.293353 0.545216 0.0626986 0 0 0 
4802 1 0.299966 0.555801 0.0548277 0 0 0 
4806 1 0.310435 0.545713 0.0555778 0 0 0 
4804 1 0.304681 0.549783 0.0551116 0 0 0 
4801 1 0.296837 0.558393 0.0596684 0 0 0 
4789 1 0.297327 0.55159 0.0658158 0 0 0 
4790 1 0.295263 0.546466 0.0687068 0 0 0 
4807 1 0.313763 0.550258 0.0529854 0 0 0 
4788 1 0.299417 0.552163 0.072053 0 0 0 
4803 1 0.303198 0.553816 0.0603952 0 0 0 
4786 1 0.301912 0.558348 0.0686258 0 0 0 
4779 1 0.309511 0.546805 0.0775141 0 0 0 
4785 1 0.301315 0.560612 0.0745497 0 0 0 
4787 1 0.296086 0.557406 0.0705018 0 0 0 
4805 1 0.310176 0.550974 0.0588964 0 0 0 
4784 1 0.307441 0.560349 0.0733937 0 0 0 
4808 1 0.311678 0.546075 0.048277 0 0 0 
4809 1 0.317711 0.54437 0.0489994 0 0 0 
4811 1 0.322719 0.549372 0.049097 0 0 0 
7939 6 0.913763 0.566536 0.0658327 2 0 1 
6124 5 0.957975 0.518348 0.0800862 -2 2 -4 
4799 1 0.289531 0.557022 0.0572402 0 0 0 
4796 1 0.284087 0.558463 0.0638281 0 0 0 
4797 1 0.283922 0.56221 0.0590655 0 0 0 
4798 1 0.289974 0.562245 0.0607766 0 0 0 
4800 1 0.294072 0.560309 0.0543988 0 0 0 
5418 5 0.490886 0.638386 0.070563 0 0 5 
8185 5 0.657847 0.66835 0.0572825 -2 4 3 
5938 5 0.74017 0.583342 0.0690417 0 -2 4 
7482 5 0.253285 0.637333 0.0391734 1 -2 -3 
5212 6 0.552553 0.643499 0.0262629 2 -2 4 
6428 6 0.824255 0.652229 0.0277897 4 4 0 
7839 6 0.170395 0.711068 0.0252667 -4 0 -3 
7578 5 0.691192 0.714973 0.0941352 -1 -3 1 
9000 6 0.752982 0.716096 0.0513555 2 -4 -1 
6173 6 0.356128 0.76995 0.0245911 1 5 -6 
8737 5 0.566643 0.791274 0.0443663 -3 -1 4 
7804 5 0.782978 0.769456 0.0669634 -1 -3 -2 
8071 6 0.128132 0.832501 0.0545737 -1 -5 1 
7164 5 0.0247007 0.827639 0.0631421 0 0 -1 
8964 5 0.0302165 0.839313 0.0627938 0 1 0 
8332 6 0.222475 0.849248 0.0597107 -2 0 2 
8970 5 0.277598 0.832171 0.0566313 2 -3 0 
7449 5 0.720882 0.874422 0.0995605 -3 -3 0 
7616 6 0.790195 0.865236 0.0290767 -3 -3 3 
5114 6 0.927785 0.820364 0.0458948 5 -2 3 
5734 6 0.483935 0.916447 0.0638069 4 3 -5 
5676 5 0.671769 0.892379 0.0278354 -1 -6 0 
6074 5 0.743449 0.854656 0.053277 1 3 3 
8195 6 0.292981 0.918383 0.0411275 -2 -3 6 
5830 6 0.88064 0.887626 0.0611513 1 3 -3 
5026 6 0.601964 0.919216 0.0600635 0 3 0 
6094 5 0.837923 0.987069 0.0838395 2 -3 1 
6164 6 0.421149 0.960262 0.056273 3 4 1 
7328 5 0.501586 0.0101156 0.0524633 1 -1 2 
7624 6 0.643195 0.978325 0.0944374 -2 0 1 
8101 6 0.649136 0.984106 0.0237541 2 0 -4 
7221 6 0.835769 0.00673681 0.0297097 1 0 1 
5073 6 0.900632 0.976451 0.0542971 1 -5 0 
7598 5 0.940306 0.0691783 0.0553214 -3 -4 -2 
7020 6 0.120973 0.0453768 0.0749277 5 -3 -6 
5360 5 0.424781 0.0195738 0.102537 1 3 1 
5876 6 0.428813 0.010958 0.0968209 1 -3 1 
5082 5 0.979016 0.0544584 0.144184 0 -3 3 
8049 5 0.648996 0.0544967 0.0687024 2 2 -1 
7281 6 0.425553 0.0602221 0.0935735 -1 -2 2 
8263 6 0.45995 0.128338 0.0727586 0 -1 1 
8419 5 0.971978 0.0148563 0.0739151 -6 2 1 
7644 6 0.498679 0.112986 0.107954 5 -9 5 
5302 6 0.63841 0.118595 0.0996473 -6 4 0 
5284 6 0.112127 0.130459 0.0991784 3 0 1 
8200 6 0.911906 0.116378 0.0406758 0 -1 -2 
5886 6 0.223931 0.197755 0.103292 -2 2 3 
6357 6 0.282919 0.172199 0.122512 7 -3 0 
5757 5 0.460339 0.176358 0.080858 0 -2 -3 
8515 6 0.306424 0.206516 0.0367915 3 1 2 
6994 5 0.688731 0.202723 0.0509276 -6 -1 3 
7085 5 0.581752 0.258214 0.110527 0 0 -5 
7184 5 0.272326 0.232632 0.110532 5 6 3 
5714 6 0.514212 0.25449 0.0722157 1 -2 -6 
7627 5 0.797175 0.269752 0.0641523 -3 -3 4 
8852 6 0.905324 0.26954 0.0825045 -4 -2 -1 
7294 6 0.817264 0.335594 0.0463518 -1 1 2 
5796 6 0.939031 0.314133 0.107299 2 -2 1 
8746 5 0.414648 0.368641 0.0741236 -1 1 2 
8605 6 0.866315 0.364724 0.0628658 3 2 2 
6849 5 0.815124 0.393202 0.100176 5 -1 4 
7069 5 0.324509 0.46388 0.0768065 2 -6 0 
4868 1 0.33029 0.465419 0.0808123 0 0 0 
4870 1 0.332988 0.46846 0.0748609 0 0 0 
4866 1 0.325486 0.467342 0.0867921 0 0 0 
4863 1 0.323043 0.476288 0.0942087 0 0 0 
4860 1 0.332072 0.475918 0.0907269 0 0 0 
4862 1 0.32853 0.472787 0.095917 0 0 0 
4865 1 0.32298 0.473375 0.087413 0 0 0 
4858 1 0.339044 0.476788 0.0887166 0 0 0 
4874 1 0.347219 0.46945 0.0759593 0 0 0 
4869 1 0.333098 0.471367 0.0811219 0 0 0 
4857 1 0.342971 0.480548 0.0918468 0 0 0 
4867 1 0.326111 0.47018 0.0811021 0 0 0 
4871 1 0.336475 0.464829 0.0787879 0 0 0 
4872 1 0.339727 0.470439 0.0778365 0 0 0 
4873 1 0.343539 0.466311 0.0799279 0 0 0 
4646 1 0.348148 0.474231 0.0938222 0 0 0 
4645 1 0.351618 0.468884 0.0939073 0 0 0 
4644 1 0.353885 0.472883 0.0894842 0 0 0 
4643 1 0.356987 0.467137 0.0893112 0 0 0 
8137 5 0.189941 0.509994 0.0814436 1 0 5 
4854 1 0.34382 0.486965 0.0870925 0 0 0 
4856 1 0.345239 0.479194 0.0859486 0 0 0 
4659 1 0.336856 0.496121 0.101602 0 0 0 
4855 1 0.348654 0.483393 0.0895601 0 0 0 
4853 1 0.348631 0.487259 0.083206 0 0 0 
4851 1 0.344878 0.491471 0.0792332 0 0 0 
4849 1 0.34646 0.497886 0.0761853 0 0 0 
4852 1 0.347007 0.493193 0.0848207 0 0 0 
4850 1 0.342246 0.496845 0.0806008 0 0 0 
4660 1 0.331072 0.497751 0.0994697 0 0 0 
6002 5 0.0991246 0.51949 0.0636011 4 3 -3 
4686 1 0.314143 0.514676 0.0750136 0 0 0 
4685 1 0.311567 0.516974 0.0803687 0 0 0 
4684 1 0.317766 0.519371 0.0791429 0 0 0 
4683 1 0.317611 0.513792 0.0821016 0 0 0 
4682 1 0.316864 0.51883 0.0864774 0 0 0 
4680 1 0.32099 0.515816 0.0917653 0 0 0 
4687 1 0.312955 0.520793 0.074454 0 0 0 
4661 1 0.330172 0.497763 0.105553 0 0 0 
4681 1 0.323113 0.517905 0.0857682 0 0 0 
7273 5 0.378674 0.508911 0.0688929 5 2 2 
4848 1 0.342095 0.50187 0.0748798 0 0 0 
4844 1 0.342868 0.514542 0.0740516 0 0 0 
4845 1 0.348076 0.512573 0.0765938 0 0 0 
4847 1 0.347376 0.50526 0.075574 0 0 0 
4846 1 0.343123 0.508269 0.0788592 0 0 0 
4843 1 0.346126 0.51974 0.0754167 0 0 0 
4842 1 0.34821 0.518053 0.0695681 0 0 0 
6145 6 0.0527239 0.554568 0.109216 -5 4 6 
6153 5 0.143915 0.512891 0.0771779 -1 0 -2 
4773 1 0.309468 0.534668 0.0628635 0 0 0 
7302 6 0.591732 0.568297 0.066335 -2 4 4 
6209 5 0.775204 0.522994 0.102037 2 -1 2 
4792 1 0.288663 0.546459 0.0666558 0 0 0 
4794 1 0.283655 0.551124 0.06412 0 0 0 
5253 5 0.291312 0.55094 0.0725573 -1 3 1 
4782 1 0.308713 0.553469 0.0750015 0 0 0 
4783 1 0.306425 0.557662 0.0791005 0 0 0 
4781 1 0.312378 0.553194 0.0802038 0 0 0 
8782 5 0.607503 0.548328 0.0436901 -3 -5 3 
8618 6 0.0428399 0.549884 0.0572174 -1 -3 -1 
8905 6 0.840618 0.609999 0.0599962 4 -1 -2 
7736 6 0.726492 0.58161 0.0618073 2 0 -1 
7459 5 0.735484 0.624922 0.0883374 -5 0 1 
8792 6 0.823218 0.542164 0.0485362 2 1 3 
8494 5 0.890166 0.590323 0.115818 -2 -4 3 
8002 6 0.0137499 0.626749 0.0552046 3 -3 3 
6812 6 0.831996 0.643236 0.0742472 -1 2 6 
7341 6 0.0621526 0.65253 0.0808331 -3 -1 2 
6436 5 0.564912 0.698818 0.118216 -3 -5 2 
8203 6 0.376073 0.692254 0.0675 -2 -3 2 
5175 6 0.518849 0.701534 0.082206 -1 1 3 
7102 6 0.0387666 0.720109 0.0642374 -3 -1 -1 
5166 6 0.251974 0.71876 0.0813485 5 -1 -2 
6922 6 0.425912 0.70911 0.0777021 -4 2 3 
5921 6 0.4909 0.687369 0.0489628 5 -2 1 
5950 5 0.348961 0.738373 0.0884657 2 2 2 
5683 6 0.562199 0.730507 0.0397074 4 -6 -2 
7734 5 0.242765 0.780832 0.0884867 5 -1 1 
5699 6 0.806162 0.760134 0.07312 -5 0 -2 
6384 6 0.922287 0.759894 0.114207 -3 1 7 
7065 6 0.95435 0.770794 0.0746882 -5 -1 0 
8176 6 0.0958556 0.792156 0.0680777 -1 -1 -2 
5207 5 0.285924 0.7762 0.082595 3 0 3 
5258 5 0.414035 0.829688 0.0928277 -3 4 -1 
5316 5 0.828737 0.795042 0.0888037 0 0 2 
7113 6 0.873279 0.810131 0.0693324 3 -4 1 
5098 5 0.287538 0.834704 0.074153 1 -5 0 
8715 5 0.491738 0.837267 0.066044 -1 -2 -7 
8030 6 0.872562 0.846409 0.0983046 3 -2 2 
5604 5 0.115846 0.845289 0.0397003 -4 1 3 
5847 6 0.291172 0.902808 0.0708964 -2 1 6 
5645 5 0.427357 0.899636 0.0478809 -2 -2 6 
8540 6 0.509987 0.87503 0.0817101 4 -1 3 
8393 6 0.629977 0.877714 0.0706919 -3 -3 8 
6356 5 0.84774 0.885732 0.0525053 0 -2 -5 
6668 5 0.677294 0.893933 0.100027 -3 0 -2 
8173 5 0.0614992 0.919675 0.0701219 2 -2 -2 
6799 6 0.712264 0.938685 0.0762638 1 -2 3 
8469 5 0.180552 0.980649 0.0832628 2 4 1 
6589 6 0.609825 0.956577 0.133982 0 1 0 
7694 6 0.864794 0.966063 0.0972988 0 3 -2 
5292 5 0.092231 0.965345 0.0790538 5 4 2 
8261 6 0.317898 0.984887 0.0806923 3 -2 -1 
6260 6 0.559449 1.00068 0.0752027 1 1 -3 
8817 5 0.240122 0.997427 0.087696 2 2 0 
8918 6 0.490404 0.0857464 0.127715 -5 6 -4 
6292 6 0.546715 0.0543368 0.0521945 -1 1 1 
6895 5 0.0802488 0.129773 0.0997809 -2 0 -3 
8057 5 0.356641 0.109254 0.0748344 0 2 3 
7403 5 0.397108 0.0609734 0.0534285 -2 -2 5 
8901 6 0.519131 0.0796059 0.101311 1 2 5 
7027 5 0.639946 0.0702379 0.0963377 0 0 0 
8302 5 0.520319 0.0670834 0.103093 3 2 0 
5519 6 0.789837 0.157027 0.10526 -1 1 1 
8904 6 0.478716 0.119426 0.114443 2 1 -3 
6499 5 0.053044 0.184737 0.0981553 -4 -2 -1 
8649 6 0.358928 0.205722 0.10747 -4 3 -3 
6469 6 0.442253 0.167289 0.100193 3 -2 9 
8314 6 0.534936 0.19844 0.0922265 -1 1 -1 
5943 5 0.209578 0.241317 0.0927947 1 -6 -1 
6892 6 0.623188 0.197363 0.0933777 2 -1 5 
7004 6 0.0984884 0.207589 0.0936043 1 0 -2 
8973 5 0.805303 0.249172 0.105967 0 3 8 
5465 5 0.840378 0.229357 0.075461 -3 -2 1 
7036 5 0.454906 0.225749 0.071576 -2 -4 -1 
7012 6 0.384938 0.253856 0.0837364 -2 0 -1 
7133 5 0.111373 0.305388 0.0882439 -3 -3 0 
7169 6 0.782292 0.298356 0.0889741 2 -1 3 
6889 6 0.240153 0.321177 0.110123 -3 4 1 
6105 6 0.256176 0.32301 0.125937 3 -2 0 
5324 5 0.296053 0.329684 0.115831 0 -2 0 
5670 6 0.275868 0.364318 0.0961202 0 -2 -1 
5351 5 0.878969 0.411303 0.074781 -1 -3 2 
5889 6 0.40857 0.395243 0.0819829 1 2 -1 
5344 5 0.741314 0.371675 0.101688 0 1 -2 
5314 5 0.80664 0.382422 0.0627935 1 3 -1 
8044 6 0.191898 0.435356 0.101546 1 -2 -1 
7162 6 0.494071 0.435751 0.113549 1 0 2 
7499 5 0.00652345 0.395073 0.102868 4 -4 4 
7244 5 0.14006 0.440865 0.0659766 -3 0 -1 
8235 6 0.128969 0.463971 0.100078 -1 4 2 
6288 6 0.26995 0.499099 0.116541 4 0 1 
4864 1 0.322774 0.470147 0.0927769 0 0 0 
4859 1 0.337134 0.477604 0.0947119 0 0 0 
8305 5 0.314663 0.466555 0.0971584 4 -5 7 
4861 1 0.330285 0.47932 0.0959983 0 0 0 
4647 1 0.353973 0.475643 0.0960964 0 0 0 
4648 1 0.350174 0.477323 0.100935 0 0 0 
4650 1 0.349443 0.484617 0.0986006 0 0 0 
4649 1 0.354648 0.481742 0.100096 0 0 0 
4651 1 0.353891 0.487382 0.0948877 0 0 0 
4652 1 0.351397 0.491362 0.0990916 0 0 0 
4642 1 0.361267 0.471293 0.0915561 0 0 0 
4641 1 0.360853 0.4664 0.0952711 0 0 0 
4640 1 0.365734 0.469819 0.0969219 0 0 0 
4639 1 0.365473 0.465411 0.101306 0 0 0 
4638 1 0.361269 0.46996 0.102856 0 0 0 
4635 1 0.368336 0.479279 0.107687 0 0 0 
4637 1 0.367468 0.472157 0.104024 0 0 0 
6240 5 0.0224728 0.458743 0.0947984 0 -3 -6 
4658 1 0.337633 0.500204 0.0970235 0 0 0 
4657 1 0.341441 0.494817 0.0957322 0 0 0 
4662 1 0.331604 0.503475 0.103584 0 0 0 
7468 5 0.345441 0.489636 0.0933279 -3 1 1 
4656 1 0.344764 0.498392 0.0995172 0 0 0 
4654 1 0.351861 0.4988 0.0966804 0 0 0 
4653 1 0.351782 0.493602 0.092712 0 0 0 
4655 1 0.346664 0.498123 0.0925678 0 0 0 
4628 1 0.365808 0.49892 0.11172 0 0 0 
4636 1 0.363046 0.477013 0.104668 0 0 0 
4634 1 0.363479 0.483573 0.108048 0 0 0 
4630 1 0.363727 0.492982 0.107432 0 0 0 
4632 1 0.369193 0.487292 0.108827 0 0 0 
4631 1 0.365884 0.49109 0.113256 0 0 0 
4633 1 0.366045 0.483256 0.113798 0 0 0 
4629 1 0.359935 0.495823 0.111414 0 0 0 
8749 6 0.38042 0.518531 0.0935654 -4 -3 3 
7485 6 0.877308 0.469836 0.125562 0 -3 -3 
4678 1 0.32143 0.508772 0.0930972 0 0 0 
7077 5 0.321433 0.498167 0.103682 2 -1 1 
4664 1 0.328931 0.501997 0.110762 0 0 0 
4663 1 0.325519 0.503215 0.105944 0 0 0 
4666 1 0.326213 0.495259 0.111702 0 0 0 