ITEM: TIMESTEP
20000000
ITEM: NUMBER OF ATOMS
9000
ITEM: BOX BOUNDS pp pp pp
-75 75
-75 75
-75 75
ITEM: ATOMS id type xs ys zs ix iy iz 
6468 6 0.0954543 0.062913 0.00649246 2 0 1 
8006 5 0.516542 0.994035 0.967718 -3 1 3 
8464 6 0.583479 0.0193866 0.0161495 -6 0 -2 
5665 5 0.822533 0.019466 0.969795 2 -3 1 
6278 6 0.430374 0.0372722 -0.00375455 0 -1 6 
6754 5 0.127244 0.0495833 0.0165244 -2 5 4 
7675 6 0.328812 0.0867139 0.0178496 -1 0 1 
7362 6 0.475441 0.0383039 0.971253 -1 2 -2 
6849 5 0.547308 0.131148 0.0135359 -2 1 2 
7425 5 0.871593 0.141137 0.0259362 -6 0 0 
5915 5 0.0747119 0.21447 0.9912 -2 2 -3 
6870 5 0.100613 0.178017 0.0290682 -1 -3 5 
7745 6 0.0794814 0.180551 0.0180996 0 1 -4 
8478 6 0.236958 0.220172 0.0359425 3 -1 0 
8829 6 0.638959 0.190816 0.0019611 -2 1 -2 
5383 6 0.700264 0.209973 0.0261342 5 2 -3 
8279 6 0.0355414 0.244969 0.0138958 2 -4 0 
6630 5 0.27507 0.216451 0.00649428 -1 -1 2 
8046 5 0.175275 0.221073 0.00409865 0 3 1 
8140 5 0.689464 0.237571 0.0188282 1 3 5 
7223 6 0.170422 0.232196 0.997182 0 -3 -1 
5363 5 0.20837 0.238682 0.0139867 2 -4 2 
7688 6 0.849086 0.294935 0.971137 4 -4 -2 
6846 6 0.890434 0.322427 0.0308768 4 0 -1 
8665 6 0.426686 0.321907 0.985843 2 2 -1 
8488 5 0.0126396 0.360744 0.0419087 -1 5 -3 
6058 5 0.355465 0.359509 0.0333043 -1 7 3 
6224 6 0.997764 0.382224 0.0233875 3 -7 1 
8469 5 0.549562 0.374815 0.029385 0 0 -1 
7819 6 0.645064 0.371896 0.0173261 1 2 1 
6906 6 0.618542 0.376117 0.000769515 1 -1 2 
7659 5 0.954576 0.376883 0.0425569 3 2 -6 
7453 5 0.0204214 0.398727 0.967267 -3 0 -1 
6038 5 0.156348 0.412562 0.0177833 -4 5 0 
8812 5 0.486206 0.415491 0.0155068 -1 -4 4 
6370 6 0.682065 0.353232 0.996494 -3 1 -6 
5680 5 0.274401 0.459256 0.990863 1 -2 2 
7058 6 0.599611 0.444579 0.0133233 -2 0 5 
8199 6 0.734667 0.501425 -0.00241082 -2 -3 1 
7296 6 0.245527 0.489458 0.0107231 -4 3 3 
5689 6 0.499274 0.555083 0.00549219 0 -2 -3 
7278 6 0.958682 0.563327 1.00154 -3 -2 0 
8495 5 0.22706 0.596086 0.0127049 2 -2 -2 
5020 6 0.410238 0.578824 0.0360893 3 0 3 
8691 6 0.783779 0.610113 -0.000731483 -1 -3 -1 
5907 6 0.910009 0.598587 0.0302897 0 1 1 
5801 5 0.13745 0.650039 0.0333028 1 -8 1 
6369 6 0.401555 0.673263 0.0104373 1 0 0 
8819 6 0.902607 0.656213 0.0109681 -4 0 2 
6957 5 0.322764 0.681196 0.0175571 -4 -4 -1 
7442 5 0.792149 0.635878 0.0116202 0 -4 1 
8870 6 0.974021 0.661411 0.999038 -3 3 3 
7960 5 0.415179 0.710649 0.996049 7 9 0 
7836 5 0.444505 0.688654 0.00967014 -3 4 0 
5572 5 0.284316 0.719364 0.0161859 -4 -1 6 
6497 6 0.826176 0.742231 -0.00469806 1 2 1 
6161 5 0.299664 0.752891 0.991327 1 -1 7 
8935 5 0.425577 0.73659 0.969797 -1 0 2 
8486 6 0.644611 0.785358 0.991712 0 2 -6 
8920 5 0.739096 0.781684 0.0425496 -4 2 2 
8886 6 0.889878 0.75349 0.0139029 -3 5 -2 
8439 5 0.152896 0.772302 0.0670085 0 -1 5 
5384 6 0.0948222 0.822457 0.00332405 1 2 1 
8836 5 0.275113 0.789961 0.0116269 1 4 0 
7990 5 0.963591 0.800931 0.977438 -2 -1 -1 
6436 6 0.434425 0.801623 0.0447275 -1 3 3 
6339 5 0.237341 0.914843 0.00291978 5 -1 -1 
7099 6 0.249761 0.812216 0.996685 2 -1 -2 
7495 5 0.158373 0.837055 0.0180129 1 2 4 
5733 6 0.347516 0.834508 0.993188 -3 0 -4 
7031 6 0.618736 0.870597 0.000325728 2 3 2 
5048 6 0.260928 0.902884 0.0423399 3 -1 2 
8583 5 0.493815 0.892944 0.992799 0 1 -6 
5954 5 0.160462 0.953299 0.991934 0 1 2 
7962 5 0.733569 0.909548 0.0352811 -2 7 -4 
8849 5 0.774676 0.858182 0.013057 4 -2 -4 
8087 5 0.94703 0.878918 0.000153353 -2 -2 2 
7216 6 0.962037 0.933769 0.994009 -2 5 -1 
6126 6 0.642203 0.0118988 0.0119037 -3 -1 0 
6447 5 0.801287 0.959429 0.0020015 3 -1 4 
7545 6 0.908356 0.963507 0.0490001 -1 2 1 
8923 5 0.759246 0.989527 0.0128566 1 -3 2 
8903 6 0.318261 0.025919 0.0337859 2 3 1 
6646 6 0.961876 0.0533213 0.986682 -1 0 -4 
7023 6 0.399522 0.148405 0.0216825 -6 1 4 
5591 5 0.767984 0.0858584 0.0464429 0 0 3 
8978 6 0.956109 0.0780969 0.0487131 1 -2 3 
7089 6 0.0641178 0.0987868 0.0223929 2 0 3 
8705 5 0.125119 0.131569 0.0569321 -3 -2 -1 
8213 5 0.272401 0.085662 0.0617045 2 -1 6 
6044 5 0.360993 0.065051 0.0482053 -3 3 -1 
8229 6 0.547345 0.149976 0.99022 3 1 0 
7852 5 0.73686 0.103037 0.0400715 -1 2 5 
6944 5 0.317465 0.159179 0.0520283 -1 -2 1 
5340 5 0.354829 0.184864 0.0330295 0 2 1 
6164 5 0.537512 0.172769 0.0100895 -5 0 4 
8128 6 0.781639 0.112144 0.00534608 -1 0 3 
6972 5 0.824477 0.141004 0.0182125 0 -3 3 
8575 6 0.795527 0.150713 0.0467661 2 2 -3 
5394 5 0.55128 0.209421 0.0307162 0 3 3 
7635 6 0.0828275 0.240281 0.045753 -5 -3 0 
6938 5 0.713998 0.20056 0.0504795 3 -3 1 
6368 5 0.56465 0.282635 0.0274066 4 -5 -1 
8732 5 0.960136 0.246348 0.0676304 -3 -3 3 
6544 5 0.984761 0.271384 0.00856621 3 7 0 
6026 5 0.0563096 0.288213 0.0265676 -3 -1 -3 
8882 5 0.246191 0.303024 0.0350726 0 -1 3 
8796 6 0.680133 0.304836 0.0223354 2 -2 1 
8178 6 0.0920608 0.333403 0.0163452 -2 0 0 
8624 6 0.556494 0.361956 0.0265307 -4 5 1 
5024 5 0.659324 0.360302 0.00270379 -5 -2 0 
8079 5 0.763151 0.32071 0.0213053 3 0 -3 
7994 5 0.518745 0.382229 0.0334749 3 1 1 
5314 6 0.24347 0.407795 0.0316674 -6 -2 3 
8546 6 0.262905 0.392175 0.0277499 0 -2 1 
6106 6 0.276538 0.420945 0.0137558 1 1 2 
6452 6 0.171424 0.422642 0.0636852 8 -6 3 
7411 5 0.221694 0.465372 0.0183855 -2 -1 0 
8110 5 0.843424 0.454869 0.972395 1 4 2 
8963 5 0.134871 0.438433 0.0271442 -1 2 1 
7129 6 0.693707 0.447565 0.05736 4 -1 -3 
5446 5 0.158773 0.503104 0.0567574 4 0 1 
5914 6 0.0142764 0.570449 0.0433856 -3 5 -3 
8479 6 0.0651154 0.517836 0.0103103 6 7 6 
7964 6 0.238854 0.558803 0.0210373 4 -1 0 
5276 6 0.234017 0.536106 0.0215538 1 1 2 
7452 5 0.261372 0.528282 0.00991838 3 1 -4 
8366 6 0.548169 0.593762 0.99813 1 1 1 
7214 5 0.070009 0.602767 0.0305955 -1 -1 2 
5128 5 0.257124 0.611697 0.0751488 -2 -1 0 
8972 5 0.368139 0.589327 0.0616883 -2 3 3 
5756 6 0.61682 0.588044 0.0295621 4 -3 1 
8044 5 0.712853 0.600866 0.0564523 -3 1 -2 
8558 5 0.113065 0.631452 0.0299692 2 5 4 
6801 6 0.547846 0.607782 0.0355059 -2 5 4 
8605 6 0.0463726 0.621048 0.0110445 1 2 5 
5692 6 0.594469 0.633831 0.050419 -3 2 -4 
5600 5 0.0809784 0.646232 0.0420444 -1 0 6 
5885 5 0.617155 0.703237 0.0560399 0 2 -6 
7578 6 0.0867313 0.708243 0.0329797 4 -3 2 
5944 6 0.113936 0.694186 0.0134903 -2 -3 1 
7787 5 0.548725 0.691991 0.0443552 3 -2 0 
5772 5 0.842824 0.705846 0.0372206 5 -6 -1 
8089 6 0.0069174 0.690398 0.0110576 5 -2 -1 
7143 5 0.263773 0.685782 0.0489774 -1 1 2 
8379 6 0.458488 0.751521 0.0195686 4 -1 4 
6319 5 0.685353 0.771183 0.0496933 -2 -2 4 
5231 5 0.781728 0.777954 0.0292873 3 -5 0 
8598 6 0.79375 0.765215 0.0221455 -3 2 -3 
8435 6 0.215272 0.790306 0.0748021 -1 1 -5 
7174 5 0.473543 0.763341 0.0408726 6 1 1 
8150 5 0.600215 0.760612 0.0416471 -3 -4 -3 
8996 6 0.439302 0.781872 0.0181563 0 0 -2 
7182 5 -0.0026046 0.828627 0.0411325 -2 3 4 
7163 6 0.18707 0.858645 0.0261846 -1 0 -1 
6549 6 0.720973 0.878366 0.0271036 2 -7 -1 
6862 6 0.177851 0.858164 0.0191702 4 -1 2 
5975 6 0.332548 0.838645 0.0607286 -2 9 -1 
7554 5 0.48246 0.917696 0.0112524 -6 5 5 
5574 5 0.621794 0.894233 0.0430857 1 0 -1 
8800 6 0.829353 0.918413 0.0348941 -1 0 2 
6341 5 0.460666 0.921912 0.0492336 2 -3 6 
7039 5 0.570423 0.945528 0.00826977 2 0 -2 
6710 5 0.859454 0.985181 0.0061289 -1 0 3 
7901 5 0.954169 0.955486 0.0151796 -4 2 1 
6489 6 0.0183046 0.97337 0.06341 -1 2 1 
8959 6 0.0864726 0.991265 0.0551468 1 -3 -1 
6056 6 0.653831 0.987257 0.0327574 -1 1 -2 
8559 6 0.741459 1.00131 0.0415859 -3 1 3 
7931 6 0.083489 0.99977 0.0183136 1 3 -2 
7459 5 0.112949 0.977549 0.0538294 -3 2 3 
6166 5 0.205358 0.0338165 0.0296448 -5 0 0 
7776 6 0.340605 0.985228 0.0401409 -2 0 6 
5112 6 0.0806782 0.0120327 0.0615363 -2 1 2 
7507 5 0.443954 0.0184451 0.0501558 7 -2 2 
7051 6 0.620189 0.0265952 0.067208 -1 -5 -2 
7511 6 0.00387902 0.0178951 0.0579799 -1 2 0 
6323 5 0.389306 0.0614942 0.0457779 -5 2 -1 
5114 6 0.571975 0.070889 0.07635 3 0 5 
5422 6 0.762209 0.0561862 0.0345364 -1 2 3 
7602 6 0.93346 0.0784244 0.0619617 0 1 0 
7436 6 0.903641 0.0419545 0.027141 -2 4 3 
6233 6 0.180269 0.0733798 0.0764882 2 0 -1 
5208 6 0.456342 0.0817785 0.0496654 3 -3 -2 
7409 6 0.842598 0.0781687 0.0406401 -2 2 1 
8235 6 0.194825 0.162609 0.0678396 0 2 1 
6596 5 0.256564 0.104675 0.0107294 -1 -1 3 
7375 6 0.993166 0.131592 0.0918198 3 -3 -4 
6508 6 0.392411 0.188712 0.0503508 0 0 -5 
8827 6 0.49023 0.160491 0.0657347 4 -3 3 
7454 6 0.490862 0.205192 0.0849804 -2 1 2 
6579 5 0.868902 0.162773 0.0573282 -3 0 -2 
8471 6 0.0196986 0.222709 0.0455863 2 0 0 
6271 5 0.884355 0.20051 0.0338482 1 -4 0 
6200 6 0.566137 0.271337 0.0341738 2 4 -4 
6505 6 0.787103 0.251528 0.0631384 -3 2 1 
6689 6 0.0434243 0.257992 0.0512248 4 5 0 
5306 6 0.0518158 0.257889 0.097284 -3 2 1 
7691 6 0.0526389 0.289081 0.0483049 -1 0 3 
7152 5 0.200241 0.323368 0.0624852 -1 4 2 
7267 6 0.208687 0.333833 0.072771 4 -3 5 
8547 5 0.307315 0.316016 0.0600463 0 2 1 
5588 6 0.984135 0.328777 0.0533858 1 4 0 
8416 5 0.552823 0.329125 0.0710156 -1 -5 0 
7387 5 0.699971 0.344413 0.037872 3 5 -8 
7439 6 0.139621 0.416928 0.0754655 4 0 -7 
6492 6 0.0209703 0.401603 0.0377781 7 -3 1 
7888 5 0.982538 0.44601 0.0254851 3 -1 5 
7630 6 0.309317 0.408572 0.0454664 5 3 3 
6981 5 0.961143 0.41779 0.0506927 1 1 -2 
6888 5 0.994344 0.422404 0.0660516 -7 3 7 
5775 5 0.33029 0.449518 0.0612516 3 0 -1 
8493 5 0.526567 0.451938 0.0460542 1 0 5 
5635 6 0.0521983 0.481925 0.0628504 2 0 -1 
5849 6 0.84263 0.413471 0.0215539 0 -2 2 
8955 5 0.513282 0.500948 0.0216307 3 2 -1 
5506 5 0.0727424 0.512895 0.0538677 -4 -1 6 
5749 5 0.22835 0.501332 0.0501872 -2 -1 1 
7639 6 0.36199 0.512103 0.0806911 1 -3 1 
8536 6 0.703014 0.525566 0.0433223 1 6 1 
6001 5 0.708998 0.528581 0.0266354 -2 -2 -2 
5220 6 0.00791361 0.505887 0.0918394 3 0 5 
7700 5 0.226072 0.543339 0.0329791 -4 2 0 
6686 6 0.380301 0.565191 0.0623685 2 -1 4 
7756 6 0.297635 0.613514 0.994169 2 2 4 
6729 6 0.708303 0.590383 0.0526638 -1 0 1 
7128 6 0.990736 0.60808 0.0281952 0 0 2 
6006 5 0.678602 0.600733 0.0581993 0 0 6 
6105 6 0.0462502 0.652082 0.0791509 -1 7 1 
7530 5 0.115767 0.658383 0.0582122 -3 -1 1 
5970 5 0.649952 0.67984 0.0457639 -2 1 -5 
5660 6 0.110381 0.696444 0.0326626 -5 -4 -2 
5812 6 0.82458 0.651804 0.0579971 -4 2 -1 
6909 6 0.514337 0.747797 0.0803154 -1 3 2 
5268 5 0.894326 0.732659 0.0340706 -2 2 -6 
7070 5 0.625722 0.738785 0.0374043 6 1 -1 
5047 6 0.216225 0.741067 0.0516613 0 -4 4 
5035 6 0.898114 0.764802 0.034873 3 3 2 
6859 6 0.652602 0.78324 0.0499809 -4 -2 -2 
6816 6 0.75331 0.781322 0.0618225 0 -5 3 
5787 6 0.702018 0.809021 0.0489346 3 -3 1 
5741 6 0.0529983 0.815585 0.0416279 4 -2 1 
8438 6 0.374645 0.841251 0.0153209 -6 0 -4 
6610 6 0.259874 0.888359 0.0741732 -4 0 -1 
5131 5 0.167385 0.926599 0.0861809 5 4 1 
8063 5 0.343494 0.920901 0.0335954 -2 -3 3 
8757 5 0.500634 0.928175 0.082937 1 -2 3 
8082 6 0.670387 0.91054 0.0797527 -3 2 2 
6376 6 0.091262 0.958109 0.0962836 -1 1 1 
7998 6 0.22526 0.958586 0.100214 2 1 2 
5483 6 0.222388 0.993252 0.0649866 -5 -3 1 
8531 6 0.258387 0.95005 0.0482653 -7 -4 -2 
7780 5 0.692302 0.960449 0.0508681 -1 -2 0 
5930 6 0.564066 0.97454 0.0429573 3 2 3 
5381 5 0.753756 0.0358354 0.0666632 7 4 4 
8383 6 0.851279 0.980422 0.0379328 5 3 2 
5338 6 0.00779746 0.974849 0.0606446 4 2 -1 
5426 6 0.792801 0.990584 0.0604265 -3 -4 -3 
6082 5 0.778327 0.00536778 0.071741 0 1 4 
7206 5 0.817093 0.0362518 0.0838653 0 8 1 
5160 5 0.868492 0.0051914 0.0645136 2 2 -1 
8206 5 0.857005 0.0210455 0.0849665 -1 -2 0 
6694 6 0.624772 0.0933363 0.109898 4 4 -2 
5246 5 0.15516 0.0825972 0.0885258 3 0 1 
8989 5 0.364875 0.0994519 0.0875923 1 4 3 
8739 6 0.426473 0.12309 0.0666437 -2 -1 -1 
5435 6 0.609305 0.11043 0.0944141 -1 -3 -2 
8200 6 0.617968 0.0900574 0.0575494 0 1 -3 
8500 6 0.689696 0.0871167 0.0304368 2 -3 5 
8482 5 0.972184 0.127844 0.0964787 0 3 2 
5299 6 0.0338888 0.142084 0.0935012 2 -2 -4 
5537 6 0.227368 0.128443 0.0443166 -4 -2 2 
7715 6 0.490583 0.111255 0.0850762 1 -3 -3 
8153 6 0.593197 0.166429 0.0768254 -5 3 2 
7767 6 0.0622311 0.153239 0.0874583 2 -4 -1 
6947 6 0.739319 0.169039 0.0285596 -5 5 2 
8293 6 0.990535 0.146712 0.0674571 -2 5 4 
6537 5 0.239516 0.175566 0.0939681 -2 0 6 
8057 5 0.248848 0.203721 0.090097 -1 -1 2 
7589 6 0.477357 0.222778 0.0842771 4 3 2 
5234 6 0.0213712 0.234044 0.0646563 1 0 -6 
7921 6 0.275517 0.191823 0.0507271 -2 5 -6 
6640 6 0.597957 0.196143 0.118708 0 -6 7 
6743 5 0.695707 0.222327 0.0687279 -1 2 0 
7477 5 0.785274 0.232856 0.103022 0 -5 -1 
7270 5 0.883812 0.232919 0.0896113 -5 1 5 
7401 6 0.0761733 0.204609 0.118046 2 -4 -1 
6067 6 0.339825 0.247504 0.0702347 0 -1 2 
8380 6 0.432448 0.204587 0.0885959 1 2 0 
7190 6 0.567038 0.198413 0.0594074 -4 2 5 
6408 5 0.280251 0.292468 0.0725242 2 3 2 
8922 5 0.280375 0.26765 0.0576698 -3 -3 0 
5316 5 0.641169 0.269748 0.0404924 0 1 3 
8230 6 0.519124 0.298101 0.0495402 -2 5 3 
8909 5 0.353315 0.315623 0.0663341 2 4 3 
7588 6 0.906786 0.315812 0.0521075 -1 -6 -1 
5317 5 0.319016 0.366652 0.0378797 2 0 -3 
8371 6 0.392469 0.341271 0.0960259 -2 -4 1 
5808 5 0.601531 0.348005 0.039663 -1 1 -3 
7168 6 0.87395 0.32791 0.0771573 1 3 0 
6011 6 0.174426 0.403197 0.0771465 -1 3 0 
7095 6 0.463607 0.38291 0.0905962 1 1 2 
6300 6 0.421125 0.41286 0.0794945 -1 2 1 
8588 6 0.50794 0.410609 0.0513785 -2 2 0 
6633 6 0.897928 0.394184 0.094155 1 2 -2 
5132 6 0.945779 0.405531 0.0840877 -2 6 5 
6281 5 0.0539874 0.414975 0.102965 7 0 6 
7294 6 0.436756 0.376633 0.117807 2 0 -2 
7539 6 0.15201 0.413261 0.0836957 2 7 1 
5705 6 0.441058 0.468205 0.0693274 -4 1 -2 
6137 5 0.355697 0.403533 0.0769897 -5 0 -1 
5973 6 0.490795 0.463187 0.0833422 4 2 0 
8634 6 0.535333 0.495708 0.0553398 1 4 -2 
7713 6 0.891791 0.527414 0.0805321 3 -2 1 
5894 5 0.33546 0.570494 0.0753947 0 4 3 
5341 6 0.853239 0.581012 0.0740511 0 -2 1 
7188 5 0.233565 0.550595 0.0726613 1 0 0 
6567 5 0.493982 0.554677 0.0625059 1 0 0 
7784 6 0.699303 0.573853 0.0512336 0 4 -2 
6192 6 0.263186 0.592884 0.0715381 0 -2 0 
6641 6 0.33326 0.565079 0.104077 -1 3 0 
7068 6 0.154105 0.640128 0.122631 3 0 -4 
6921 6 0.634842 0.67494 0.0910537 6 3 -5 
8344 5 0.939619 0.696697 0.0890828 -1 0 3 
8357 6 0.612718 0.695394 0.0652616 -1 0 1 
8368 5 0.0758232 0.74518 0.0991306 -1 5 -1 
5357 6 0.609833 0.754063 0.0851009 0 0 3 
6350 5 0.0359525 0.797546 0.10624 0 -2 0 
5846 5 0.100698 0.831845 0.0848303 -2 1 5 
6715 5 0.574475 0.769367 0.107782 3 2 -2 
5155 5 0.05886 0.822662 0.113824 -1 -3 -2 
7956 6 0.736123 0.855239 0.0761248 -4 -1 4 
8300 5 0.41459 0.844607 0.114973 0 6 -1 
5328 6 0.457067 0.863281 0.0762659 -4 -4 -5 
6343 5 0.810959 0.851114 0.0985889 4 2 -2 
6555 5 0.900661 0.862353 0.0724724 1 -2 -4 
7526 5 0.185662 0.908761 0.0598838 2 0 3 
5893 6 0.376167 0.920971 0.0948447 0 0 4 
8208 5 0.0741458 0.947409 0.0572135 3 2 1 
7864 5 0.416158 0.932119 0.087995 -1 -1 -4 
8107 6 0.223228 0.9736 0.0390962 -3 -2 2 
6893 6 0.61218 0.0391059 0.0527429 3 8 -6 
8374 5 0.767002 0.0129677 0.086959 0 2 1 
5905 5 0.859152 0.985157 0.146077 5 -2 -3 
5770 5 0.208799 0.0763856 0.0971015 2 -4 4 
7366 6 0.802404 0.110051 0.108805 0 0 1 
5215 5 0.465144 0.144071 0.0645341 0 4 7 
7275 6 0.73608 0.124363 0.129881 2 -2 3 
5621 6 0.904649 0.155909 0.12425 -3 -1 0 
7510 5 0.170943 0.173819 0.0958648 2 0 5 
8581 5 0.19712 0.13899 0.100011 6 -4 3 
6687 5 0.421105 0.147733 0.0594931 -2 -1 4 
6256 6 0.239122 0.206949 0.123998 -2 2 4 
5050 5 0.918266 0.197348 0.10253 -7 -3 1 
7162 6 0.0738175 0.229021 0.0917254 2 3 1 
7171 6 0.261117 0.199865 0.10277 1 3 3 
6897 5 0.305833 0.226906 0.0781211 2 4 2 
8848 6 0.324734 0.243783 0.109175 0 4 1 
5191 6 0.762874 0.237464 0.123237 6 -2 1 
6228 5 0.950499 0.229951 0.105492 -2 2 -1 
6602 6 0.503278 0.247511 0.158092 0 1 1 
5181 6 0.481236 0.242532 0.142965 -3 2 -1 
5800 5 0.459559 0.234544 0.10512 4 -1 0 
7458 5 0.659596 0.233187 0.119087 -1 3 2 
7042 6 0.970587 0.297066 0.0645111 1 2 -5 
5797 6 0.964215 0.27661 0.0904127 3 2 -1 
6839 5 0.119048 0.299804 0.131596 0 0 2 
5472 5 0.928322 0.301593 0.101375 2 1 -2 
8550 6 0.909733 0.305589 0.0793505 -1 -2 4 
8017 5 0.0180187 0.374334 0.106962 -2 2 1 
5443 6 0.305466 0.298076 0.0873883 2 2 5 
8333 5 0.462799 0.322538 0.0802091 0 6 1 
5694 6 0.742538 0.337797 0.100833 2 2 -5 
5065 6 0.0572422 0.396866 0.124075 -4 -2 2 
6525 6 0.0800759 0.356599 0.126878 4 2 -1 
6900 5 0.343776 0.345315 0.0832381 -1 2 0 
7265 6 0.414625 0.368057 0.103887 -2 -7 2 
6787 5 0.818475 0.409145 0.120596 1 0 3 
7238 5 0.146319 0.367307 0.111929 -2 2 3 
7213 6 0.367723 0.407853 0.126471 0 3 -3 
6191 5 0.0931508 0.441823 0.114205 -5 1 2 
7150 6 0.704135 0.426696 0.0993542 -1 3 4 
8413 6 0.476676 0.473645 0.143881 4 -1 -2 
6301 5 0.710669 0.422443 0.0835044 3 -4 0 
8326 6 0.00881022 0.518416 0.104709 -3 4 3 
8325 6 0.578472 0.528017 0.103778 0 0 2 
7718 6 0.91804 0.475824 0.108269 4 0 3 
8628 5 0.282224 0.582916 0.108508 -2 -1 2 
5445 6 0.365294 0.560686 0.108207 3 1 1 
5056 6 0.465066 0.572828 0.106182 2 -3 1 
8346 5 0.256814 0.59663 0.077005 3 -2 -1 
8535 6 0.702299 0.617475 0.102357 -1 -1 -1 
8329 5 0.855228 0.613182 0.116183 2 3 0 
7386 5 0.187833 0.60833 0.116714 1 -4 2 
6828 5 0.812199 0.591987 0.0992234 -3 0 3 
7228 6 0.748243 0.663736 0.103714 -5 -3 7 
8152 6 0.821564 0.656927 0.131253 3 -5 7 
5734 5 0.769217 0.674864 0.0790379 0 0 -1 
8807 6 0.0811016 0.696201 0.13335 -1 -3 2 
5163 6 0.312333 0.691001 0.111956 0 0 2 
6948 5 0.751796 0.709416 0.111918 -3 1 0 
7599 6 0.44915 0.724311 0.145893 0 1 -2 
6415 5 0.760515 0.719653 0.11424 -6 1 3 
5146 5 0.730138 0.698085 0.101404 0 -6 2 
6084 5 0.538309 0.686609 0.133195 3 -5 1 
8632 6 0.0105367 0.763528 0.110618 3 -2 2 
5221 6 0.0350957 0.793087 0.117164 4 0 6 
5909 6 0.250724 0.781005 0.105182 1 -2 -1 
8487 5 0.0352079 0.770871 0.127078 1 -2 -1 
8422 6 0.302474 0.840511 0.14245 5 4 -1 
6982 6 0.830781 0.783331 0.0789067 -3 0 3 
7345 5 0.00297064 0.827617 0.0880058 5 -2 5 
5979 5 0.1901 0.83366 0.0951143 2 4 -5 
6231 6 0.605432 0.870526 0.130286 0 -1 0 
6074 5 0.677746 0.870175 0.0754109 0 2 -2 
6915 6 0.830933 0.83969 0.149411 4 5 6 
6112 6 0.87938 0.876587 0.0760056 0 2 -1 
5628 5 0.921648 0.833507 0.113683 -1 -3 1 
8472 5 0.134818 0.88014 0.0917511 -1 -3 1 
7790 6 0.724908 0.890699 0.112432 -4 -3 -4 
5141 5 0.287387 0.999991 0.112521 5 -2 3 
6514 6 0.0113428 -0.00285461 0.0949224 1 2 2 
7660 5 0.62475 0.944739 0.0930134 -6 -2 1 
8825 5 0.90107 0.954821 0.073911 1 -2 1 
5976 6 0.276438 0.975009 0.0834994 0 3 0 
7803 5 0.429177 0.013871 0.100987 2 1 7 
8159 6 0.774392 0.0527007 0.107051 0 1 2 
8194 6 0.0635092 0.999489 0.124476 -2 -1 4 
7340 6 0.76938 0.0397195 0.109539 2 2 1 
6979 5 0.0658812 0.0794994 0.13713 3 2 2 
7100 6 0.101767 0.0995291 0.130313 2 3 5 
5641 5 0.572798 0.0241595 0.130197 -2 -2 5 
5737 6 0.176799 0.0633082 0.123015 2 -2 2 
8788 5 0.544068 0.0682893 0.0968156 -2 -2 -3 
8258 6 0.184464 0.168717 0.126449 3 1 0 
7895 6 0.830712 0.1641 0.137091 0 0 0 
6015 6 0.159597 0.169276 0.123478 0 -1 -1 
7372 5 0.347987 0.209333 0.13593 2 0 0 
5940 6 0.307182 0.2551 0.144414 -5 -1 1 
7114 6 0.468597 0.25327 0.131216 2 -1 3 
6416 5 0.229401 0.254325 0.086753 -1 -4 6 
8084 6 0.726255 0.290062 0.136105 0 3 -3 
6657 5 0.738912 0.315776 0.13935 0 3 -1 
5895 5 0.120758 0.320256 0.112001 0 2 0 
8968 5 0.503234 0.302862 0.130754 0 -1 1 
8188 5 0.708603 0.312561 0.139371 -4 3 1 
5702 6 0.00812531 0.294417 0.168101 4 -4 1 
6591 6 0.0233998 0.343175 0.0995126 1 4 -1 
7502 6 0.0990237 0.350199 0.155363 0 2 -3 
5511 5 0.204209 0.355625 0.10828 0 0 -2 
8664 5 0.335712 0.351189 0.0970994 0 0 -3 
7843 6 0.0490531 0.44179 0.100553 5 2 -5 
7799 5 0.297261 0.398354 0.0986007 -1 0 3 
6762 6 0.774914 0.417439 0.131917 0 1 3 
8392 5 0.159329 0.38387 0.15531 0 -1 1 
7003 5 0.750796 0.41055 0.107216 2 -2 2 
6279 6 0.8776 0.391569 0.133278 -5 6 -5 
6765 5 0.399788 0.437131 0.140542 -5 -1 2 
6180 5 0.62385 0.408377 0.129974 3 0 8 
7057 5 0.827064 0.385975 0.138886 3 -1 0 
6101 6 0.472699 0.435213 0.137799 1 -5 -1 
5634 6 0.435111 0.436613 0.122528 -2 -3 3 
8389 5 0.744459 0.451703 0.126164 -3 -4 1 
8353 5 0.240767 0.470826 0.166864 1 0 0 
7153 6 0.267497 0.477737 0.105247 0 -6 -4 
7074 6 0.374 0.48972 0.153728 1 -1 -1 
7189 6 0.560483 0.514024 0.110976 -3 0 -1 
6776 5 0.693596 0.526802 0.110978 0 2 1 
6417 6 0.105149 0.51365 0.121524 4 -2 0 
5551 5 0.31634 0.561748 0.115423 -3 0 1 
5560 6 0.479758 0.538644 0.142115 0 -3 -8 
5638 5 0.133232 0.568986 0.122742 2 3 -3 
8548 6 0.753247 0.535683 0.159226 4 2 -2 
6325 5 0.208657 0.561071 0.108931 2 1 0 
6307 6 0.318832 0.586636 0.133736 -4 3 -2 
7429 5 0.775809 0.600664 0.115977 -1 2 2 
8023 6 0.500526 0.572251 0.106475 -5 2 6 
5896 5 0.786617 0.614332 0.15262 -5 -1 -1 
6535 6 0.253045 0.666345 0.134891 0 2 -2 
5510 5 0.777569 0.607253 0.121355 -3 1 7 
6594 6 0.920627 0.633563 0.133291 1 2 4 
7264 5 0.434005 0.669823 0.128352 4 4 3 
7067 5 0.727667 0.646594 0.125276 -4 1 1 
6841 6 0.112796 0.682654 0.134132 1 5 1 
5076 5 0.433495 0.71342 0.131969 0 -4 -1 
8973 5 0.515892 0.705201 0.111719 3 -7 4 
5254 6 0.940688 0.672508 0.12875 0 -3 0 
6825 6 0.00335978 0.687464 0.162377 -1 -5 1 
8350 6 0.324834 0.714803 0.134857 -6 2 -1 
7342 5 0.440864 0.771834 0.144078 0 -1 -1 
7603 6 0.625104 0.746846 0.159202 1 -5 -1 
6282 5 0.602842 0.764698 0.166159 2 5 2 
5057 5 0.324806 0.76405 0.105309 0 -2 5 
7341 5 0.443819 0.789277 0.0795838 -3 4 5 
6315 6 0.189244 0.849793 0.075347 -4 5 -4 
8509 5 0.90863 0.851447 0.112066 -6 -1 6 
8741 6 0.318365 0.842699 0.12532 -4 -1 -1 
8872 6 0.895919 0.838391 0.10402 1 -2 4 
5223 6 0.14492 0.883582 0.148781 0 3 -4 
8644 6 0.373565 0.856497 0.0784442 3 0 4 
8708 6 0.695421 0.880734 0.0960079 -1 1 -1 
7622 6 0.259136 0.888098 0.11431 6 -3 -2 
8713 5 0.588218 0.905813 0.112776 -1 -5 -3 
8736 6 0.678695 0.916625 0.110097 3 -3 0 
7992 6 0.128911 0.918617 0.12857 -2 0 0 
5046 6 0.983476 0.945645 0.131125 5 -1 1 
7710 6 0.997518 0.00438049 0.135193 -2 -1 4 
8264 6 0.636315 0.941277 0.126867 4 1 -3 
8317 6 0.70819 0.963166 0.133412 0 -1 -5 
7606 6 0.864473 0.0041464 0.119846 0 1 -2 
8233 6 0.87745 0.00273006 0.100606 -2 2 1 
5943 6 0.446691 0.00815877 0.185289 -1 -4 -5 
8167 6 0.800217 0.00418719 0.150941 5 3 4 
8790 6 0.817765 0.00722595 0.13585 3 -1 -2 
6720 6 0.930992 0.974587 0.162127 5 -6 1 
7030 6 0.772674 0.0715339 0.153943 2 0 -1 
6236 6 0.750459 0.0178373 0.188118 -1 -5 2 
5173 5 0.150889 0.0252706 0.115585 -1 3 0 
5832 6 0.155875 0.113776 0.134919 2 0 -6 
5684 6 0.755805 0.0996343 0.135582 1 -4 5 
7846 6 0.767488 0.0938441 0.137271 -1 4 -1 
8288 5 0.883486 0.130877 0.151008 2 4 -2 
8115 5 0.948644 0.107994 0.187457 -2 4 -1 
6895 6 0.491826 0.125239 0.142462 1 1 -1 
8527 6 0.0483086 0.137219 0.147852 -3 -2 0 
6471 6 0.50948 0.117845 0.155896 -2 1 2 
7165 6 0.651389 0.147638 0.132499 0 1 0 
7811 5 0.794124 0.180578 0.137082 -3 0 4 
5172 6 0.226474 0.180467 0.141344 6 -4 -4 
7581 6 0.373989 0.161095 0.147197 -2 -3 0 
6912 5 0.145639 0.181908 0.124868 2 3 -2 
5095 6 0.674683 0.175525 0.178718 0 1 1 
8838 6 0.775937 0.186849 0.16758 2 0 -6 
8735 5 0.319799 0.2086 0.162946 1 -4 0 
5033 6 0.122554 0.239468 0.122196 -2 0 5 
7827 6 0.172301 0.22644 0.149753 2 -1 -2 
7490 6 0.367965 0.243003 0.159802 -2 -2 3 
7550 6 0.426946 0.203657 0.171688 3 2 -1 
5158 5 0.38979 0.293795 0.124415 2 3 1 
8013 6 0.677167 0.268059 0.196588 -2 -3 1 
8655 5 0.204151 0.246509 0.145723 3 -2 -1 
8577 6 0.0922167 0.24751 0.120698 1 -3 7 
6108 6 0.684196 0.268463 0.150564 0 -1 4 
7435 6 0.201497 0.290729 0.182752 -2 2 5 
7000 5 0.242604 0.303891 0.153349 -1 4 3 
5393 6 0.300153 0.299663 0.150449 -1 4 -4 
6809 5 0.176514 0.334978 0.163909 2 -3 1 
7077 6 0.109725 0.347415 0.0854831 -3 3 3 
6007 6 0.262321 0.330536 0.156155 -1 1 2 
7695 5 0.757871 0.31987 0.154366 -4 9 0 
7487 6 0.786188 0.345576 0.143391 1 -2 4 
8771 5 0.416984 0.381444 0.16046 -2 -2 -4 
7792 6 0.187576 0.394067 0.137223 4 4 5 
5291 5 0.699984 0.361422 0.146401 4 3 -4 
7412 6 0.844349 0.336877 0.127296 -1 3 2 
7677 6 0.320118 0.380577 0.136339 1 -3 -5 
6887 5 0.675039 0.422772 0.170588 6 2 0 
7804 5 0.838042 0.451423 0.140561 -2 1 -6 
7154 5 0.222705 0.429069 0.141242 1 5 5 
7385 6 0.815512 0.433288 0.110009 1 -1 1 
8808 5 0.786803 0.510824 0.135549 -1 -1 0 
6939 6 0.836468 0.435721 0.198313 2 -3 0 
6080 5 0.391235 0.452446 0.152998 -4 -2 1 
8775 6 0.33789 0.48683 0.183622 -2 4 -3 
5344 6 0.650529 0.474784 0.153235 2 -1 -3 
8227 6 0.932909 0.492315 0.161295 0 0 2 
8062 6 0.934572 0.448965 0.164309 3 3 1 
6290 6 0.683151 0.477582 0.153107 0 -5 2 
7055 5 0.903582 0.48053 0.138891 -2 0 -1 
5786 5 0.953841 0.492158 0.150304 2 -5 2 
7991 6 0.806715 0.5339 0.133965 -5 1 2 
5762 5 0.303303 0.529882 0.142224 3 4 0 
7157 6 0.0999711 0.590316 0.143299 2 -3 -1 
7987 6 0.234656 0.550713 0.169814 -1 -2 -2 
8262 5 0.612304 0.558992 0.169502 2 0 4 
7002 5 0.341303 0.569448 0.125625 -1 0 6 
6852 5 0.20141 0.606312 0.131919 -1 -1 1 
6073 6 0.952681 0.604353 0.18395 -2 3 -2 
5526 6 0.982878 0.61597 0.140907 1 -3 1 
6263 6 0.845266 0.618768 0.159821 -1 -1 3 
7076 6 0.0797732 0.699609 0.099281 3 -2 1 
8574 5 0.327843 0.715052 0.147224 -4 0 0 
7406 5 0.72017 0.703153 0.140447 2 -4 2 
8687 6 0.909092 0.644001 0.161892 -2 -2 -1 
7889 5 0.140858 0.717501 0.161759 -4 -1 -1 
6096 6 0.429107 0.713766 0.142466 2 -3 -1 
5693 6 0.567431 0.679033 0.132356 -1 1 2 
5910 6 0.822648 0.691181 0.112826 -4 -2 1 
5370 6 0.982012 0.697626 0.135915 6 4 4 
7497 6 0.550212 0.739448 0.12522 0 0 3 
7509 6 0.0990916 0.792512 0.1679 4 0 5 
6206 6 0.151012 0.779538 0.122021 0 2 -2 
7959 5 0.289143 0.848583 0.144795 3 -1 10 
8877 6 0.322105 0.808169 0.140761 1 8 -3 
7327 6 0.578378 0.824594 0.139121 -1 -6 3 
5115 5 0.706429 0.804357 0.110143 -3 -4 3 
6767 6 0.792203 0.831484 0.164672 1 -1 -4 
8578 5 0.875267 0.799058 0.131775 -5 4 -1 
6229 6 0.350455 0.855378 0.15331 2 0 1 
8715 6 0.170186 0.892841 0.152769 2 -3 6 
8386 6 0.331695 0.9349 0.127844 -3 -4 0 
7815 5 0.402642 0.934983 0.19474 1 -5 3 
5413 5 0.777521 0.945089 0.14626 -2 -2 0 
7556 6 0.884871 0.910217 0.156156 -1 -1 0 
6675 5 0.784797 0.962644 0.165261 0 -3 -3 
5395 5 0.948501 0.987291 0.12924 -4 0 -4 
6967 6 0.239902 0.0192859 0.174764 1 -1 -1 
6607 6 0.414819 0.0372618 0.214057 5 5 -1 
6238 6 0.66296 0.967295 0.173952 2 -2 1 
5030 5 0.802105 0.988007 0.165389 0 1 4 
7324 6 0.770238 0.0452853 0.171938 -3 4 3 
6270 5 0.854038 0.0758957 0.167726 -1 -1 -3 
8781 5 0.332272 0.0720065 0.169615 4 3 0 
7244 5 0.870068 0.0699048 0.143397 1 -3 1 
5419 6 0.302302 0.067349 0.173107 5 -6 -1 
7548 6 0.0053921 0.0767565 0.163176 0 -1 -2 
7926 6 0.168154 0.116206 0.17946 -3 1 0 
5946 6 0.305064 0.127235 0.171027 4 3 0 
5138 5 0.0280835 0.127512 0.151248 4 2 0 
5175 6 0.287686 0.152796 0.14707 -2 -1 0 
6110 6 0.209724 0.162405 0.14298 2 2 0 
6580 6 0.687032 0.209264 0.162086 1 -1 2 
8719 6 0.939546 0.201259 0.133693 4 -3 0 
6584 5 0.13342 0.205601 0.205739 1 -1 2 
5042 6 0.129661 0.228943 0.191736 0 -2 0 
7890 5 0.137307 0.260529 0.15494 4 -3 5 
6578 5 0.37794 0.265748 0.198021 -4 0 -2 
5880 6 0.617133 0.272303 0.167505 0 3 0 
6806 6 0.59632 0.260474 0.165479 5 1 1 
8314 6 0.98469 0.23999 0.140773 -2 4 1 
8489 6 0.363054 0.280701 0.152202 0 -1 -3 
8041 6 0.703022 0.234294 0.174742 1 -3 2 
8266 6 0.91836 0.298089 0.16783 -2 5 1 
6601 6 0.991218 0.322011 0.142588 1 -1 1 
6251 6 0.697189 0.333284 0.14755 -3 3 -6 
5460 5 0.921981 0.331005 0.166953 -1 -1 0 
8164 5 0.894615 0.316463 0.162371 -8 2 1 
7337 5 0.317051 0.338083 0.144909 1 1 3 
5993 5 0.583692 0.360048 0.160068 0 1 2 
5078 6 0.0200734 0.374726 0.183238 1 0 -2 
6050 5 0.54778 0.366467 0.173588 1 -3 4 
5674 6 0.352896 0.381284 0.147679 -3 1 5 
8967 6 0.0096602 0.392664 0.171432 3 1 4 
5332 5 0.309443 0.424402 0.165228 -2 -1 -1 
7205 6 0.902546 0.395591 0.185327 -2 -3 -1 
8467 5 0.824207 0.496298 0.157576 -1 5 -3 
7006 6 0.334089 0.490665 0.194606 -1 -3 2 
5850 5 0.704973 0.493653 0.163332 1 -2 2 
7988 6 0.728719 0.520977 0.202826 -4 3 7 
7870 5 0.168439 0.526909 0.161162 2 -6 0 
7256 6 0.316593 0.517579 0.146085 -4 4 2 
8545 6 0.439218 0.55277 0.181895 0 3 -2 
8358 5 0.755078 0.583133 0.170718 2 0 4 
7492 6 0.770933 0.614834 0.167981 0 1 -6 
6698 5 0.990032 0.648912 0.192128 -3 -3 -5 
6235 6 0.133027 0.635342 0.1702 5 1 5 
8805 6 0.307257 0.560111 0.176971 -5 1 3 
5721 5 0.967762 0.642198 0.177489 -1 -1 -2 
7577 5 0.0875372 0.656467 0.186179 0 0 3 
7798 6 0.244847 0.671443 0.154723 3 0 -3 
6661 6 0.265226 0.655624 0.164621 4 0 2 
5091 6 0.378889 0.659558 0.177374 0 3 -2 
5866 5 0.624092 0.660872 0.188316 -6 2 0 
8582 6 0.136851 0.649334 0.192109 1 -2 1 
8564 5 0.368919 0.677882 0.182458 2 6 1 
5453 6 0.671004 0.675156 0.16339 1 -2 0 
6170 5 0.91024 0.666671 0.131995 2 -1 3 
8396 6 0.393758 0.700991 0.167006 2 7 -1 
6434 6 0.202741 0.728094 0.189923 0 -1 2 
7997 5 0.292168 0.697364 0.178972 -4 2 -2 
5459 6 0.498688 0.724035 0.16741 2 0 -5 
7015 5 0.136581 0.737974 0.157002 2 -8 2 
8982 6 0.224056 0.74605 0.135179 0 1 -3 
8340 5 0.456719 0.681606 0.193972 -4 0 -1 
7830 5 0.654187 0.759802 0.165963 1 -4 1 
5290 5 0.915104 0.774524 0.213381 -3 2 -3 
5584 6 0.95507 0.793419 0.190086 0 -3 -2 
6522 6 0.286685 0.807211 0.15065 -2 3 3 
5399 6 0.983749 0.82396 0.161213 -4 -1 -1 
5133 6 0.599525 0.778975 0.181461 7 -3 -4 
7020 6 0.575637 0.888853 0.170355 2 -8 6 
5389 6 0.674889 0.831448 0.177164 3 -3 -2 
7001 6 0.358558 0.877756 0.201376 1 -3 1 
6534 6 0.27304 0.872694 0.166188 1 -1 -1 
5261 6 0.811269 0.915576 0.185716 -2 1 3 
6995 5 0.972923 0.986869 0.14053 -3 2 2 
6617 5 0.183023 0.0204891 0.18411 -1 3 -6 
7995 6 0.197623 0.0343527 0.167256 2 3 3 
7257 6 0.296355 0.00738703 0.155438 1 -4 1 
5573 5 0.623737 0.0159983 0.210439 3 5 2 
8474 6 0.760083 0.0171331 0.245182 -2 -1 3 
7612 6 0.190527 0.0373381 0.201062 1 3 -3 
7232 6 0.378994 0.0329637 0.164535 -1 3 -1 
7273 6 0.88294 0.0422518 0.205363 7 0 1 
7377 5 0.438782 0.096377 0.18001 -1 1 -3 
5429 5 0.877616 0.0707651 0.232088 2 -1 1 
7420 5 0.129234 0.0841496 0.214356 3 -1 2 
7795 6 0.158596 0.11844 0.207824 1 -1 0 
7132 6 0.188485 0.120796 0.216688 6 1 0 
6796 5 0.748829 0.127505 0.203237 3 7 -2 