ITEM: TIMESTEP
20000000
ITEM: NUMBER OF ATOMS
9000
ITEM: BOX BOUNDS pp pp pp
-75 75
-75 75
-75 75
ITEM: ATOMS id type xs ys zs ix iy iz 
5058 5 0.160387 0.0569231 0.012018 7 5 7 
8480 6 0.15259 0.0512589 0.0376565 3 7 -1 
5341 5 0.180032 0.0416479 0.0306363 1 5 -1 
8344 5 0.739086 0.0616985 0.963254 -1 0 0 
5072 6 0.482775 0.0312729 0.0301481 0 -7 3 
5728 6 0.817621 0.0754501 0.0039887 2 -3 2 
6952 5 0.693806 0.14319 0.00266718 -4 0 3 
8435 5 0.871553 0.115466 0.990208 0 5 -1 
6962 6 0.922037 0.0809851 0.999996 5 -2 1 
5705 6 0.186877 0.116816 0.0247524 3 1 -4 
7586 5 0.290522 0.139219 0.0171723 2 -3 1 
7788 5 0.590606 0.150173 0.012646 2 3 -2 
5832 6 0.457702 0.19648 0.998096 -2 3 2 
7244 6 0.862637 0.169292 0.0131571 3 1 -1 
6594 6 0.604429 0.218173 0.968401 -2 0 1 
6972 6 0.70746 0.19396 0.0362397 2 4 -3 
5634 6 0.869133 0.197157 0.0105338 4 -2 0 
5742 6 0.126937 0.238781 0.0117296 -1 -2 0 
6687 5 0.16863 0.226955 0.0179117 1 1 2 
6308 5 0.587356 0.241662 0.984685 -3 0 -4 
7236 5 0.00347207 0.225491 0.979086 6 0 -5 
6478 5 0.373951 0.276399 0.0332274 -1 6 1 
7841 5 0.336196 0.251253 0.987425 -9 1 -2 
5845 5 0.174084 0.274872 0.990644 1 -3 2 
6385 6 0.179128 0.323445 0.013248 -1 -1 0 
7149 5 0.889745 0.329759 0.0162766 -1 4 1 
7393 5 0.344133 0.343979 0.0141524 0 2 -1 
8343 6 0.501898 0.388376 0.0137537 2 0 0 
8863 5 0.876203 0.37755 0.998013 -3 -2 4 
7334 6 0.143499 0.416212 0.0175087 1 3 1 
6513 6 0.132389 0.414791 0.01943 2 -2 6 
6924 6 0.113274 0.49827 0.000594134 1 -3 -4 
6230 5 0.378704 0.498106 -0.000812108 6 -2 0 
5353 6 0.536213 0.535958 0.0177581 -1 -2 -1 
5712 6 0.859644 0.520586 0.996235 1 3 -5 
6048 6 0.0202568 0.558387 0.0131971 -5 1 5 
7532 5 0.11181 0.53992 0.0106343 -3 2 3 
7833 5 0.469684 0.535652 0.977718 2 6 0 
5703 6 0.500202 0.583809 0.00552198 -1 -4 3 
7445 5 0.225879 0.549325 0.0193662 4 5 4 
5986 5 0.867239 0.594876 0.00563728 5 0 -2 
6000 5 0.600789 0.632545 0.995079 1 -3 -1 
6023 5 0.0236705 0.636308 0.0126373 2 3 -6 
5171 6 0.151801 0.656183 0.0595499 3 -4 -3 
8860 5 0.260658 0.632334 0.0118652 1 2 1 
6525 6 0.96752 0.62184 0.995987 -2 0 1 
8842 6 0.0608656 0.656722 0.029623 2 3 1 
7577 6 0.21157 0.683543 0.988269 1 2 0 
7948 6 0.397716 0.64745 0.0476687 1 -1 -5 
5008 5 0.498232 0.680494 0.00712887 -1 0 2 
8998 6 0.87942 0.686914 -0.00298406 -3 0 -5 
8631 5 0.33897 0.718709 0.0388124 2 0 0 
5095 6 0.266075 0.710942 0.0292223 -2 2 -4 
8320 5 0.4264 0.742935 0.0144648 3 -3 1 
7152 5 0.805375 0.702486 0.983222 7 -7 -4 
6737 6 0.657942 0.711395 0.0284132 5 -4 2 
7962 6 0.236724 0.765447 0.0393754 -4 -5 2 
8505 5 0.374718 0.794848 0.987093 -2 2 0 
7729 6 0.323779 0.864652 0.0189674 3 -2 2 
6363 6 0.14806 0.892471 0.0205799 -2 -1 -2 
8253 6 0.258379 0.908323 0.984667 3 -4 -4 
6971 6 0.386225 0.899589 0.00920268 6 -1 0 
7438 5 0.485233 0.869603 0.0174574 4 -3 2 
5724 6 0.581327 0.89854 0.0317866 -6 0 4 
5415 6 0.33336 0.929202 0.00903141 -3 2 3 
6156 5 0.976481 0.970491 0.0057525 1 3 1 
5483 5 0.950139 0.962293 0.996009 -4 -3 -1 
6332 6 0.405951 0.968773 0.00724544 -3 6 -1 
8683 5 0.372187 0.952473 0.0237405 1 -7 1 
7052 5 0.373364 0.959599 0.0243166 0 -1 2 
6911 5 0.764288 0.0197859 0.0587313 -5 5 -1 
8739 5 0.747642 0.990075 0.0250929 2 0 2 
7789 5 0.887722 0.0122147 0.986509 -4 0 -3 
5817 5 0.271373 0.011752 0.0431025 -4 1 4 
7541 6 0.250608 0.0497754 0.0816038 -1 1 0 
6697 5 0.821564 0.0320983 0.988394 -2 -1 2 
5926 5 0.0870569 0.0451355 0.0256963 -2 0 4 
5189 5 0.690885 0.048964 1.0002 -2 0 6 
5273 6 0.537307 0.119955 -0.00120876 0 0 -1 
5324 5 0.68942 0.0619436 0.0299871 -3 -6 4 
6740 6 0.921022 0.0353153 0.026191 2 1 -1 
7646 5 0.0591473 0.134902 0.00622083 4 0 -2 
8078 6 0.622249 0.0765762 0.0413848 5 -2 -2 
7485 5 0.0926971 0.123328 0.0642718 3 -1 -1 
8277 6 0.704262 0.114629 0.0333544 4 -2 1 
7285 6 0.105898 0.185285 0.0142105 -4 0 0 
6475 5 0.855599 0.156718 0.0563877 2 2 2 
5540 6 0.836225 0.183259 0.0573362 0 4 -1 
8279 6 0.850764 0.182198 0.042265 -5 -1 2 
6947 6 0.687706 0.224546 0.0830193 0 0 3 
5044 5 0.0740401 0.216356 0.0155246 1 3 3 
8769 6 0.855414 0.241413 0.0655816 6 -3 -2 
8758 5 0.846585 0.231667 0.0300152 -5 1 5 
5982 6 0.283378 0.26759 0.0587305 2 1 -2 
8555 6 0.38089 0.249096 0.0480954 3 4 0 
6057 6 0.160247 0.292261 0.0490284 -1 4 -2 
8736 5 0.353027 0.265811 0.0330997 3 -1 1 
6733 5 0.216155 0.315496 0.037963 2 1 5 
8975 6 0.759895 0.302492 0.0825633 -2 -3 1 
6418 6 0.0108622 0.308108 0.999002 3 -2 2 
5777 5 0.244563 0.339286 0.0176966 1 -2 0 
5514 5 0.456115 0.334696 0.0248879 -2 1 -2 
6397 5 0.986909 0.355018 0.0541271 0 -2 -1 
6167 6 0.463068 0.376368 0.0349327 1 -4 1 
7358 5 0.424578 0.410786 0.0268756 4 2 -2 
6523 6 0.802951 0.383237 0.0269763 -5 1 0 
5459 5 0.207203 0.405691 0.0679813 -3 2 1 
8806 6 0.230412 0.42831 0.0241914 -2 1 5 
5100 5 0.596982 0.42254 0.0442812 -2 3 6 
5748 5 0.721884 0.434582 0.0318612 3 2 -2 
8782 5 0.0266988 0.452078 0.0243244 4 -1 -1 
6019 6 0.853079 0.43303 0.047056 -2 -2 0 
8103 6 0.112005 0.512776 0.0484943 4 -2 2 
7597 5 0.765846 0.551298 0.0123158 1 1 -4 
7058 6 0.278401 0.54831 0.0523047 0 5 -3 
6637 6 0.799248 0.53255 0.0389464 1 0 2 
8182 6 0.402424 0.572823 0.0171518 3 -2 2 
6548 5 0.580691 0.559632 0.0361023 -2 4 0 
7295 6 0.858557 0.597053 0.0452379 0 1 4 
8174 5 0.137912 0.585777 0.027825 -1 -1 -2 
7249 6 0.159158 0.597002 0.0302567 -1 -4 1 
6016 5 0.43789 0.584499 0.0370097 6 -6 2 
8345 5 0.681262 0.62304 0.0203066 0 -1 6 
8510 5 0.08969 0.577901 0.0084366 2 -2 3 
8372 6 0.218055 0.645734 0.0170415 3 -1 4 
5383 5 0.583374 0.680692 0.0128876 2 -2 -1 
6448 6 0.706979 0.695986 0.0585666 3 1 -5 
8593 6 0.0160392 0.729658 0.0262641 0 1 3 
7588 6 0.275662 0.688329 0.0496387 -5 0 -2 
6212 5 0.575307 0.729986 0.017779 -3 0 1 
6410 6 0.70013 0.729815 0.0398412 -3 -1 1 
8605 6 0.292938 0.714281 0.0535571 1 1 -3 
8196 6 0.519134 0.67458 0.0243338 2 -5 -1 
8079 6 0.795562 0.696071 0.028199 -1 1 4 
7887 6 0.955372 0.71317 0.0396638 -2 1 -4 
8124 5 0.989372 0.743946 0.0465673 4 3 2 
7331 6 0.621671 0.736628 0.0556444 2 1 0 
5852 6 0.677489 0.719827 0.0578875 -3 -5 2 
5017 5 0.249107 0.780262 0.0713098 5 1 4 
7306 6 0.299037 0.765025 0.000824471 0 3 2 
6441 5 0.739562 0.821002 0.992108 -2 -1 0 
5847 6 0.121582 0.816175 0.0370489 -2 2 -4 
5005 6 0.658173 0.817286 0.0439162 1 -3 -5 
5075 6 0.966645 0.799635 0.0231967 3 1 -2 
6660 5 0.14835 0.855851 0.0155917 3 1 -1 
8672 6 0.308443 0.859801 0.0523629 -5 -4 2 
6058 6 0.477032 0.864375 0.084324 -1 -2 6 
5647 6 0.266206 0.913945 0.038261 -1 2 7 
8762 6 0.332783 0.878509 0.988607 -5 2 -2 
7526 6 -0.000899977 0.867125 0.0159459 2 0 0 
7605 5 0.448729 0.887526 0.046546 1 -3 1 
5884 6 0.56285 0.90443 0.0247106 2 -2 1 
8258 6 0.494541 0.890752 0.0207831 1 -3 -1 
7628 5 0.802407 0.928126 0.0493628 -1 0 -2 
5988 5 0.962265 0.917116 0.0278818 0 0 -3 
6073 6 0.770704 0.942826 0.990963 0 1 3 
5641 6 0.277834 0.967057 0.0724188 0 5 -2 
8252 5 0.218568 0.96576 0.0156844 3 2 1 
7754 6 0.268059 0.995671 0.0568273 1 -3 2 
8849 6 0.538436 0.00908716 0.069555 -1 -1 -1 
8648 6 0.882533 0.998397 0.05963 1 -1 1 
6839 5 0.411742 0.082229 0.0369735 1 3 -2 
7229 6 0.679849 0.0802861 0.0953347 -1 4 -1 
6351 5 0.469333 0.0809634 0.0577708 -4 -3 -1 
5956 6 0.838986 0.12542 0.0231551 0 -2 1 
6045 6 0.0110285 0.201502 0.0463635 2 2 -1 
8031 5 0.24214 0.188756 0.0919342 3 2 1 
7486 6 0.316215 0.195191 0.087512 0 -3 4 
5308 6 0.544316 0.0994403 0.0682441 -1 2 2 
8223 6 0.679459 0.163922 0.0918408 -5 0 2 
6139 5 0.891326 0.175337 0.0847126 1 2 6 
6689 6 0.598321 0.243904 0.0549764 -1 4 -2 
6923 6 0.884329 0.217895 0.0673679 0 -2 3 
5779 6 0.060801 0.298808 0.0254992 3 1 -3 
7600 5 0.597936 0.270382 0.0315536 1 1 -2 
8080 6 0.189813 0.236971 0.0594491 4 -6 2 
6070 6 0.127428 0.382027 0.0478504 3 -2 1 
5319 6 0.244682 0.308736 0.0825152 -7 3 2 
5255 5 0.0259385 0.331711 0.0611814 -4 -6 4 
5995 6 0.503049 0.34075 0.0564932 0 6 -1 
5757 5 0.0879408 0.377947 0.0494846 3 -3 2 
5649 5 0.134334 0.395482 1.00105 3 3 -2 
6698 6 0.17241 0.391016 0.0664675 -6 -1 -3 
6606 6 0.456193 0.395612 0.0445194 -3 0 7 
6049 5 0.561687 0.369608 0.0246034 -4 -4 -3 
8175 5 0.870773 0.409046 0.0665799 0 1 6 
7503 5 0.146788 0.430191 0.0670938 0 4 -1 
7057 6 0.581741 0.406081 0.00385289 5 -4 -1 
6102 6 0.928554 0.409305 0.0563293 -3 -2 -1 
5435 6 0.507136 0.470991 0.0183642 -3 4 1 
7213 6 0.572293 0.457837 0.0800198 2 2 0 
6505 5 0.262596 0.460515 0.081506 -5 -1 1 
7348 6 0.26845 0.50356 0.0487264 -4 4 4 
5555 5 0.28507 0.530264 0.0432399 5 6 4 
5485 6 0.618704 0.525881 0.0723453 -3 1 2 
6869 6 0.749413 0.488712 0.0693024 5 6 -1 
5957 5 0.878947 0.4715 0.0248038 -1 4 0 
5062 5 0.601627 0.54928 0.0739782 -3 -1 -2 
5855 6 0.136661 0.626177 0.049945 2 -6 0 
6390 5 0.365642 0.595378 0.0510335 -2 1 1 
7924 5 0.659431 0.577184 0.0901252 9 2 -2 
6447 5 0.410877 0.603189 0.0439499 1 2 -1 
8766 6 0.594435 0.630382 0.0484031 2 2 -4 
6013 5 0.0869491 0.61062 0.0382192 3 -6 0 
6483 6 0.212643 0.661799 0.0689563 1 -4 6 
6597 6 0.017128 0.676754 0.0614711 2 -7 -4 
5913 5 0.0454338 0.704599 0.0466158 -3 -1 4 
8499 5 0.523822 0.730797 0.0564057 7 -2 -1 
7580 6 0.928831 0.676019 0.0425444 5 1 4 
7857 6 0.0214307 0.705152 0.0709794 -3 -8 3 
6481 6 0.742704 0.672741 0.0785048 2 1 3 
8048 6 0.981882 0.698425 0.0558259 -5 3 3 
8781 6 0.131429 0.69448 0.0252685 0 -3 0 
8906 6 0.788715 0.7175 0.0849 -1 -2 -2 
5689 5 0.831573 0.691308 0.031661 2 -2 -5 
8575 5 0.144385 0.790484 0.0474021 2 -6 5 
6489 6 0.429654 0.734572 0.0895271 -7 5 1 
5958 5 0.876663 0.791492 0.0439511 1 4 0 
7164 6 0.992325 0.786003 0.0511019 3 -4 3 
5833 5 0.0196625 0.822006 0.0776547 0 -2 2 
6279 6 0.982539 0.840517 0.0608006 -1 2 -2 
6942 6 0.549352 0.886041 0.0409069 4 2 0 
6382 6 0.286999 0.91887 0.0661437 -3 0 0 
6640 6 0.793414 0.916606 0.0856856 1 -8 7 
5065 5 0.190843 0.92795 0.0397246 -2 -4 -6 
7537 6 0.447246 0.919733 0.129461 4 -2 -2 
7991 6 0.588038 0.919102 0.0691003 3 2 2 
6574 5 0.244825 0.950898 0.0536083 -1 4 9 
8082 6 0.319296 0.932364 0.101392 2 -1 8 
5786 6 0.382231 0.958964 0.0493425 0 1 0 
6311 5 0.68481 0.0315219 0.0447839 -4 0 4 
8366 5 0.197518 0.0513591 0.125033 1 -4 3 
6137 6 0.447404 0.00276925 0.0435399 -1 4 5 
7027 5 0.740554 0.0795202 0.0724837 0 1 -4 
8460 6 0.108829 0.07281 0.0796549 0 -5 -3 
6433 6 0.60333 0.0750392 0.0936306 -3 -2 -4 
8408 5 0.0143503 0.0630199 0.10896 0 0 0 
5891 6 0.397495 0.0694993 0.0662551 3 3 0 
6218 5 0.446732 0.0901997 0.103608 2 3 2 
8162 6 0.366289 0.130118 0.0429648 3 -1 1 
7178 6 0.317343 0.140366 0.085506 -3 1 -4 
5338 5 0.421534 0.108503 0.0723613 -1 -4 -2 
7864 5 0.585355 0.121886 0.0944019 -1 1 -4 
7210 6 0.64691 0.141472 0.118093 0 -2 0 
5890 5 0.16639 0.193971 0.0486742 0 3 0 
8063 5 0.504425 0.161195 0.0925141 -1 1 3 
8872 5 0.960157 0.115754 0.12302 -3 2 -4 
8823 5 0.515119 0.190096 0.0717868 1 -1 1 
5077 6 0.818713 0.149545 0.0592078 0 1 -1 
8369 6 0.23006 0.256542 0.0696452 1 -1 -3 
7539 6 0.134799 0.257332 0.0759944 3 1 1 
8390 5 0.379488 0.300254 0.0899667 -1 -1 1 
5493 5 0.514896 0.277257 0.125183 2 2 4 
7656 6 0.950936 0.343088 0.0627495 2 1 -2 
7713 6 0.065559 0.316644 0.0758545 -1 -1 -2 
6120 5 0.327405 0.323574 0.104226 0 5 -2 
5758 6 0.505006 0.311014 0.0817936 2 3 0 
7263 5 0.110453 0.364366 0.0979248 7 0 5 
5788 6 0.187088 0.318072 0.0936942 1 0 -3 
7880 6 0.802307 0.329808 0.070293 0 -2 -5 
7319 6 0.161466 0.41868 0.0468541 -1 -1 1 
7700 6 0.602251 0.409139 0.0503742 -1 4 0 
7591 5 0.79449 0.390544 0.100842 3 -2 -1 
6290 5 0.875724 0.403286 0.0693329 -1 -4 -2 
5439 6 0.31655 0.414238 0.0457242 0 -4 1 
5596 6 0.536288 0.409158 0.104437 -1 -3 -1 
5022 6 0.781535 0.455812 0.0722644 -2 0 0 
6038 5 0.0244377 0.508212 0.0820854 1 1 -4 
5024 6 0.723978 0.500789 0.0892753 -2 -5 -3 
5129 6 0.534927 0.53469 0.105843 1 -7 -3 
8214 5 0.749934 0.50316 0.0768717 3 -3 -2 
6154 6 0.968105 0.516255 0.0670023 -1 0 2 
5743 5 0.280891 0.554864 0.0630229 3 -3 -3 
6260 5 0.90294 0.593491 0.058562 0 1 1 
5643 5 0.285357 0.536222 0.0609597 -5 -5 2 
8038 6 0.362042 0.633939 0.0619001 -1 -4 0 
6114 5 0.72306 0.611752 0.0452109 -4 -8 -2 
5478 5 0.722144 0.626493 0.0895624 2 -11 3 
7219 6 0.113022 0.68958 0.0884414 0 -3 2 
8193 5 0.883656 0.658882 0.0515631 -3 1 -3 
6430 5 0.2448 0.690251 0.098788 -1 -3 0 
8498 5 0.955319 0.731648 0.119086 -3 -1 -3 
5693 6 0.968295 0.680562 0.0985288 2 -4 -2 
7050 6 0.421418 0.741347 0.086608 1 -1 1 
8447 5 0.577525 0.702883 0.0669761 3 -3 -2 
5839 5 0.371487 0.747151 0.085791 -1 3 1 
8416 5 0.706025 0.706763 0.0585 2 -4 -1 
8825 6 0.0267297 0.800909 0.0666136 2 -1 5 
6202 5 0.431368 0.860328 0.0701394 0 2 3 
8851 6 0.583283 0.828004 0.0934149 0 -2 -1 
6165 6 0.628557 0.81072 0.0604436 2 0 6 
6715 6 0.84828 0.809373 0.0674426 -3 0 2 
6790 6 0.921699 0.826881 0.0933903 5 -4 4 
8093 6 0.930821 0.849543 0.0526637 1 -4 2 
5737 5 0.0162266 0.826797 0.0583512 0 4 0 
7753 5 0.477975 0.813126 0.132414 0 -4 -2 
6801 5 0.636955 0.853695 0.0942155 -7 0 -1 
7116 6 0.663346 0.836779 0.058675 2 -2 -2 
7607 5 0.368563 0.845181 0.107757 -1 1 2 
5055 6 0.353947 0.882409 0.0549756 0 -1 2 
5306 6 0.661641 0.866137 0.0914333 4 4 -1 
7568 6 0.827893 0.888633 0.0803341 2 1 0 
7073 5 0.505109 0.953281 0.062847 0 0 -1 
7043 5 0.754919 0.926465 0.0981298 1 2 4 
5318 5 0.0180514 0.965543 0.0633907 -1 -5 7 
8484 6 0.236995 0.965915 0.0808709 -3 -1 -2 
5352 5 0.825036 0.989747 0.0633484 -3 -1 5 
5558 5 0.989544 0.997353 0.0488449 -1 -3 4 
6316 6 0.3349 0.00799993 0.0904445 2 1 4 
6346 5 0.102547 0.0378515 0.115368 6 3 4 
7279 6 0.15958 0.981955 0.0785819 1 -1 -5 
6602 5 0.377493 0.0310205 0.0955045 1 3 1 
7165 5 0.485291 0.974761 0.0946239 0 -2 -4 
6875 6 0.342844 0.0284636 0.0901468 2 1 -1 
5818 6 0.470309 0.0684963 0.0905854 2 7 -3 
7741 5 0.581573 0.988784 0.115657 -1 2 -4 
8318 6 0.618556 0.0699109 0.0663112 0 7 -1 
5442 6 0.821128 0.0873899 0.118467 -3 2 0 
8273 5 0.927982 0.0572719 0.106619 -1 3 -1 
7132 5 0.248017 0.171526 0.113169 1 -5 3 
5644 6 0.8945 0.136865 0.0959328 4 1 1 
7066 6 0.553765 0.189983 0.0639987 -3 2 -1 
5774 5 0.169532 0.194635 0.071066 -2 -1 -5 
6934 6 0.43078 0.16863 0.0576237 3 3 -2 
7324 5 0.673386 0.187142 0.0854746 0 1 1 
7083 6 0.0233429 0.24325 0.0855443 0 4 0 
6785 6 0.252556 0.199906 0.0794308 1 1 5 
8468 5 0.846662 0.217004 0.105465 0 4 -1 
7675 6 0.84478 0.215202 0.1266 -4 6 4 
5322 5 0.165256 0.247672 0.0694618 -2 -3 1 
8954 6 0.0289277 0.307733 0.10762 4 6 -4 
8953 6 0.820878 0.293097 0.0916452 -4 -1 4 
5938 6 0.63661 0.299019 0.0675879 -1 -4 0 
5288 6 0.754873 0.335768 0.090018 2 -1 2 
7235 6 0.78377 0.304346 0.130938 2 1 6 
6384 6 0.822577 0.289409 0.126888 -2 -2 -1 
5367 5 0.475301 0.320395 0.144805 0 -1 -2 
8595 5 0.81156 0.380089 0.0639328 4 0 -1 
8178 5 0.784667 0.313866 0.0975605 -1 0 2 
6147 6 0.789888 0.328037 0.119487 -2 2 0 
8284 6 0.0572268 0.377269 0.124653 0 6 1 
5941 5 0.838448 0.364444 0.112588 -4 1 -4 
5994 5 0.897737 0.378172 0.0831917 0 -2 2 
6643 5 0.373334 0.401281 0.0807632 2 -1 -3 
6323 6 0.492871 0.407569 0.0676018 -6 -1 -4 
8250 6 0.908603 0.427101 0.101963 -2 0 -2 
8107 5 0.210992 0.386792 0.11141 0 0 1 
8181 5 0.861452 0.400455 0.102958 4 -3 -2 
5470 6 0.903372 0.425421 0.0829393 2 -2 2 
7483 6 0.6106 0.499191 0.110625 3 0 -2 
5529 5 0.21593 0.470163 0.0859019 5 3 4 
5807 6 0.549684 0.49922 0.115325 -1 2 -4 
6146 5 0.437344 0.51566 0.103578 2 -1 0 
7640 5 0.730897 0.520008 0.0697809 -2 -4 5 
5583 6 0.794229 0.562928 0.0782861 0 0 5 
8382 6 0.437091 0.563232 0.0962247 7 -4 -2 
7705 6 0.300408 0.529935 0.1111 -2 -3 1 
5059 5 0.428468 0.569323 0.112222 0 5 -2 
8649 5 0.859492 0.606912 0.104485 0 -3 2 
5836 6 0.273549 0.589618 0.0912697 1 0 -4 
6578 5 0.691153 0.630605 0.13067 -2 5 3 
6136 5 0.32114 0.627808 0.104629 0 -4 -1 
7287 6 0.387459 0.623002 0.116234 5 3 -4 
8524 5 0.653058 0.655323 0.0889827 4 -1 -1 
8094 6 0.927184 0.709219 0.101386 -1 0 -2 
6261 5 0.398449 0.715111 0.134231 1 -3 0 
8249 6 0.34567 0.792341 0.128666 1 -1 -2 
8658 6 0.456208 0.778531 0.135819 4 2 -1 
7796 5 0.718091 0.779422 0.136995 1 -2 4 
7040 5 0.881958 0.802223 0.111104 -1 -2 0 
8700 5 0.163459 0.816001 0.0874892 3 -2 0 
6027 5 0.777451 0.795252 0.0910924 1 1 -2 
6605 6 0.210221 0.787726 0.115515 4 1 -1 
7447 6 0.508072 0.830314 0.125908 3 1 3 
8089 5 0.361156 0.859224 0.106442 -1 -4 -9 
8787 6 0.56129 0.835931 0.126381 -5 4 0 
6656 5 0.639582 0.803216 0.086394 -3 3 4 
6008 6 0.979401 0.890938 0.103312 -2 -4 -3 
6069 6 0.00713283 0.87805 0.0908602 4 1 3 
5226 6 0.389397 0.868479 0.108783 -5 4 5 
6861 5 0.936977 0.882261 0.0844462 -1 -3 2 
8339 6 0.0756227 0.90599 0.080498 3 0 0 
8016 5 0.130352 0.965174 0.0822168 -3 -3 0 
6388 5 0.0999667 0.968932 0.102741 4 3 3 
6371 5 0.440574 0.917145 0.125597 3 -1 -2 
5400 5 0.58768 0.9535 0.121542 -4 0 -3 
8523 5 0.726435 0.931425 0.0865133 -2 -2 1 
6364 6 0.377557 0.988927 0.084512 -3 1 3 
6017 6 0.58544 0.0247599 0.0915369 -3 -3 7 
5170 6 0.947341 0.0124455 0.0756785 1 -2 1 
7482 6 0.454247 0.00135558 0.117732 -5 2 -2 
7669 6 0.877842 0.0334041 0.134297 -5 -1 -2 
6176 6 0.0965026 0.0637582 0.162622 -2 2 4 
8128 6 0.307627 0.108998 0.108933 0 0 7 
7848 5 0.368933 0.0458604 0.0962114 -4 4 3 
7831 5 0.707046 0.0755001 0.153123 2 1 1 
7625 6 0.889835 0.0527384 0.104896 4 -1 1 
6795 6 0.282898 0.0904596 0.204935 3 -4 -1 
7829 5 0.501095 0.134083 0.103062 -2 4 0 
5916 6 0.564155 0.0742839 0.146603 0 1 2 
8743 6 0.0509345 0.134913 0.101586 2 4 -1 
8568 6 0.403162 0.081667 0.155012 5 -2 -4 
5983 5 0.418958 0.132436 0.109386 3 2 2 
6093 5 0.880351 0.096195 0.131424 -2 2 5 
5160 6 0.963423 0.165927 0.12578 1 1 4 
7162 6 0.30553 0.170187 0.130538 -2 -1 -1 
6661 5 0.294791 0.142984 0.099561 1 -6 -2 
7781 6 0.857723 0.149267 0.130228 -2 -4 0 
8392 5 0.362996 0.171863 0.116335 5 -4 -3 
5921 5 0.795544 0.203596 0.135814 5 0 2 
5416 5 0.417893 0.261599 0.135861 2 2 7 
7389 5 0.736254 0.241961 0.114301 1 2 -2 
6133 5 0.741285 0.23398 0.114783 2 2 -3 
6899 5 0.893001 0.232936 0.149257 -2 8 1 
8185 5 0.122592 0.281143 0.176898 -2 2 0 
6921 6 0.421034 0.267974 0.115235 1 3 1 
7617 6 0.240922 0.330379 0.117828 1 0 2 
8538 6 0.359291 0.335762 0.126188 -2 0 1 
7224 6 0.718475 0.328454 0.108841 -3 2 0 
7264 5 0.221157 0.350019 0.0932514 4 -1 -1 
6862 6 0.407144 0.327674 0.117122 0 3 0 
7803 6 0.744557 0.381478 0.142275 0 0 0 
6652 6 0.92503 0.385845 0.118622 1 3 -3 
5783 6 0.731759 0.420099 0.137215 7 -2 0 
8724 6 0.901712 0.387275 0.150672 5 -5 -1 
5656 5 0.126707 0.420859 0.120295 3 -1 4 
5560 6 0.213899 0.405032 0.127122 5 0 1 
6335 5 0.734148 0.429215 0.111396 1 -1 -4 
7698 6 0.778755 0.482355 0.114926 -3 0 -1 
8351 6 0.858183 0.421505 0.16641 1 0 2 
8799 5 0.080958 0.484326 0.122925 -3 3 1 
5799 6 0.64478 0.476185 0.100239 3 3 -2 
8847 6 0.274872 0.466086 0.144011 0 -2 -3 
8713 6 0.541468 0.499337 0.139276 -2 -1 2 
7783 5 0.850649 0.487041 0.0983625 2 3 -3 
6564 5 0.173554 0.471732 0.0867915 1 -7 -2 
6333 6 0.048811 0.52925 0.141117 2 -1 1 
5854 5 0.0584771 0.545398 0.132134 -1 -5 1 
7130 6 0.767891 0.56428 0.128046 0 -1 -5 
8309 6 0.157101 0.581507 0.108528 -1 1 -1 
7972 5 0.726042 0.586931 0.146607 -6 6 1 
6876 5 0.414825 0.616959 0.0982376 -3 0 0 
5589 6 0.251665 0.601069 0.13681 -4 -2 1 
8242 6 0.435959 0.623419 0.114324 2 1 -1 
5762 6 0.740549 0.610893 0.091321 -2 0 0 
7653 6 0.913356 0.620532 0.124024 3 1 5 
8142 6 0.267573 0.696308 0.0914181 3 5 0 
5283 5 0.697895 0.713585 0.153361 1 -1 3 
7454 6 0.0465485 0.738658 0.128729 1 1 0 
8646 6 0.105694 0.761869 0.11013 2 1 -3 
6286 6 0.177587 0.752044 0.15946 1 6 1 
8288 6 0.438008 0.76185 0.119159 0 0 6 
5155 6 0.85073 0.713759 0.121975 3 3 1 
8846 6 0.527463 0.776555 0.123839 -5 -1 0 
8490 6 0.616742 0.759257 0.083094 -2 -1 5 
8190 6 0.812496 0.767623 0.109631 2 0 0 
6682 5 0.000564804 0.804727 0.16384 3 4 0 
7854 6 0.11284 0.784541 0.175399 0 -2 4 
7129 6 0.321417 0.789057 0.13015 5 0 2 
7372 6 0.413309 0.768768 0.101402 2 0 0 
8932 5 0.414102 0.800041 0.130899 2 -2 5 
5857 6 0.611164 0.834807 0.139656 -1 -4 -3 
7197 5 0.546219 0.854188 0.119043 0 -1 1 
5506 6 0.667371 0.887204 0.130952 3 -6 3 
8471 5 0.741864 0.89267 0.0935776 -2 1 6 
6823 5 0.398645 0.870687 0.123294 -2 1 -1 
7573 5 0.576212 0.874314 0.154712 0 0 0 
6007 6 0.789741 0.84394 0.137982 2 0 0 
7787 5 0.125606 0.932762 0.101209 -5 -1 0 
6455 5 0.362581 0.89435 0.105357 0 -6 0 
7799 5 0.69156 0.870141 0.102612 -1 -2 1 
6025 5 0.12649 0.949743 0.133114 -1 -4 1 
5087 5 0.0637708 0.960185 0.117583 2 -4 -1 
7312 6 0.216276 0.951038 0.108647 -3 -5 -3 
6280 5 0.30486 0.986155 0.130285 1 2 1 
8264 5 0.525741 0.979535 0.110494 4 2 8 
8886 5 0.708398 0.973993 0.125192 2 1 4 
7608 6 0.737982 0.959599 0.0923935 0 -2 1 
8274 5 0.0228545 0.965234 0.107033 2 2 -3 
6882 5 0.598082 0.981061 0.106846 4 -2 -3 
5909 6 0.644152 -0.000883112 0.135541 -2 3 2 
6339 5 0.698488 0.00440471 0.130817 8 -1 0 
8844 5 0.0508962 0.998916 0.117021 6 4 -1 
7084 6 0.208487 0.0254272 0.171476 4 1 -3 
6784 6 0.837707 0.0194209 0.125238 1 2 -4 
6918 6 0.452506 0.0202029 0.11677 0 4 9 
7727 5 0.455156 0.0496223 0.159412 1 0 1 
8395 6 0.292128 0.0743162 0.148712 -2 1 8 
6507 6 0.354943 0.0532133 0.162804 -1 -5 0 
6293 6 0.468453 0.0468339 0.146628 4 1 8 
5802 6 0.87883 0.0354648 0.164615 2 -1 4 
5053 6 0.956676 0.0648695 0.129573 -2 5 0 
5262 6 0.552099 0.0802456 0.190101 2 5 -1 
5716 5 0.860149 0.103912 0.133096 1 1 2 
7171 5 0.358491 0.100434 0.145821 -2 1 -3 
5220 5 0.438937 0.103497 0.185686 2 3 0 
5098 5 0.467947 0.0693015 0.164075 -1 1 4 
5010 6 0.542281 0.0990923 0.180157 1 -3 0 
5247 5 0.798304 0.0939329 0.181608 2 -2 -3 
6391 6 0.831459 0.144458 0.114054 4 -2 1 
6742 6 0.879932 0.0779931 0.131208 -4 -3 -5 
7839 6 0.264423 0.149088 0.135094 -1 2 2 
6936 5 0.366076 0.155455 0.153806 3 10 1 
7253 5 0.343494 0.151464 0.181179 5 -5 -6 
8868 6 0.322973 0.18348 0.189213 3 1 -4 
8676 5 0.45947 0.182273 0.157648 1 -3 -2 
5243 6 0.34988 0.250391 0.116574 3 3 -1 
5323 5 0.753236 0.193401 0.148572 -3 1 1 
5744 6 0.916346 0.212255 0.170396 2 -4 1 
8293 5 0.163335 0.235578 0.13 5 -2 0 
8941 6 0.537338 0.235488 0.142642 4 3 -1 
8442 5 0.248459 0.263932 0.153375 2 -1 2 
6288 6 0.799574 0.260115 0.143085 2 3 0 
6946 5 0.320529 0.268106 0.144166 0 5 3 
8475 5 0.900443 0.280908 0.15084 0 -2 -2 
8216 6 0.350707 0.338838 0.123507 1 -1 0 
7456 5 0.50886 0.322094 0.148275 1 5 6 
6553 5 0.650882 0.271406 0.144453 -2 -1 -2 
8621 6 0.777069 0.317227 0.163034 3 10 1 
6389 5 0.821845 0.320486 0.139797 -6 5 4 
8487 5 0.187769 0.318816 0.128674 -1 -1 0 
7025 5 0.546166 0.357491 0.135372 -1 -2 -5 
7785 6 0.0480539 0.392969 0.143489 -2 1 -1 
6949 5 0.237013 0.42995 0.179461 0 0 4 
6248 6 0.834164 0.389694 0.145229 2 -2 2 
7620 6 0.263561 0.438129 0.128327 3 1 1 
8853 6 0.497826 0.372949 0.132235 -1 3 2 
6334 5 0.563476 0.419787 0.168088 4 5 5 
5981 6 0.679408 0.483494 0.147174 1 -1 1 
7768 6 0.845013 0.501624 0.147704 -1 4 -3 
8433 6 0.656396 0.483569 0.143213 -3 0 0 
5652 6 0.660608 0.488536 0.1628 -3 0 -4 
5745 6 0.843016 0.491767 0.149514 -2 1 0 
7822 6 0.2378 0.505329 0.140835 -1 4 9 
6667 6 0.784581 0.532747 0.142665 0 5 -3 
6034 5 0.634388 0.550782 0.160039 3 -3 2 
8357 5 0.647745 0.582533 0.16097 -1 5 -1 
5229 6 0.759304 0.563979 0.138362 1 -2 2 
5128 6 0.893309 0.58541 0.204676 -1 5 1 
7850 5 0.0580117 0.600062 0.146238 0 -1 -1 
6704 5 0.353828 0.606462 0.15109 -2 -3 3 
6350 6 0.736888 0.647066 0.115146 -4 -2 7 
7385 6 0.938436 0.633805 0.124868 1 8 1 
5661 5 0.0945224 0.643771 0.134973 -4 -2 -1 
6135 5 0.291558 0.634491 0.129634 -3 -1 0 
8384 6 0.490688 0.61872 0.128929 3 6 1 
8331 5 0.807422 0.627907 0.128866 4 -3 3 
5395 6 0.994147 0.656797 0.114415 -2 0 2 
5402 5 0.415646 0.692964 0.147797 1 -1 -2 
7559 6 0.493136 0.65324 0.18054 1 1 2 
7430 6 0.600988 0.681676 0.173637 0 1 2 
8359 6 0.295627 0.722004 0.143432 1 -2 -1 
8112 6 0.779151 0.693414 0.10403 7 -2 1 
7709 5 0.027737 0.728164 0.15502 4 8 1 
7764 6 0.0137913 0.73842 0.160959 -3 4 3 
5211 6 0.195585 0.703088 0.153454 3 0 -4 
8525 6 0.739072 0.723947 0.157485 -7 -5 4 
6791 6 0.414022 0.747735 0.132111 1 4 0 
6963 5 0.631722 0.728066 0.128125 2 -2 0 
5893 6 0.721931 0.750112 0.156266 -3 -3 2 
5148 6 0.952531 0.743608 0.154524 2 -1 -4 
7416 5 0.0630557 0.800203 0.155921 1 -4 0 
6178 5 0.405457 0.800802 0.144957 -3 3 3 
7091 6 0.859459 0.816211 0.173878 -4 6 4 
5070 5 0.325526 0.856747 0.162341 -2 3 2 
8495 6 0.840486 0.82295 0.137895 6 5 1 
8798 6 0.855724 0.847133 0.157418 -3 3 1 
8285 6 0.162397 0.853243 0.123492 -2 0 -1 
7114 5 0.0320757 0.903294 0.165766 3 0 0 
8795 5 0.239364 0.867929 0.179381 -3 2 3 
5177 6 0.852319 0.871566 0.177965 -3 1 2 
8332 5 0.887217 0.883846 0.099206 2 -2 -1 
6723 6 0.405679 0.937012 0.148599 -7 -3 -4 
7449 5 0.493282 0.930622 0.180164 -4 -5 3 
7733 6 0.0299925 0.934576 0.138277 1 -3 -4 
5599 5 0.976967 0.90128 0.135448 2 -4 4 
8204 6 0.118858 0.931763 0.130576 4 9 -1 
7441 6 0.214765 0.943355 0.124766 -1 -6 1 
5082 5 0.31132 0.932681 0.144363 0 -4 1 
8747 6 0.237702 0.939555 0.181179 1 3 -4 
5973 5 0.457951 0.98762 0.136595 0 -2 -2 
8132 5 0.735733 0.965808 0.147914 -1 1 -6 
8725 5 0.146328 0.994719 0.139112 -2 -3 5 
5844 6 0.284349 0.0446448 0.116554 -3 6 -4 
8209 5 0.384869 0.00635751 0.126973 0 1 2 
5874 6 0.587126 0.986774 0.108471 -2 5 -7 
5154 5 0.151669 0.037354 0.157943 -2 1 2 
7842 6 0.182366 0.0236944 0.176129 2 3 -3 
8963 6 0.48591 0.0277213 0.203097 -1 3 1 
6012 6 0.794785 0.0567838 0.131457 3 3 -2 
7672 6 0.568141 0.0382505 0.157815 1 0 3 
8233 6 0.535254 0.114581 0.168368 -2 -5 -3 
7660 6 0.785784 0.0621797 0.148555 1 -1 -2 
5361 6 0.378722 0.0521659 0.196365 4 -2 0 
8804 6 0.415016 0.0743199 0.153992 0 -2 0 
7281 6 0.499836 0.0987874 0.199741 -2 -5 2 
6099 6 0.616968 0.079295 0.183498 3 -2 3 
7860 6 0.181478 0.107734 0.157533 0 -1 4 
7237 6 0.248639 0.0913764 0.148594 -1 -3 -4 
8992 6 0.428164 0.0487727 0.157805 -1 -3 -1 
8347 5 0.770546 0.0773179 0.144132 -3 -1 3 
8147 5 0.248453 0.129158 0.137293 2 -1 3 
8564 6 0.593828 0.149932 0.167601 -1 1 2 
7722 5 0.598609 0.140063 0.14229 0 -1 2 
7103 6 0.908358 0.174835 0.186336 2 2 3 
6639 5 0.92892 0.19255 0.199599 3 4 -2 
8202 6 0.755889 0.144953 0.146327 -4 3 -4 
8167 6 0.448112 0.186116 0.14151 2 3 3 
5233 6 0.949855 0.205314 0.155019 -3 -2 1 
7651 5 0.209904 0.205646 0.161842 1 0 4 
7402 5 0.895464 0.173737 0.152906 1 1 1 
6917 5 0.00160673 0.23403 0.189285 -3 0 -1 
7643 6 0.0193561 0.223896 0.211692 1 4 0 
7453 5 0.772261 0.226614 0.156247 -1 3 0 
7106 6 0.403068 0.269828 0.177258 1 0 -1 
7859 6 0.736225 0.261344 0.203946 4 8 -6 
6428 6 0.909444 0.320196 0.186168 3 5 0 
5325 6 0.406192 0.383695 0.179441 0 -3 3 
8448 5 0.496293 0.349132 0.129639 5 -2 -1 
8661 6 0.629085 0.367937 0.205358 -2 2 -1 
8203 5 0.74744 0.342771 0.160619 -3 -2 1 
7817 6 0.794791 0.377575 0.184588 -1 -2 -3 
7775 6 0.91863 0.411367 0.24168 -2 3 1 
8036 5 0.114055 0.417094 0.159437 -1 2 -2 
5366 5 0.596675 0.436674 0.170144 1 0 0 
6022 5 0.00625612 0.44095 0.190098 2 -1 6 
7751 5 0.440768 0.462357 0.179939 -4 -4 1 
8396 6 0.736376 0.499037 0.202081 2 3 4 
6930 5 0.397152 0.517889 0.181136 1 1 1 
5452 5 0.807818 0.54016 0.138763 3 0 4 
5991 5 0.142938 0.568754 0.168672 5 0 1 
6189 6 0.275737 0.556521 0.190504 -1 0 3 
8269 5 0.733751 0.56178 0.177491 2 3 1 
7871 6 0.222691 0.617792 0.167266 -3 0 -3 
9000 6 0.486276 0.555772 0.160723 -5 2 0 
5532 6 0.54579 0.605464 0.18506 -1 -3 -2 
5619 5 0.517854 0.676352 0.19333 -3 -3 3 
5464 5 0.862058 0.648636 0.157397 0 -2 -4 
8022 5 0.912819 0.680384 0.158966 3 -2 -3 
6164 6 0.546451 0.669225 0.184618 3 -2 0 
8362 6 0.731032 0.682077 0.175263 -2 -4 5 
8770 6 0.295074 0.728682 0.183235 -7 2 0 
7496 5 0.890709 0.759425 0.19979 -3 2 -2 
6426 5 0.508129 0.805541 0.202438 -2 2 0 
7267 5 0.398271 0.794642 0.190607 1 0 -3 
8227 6 0.418368 0.822184 0.141641 2 2 4 
7185 5 0.4278 0.823168 0.145757 4 2 2 
5749 6 0.514576 0.822428 0.20216 2 0 -1 
6722 5 0.713277 0.837926 0.210115 -3 3 0 
5133 6 0.143882 0.882351 0.196668 8 -3 -2 
7520 5 0.854718 0.852633 0.166734 -1 -6 4 
6898 5 0.916298 0.850415 0.163201 0 -1 -2 
7443 6 0.0601207 0.882837 0.205579 2 -1 -1 
5421 6 0.281728 0.858084 0.211316 0 1 3 
7323 6 0.303421 0.895469 0.165509 -2 2 -1 
8537 6 0.53088 0.876779 0.187308 3 5 4 
6878 6 0.579377 0.923754 0.148874 -4 3 1 
7749 5 0.531878 0.922468 0.197874 -6 1 7 
7343 5 0.74481 0.991656 0.179493 -3 2 1 
8977 6 0.596432 0.941533 0.192444 2 -4 -1 
5492 5 0.856805 0.922127 0.185383 -4 -1 1 
7242 6 0.183593 0.973244 0.195392 2 -5 -3 
5961 6 0.247264 0.976313 0.160059 -1 1 1 
5942 6 0.223769 0.973048 0.159173 4 -5 2 
5436 5 0.241046 0.967657 0.143145 -2 -1 6 
6891 5 0.348985 0.983297 0.168073 -2 0 0 
8768 5 0.582717 0.998961 0.161345 -3 -4 4 
7739 6 0.634605 0.961702 0.185717 0 0 4 
6560 5 0.205648 0.994044 0.162551 -1 -1 3 
5335 6 0.242318 0.992285 0.184908 0 1 4 
5329 6 0.531669 0.112038 0.175924 -7 1 4 
6872 5 0.525383 0.119787 0.224455 -2 3 -1 
6235 5 0.579332 0.125811 0.185339 3 7 -3 
7838 6 0.709347 0.187241 0.200306 -1 -2 -3 
6613 5 0.379502 0.2412 0.203946 2 3 -5 
6214 5 0.426317 0.205985 0.170298 -2 1 7 
8023 5 0.317169 0.269943 0.211704 7 0 0 
7459 6 -0.00105773 0.279986 0.130289 -1 -3 3 
7142 6 0.463359 0.300857 0.178741 -4 -4 1 
7113 6 0.0240678 0.348033 0.168138 3 -6 -2 
8515 6 0.678242 0.333067 0.183384 -2 1 3 
6651 6 0.299308 0.372651 0.18524 0 -2 0 
8601 6 0.518834 0.336325 0.200295 5 -2 1 
8864 5 0.718956 0.38167 0.165236 0 -2 -5 
7966 6 0.904108 0.334426 0.167444 -3 -2 2 
7976 6 0.943363 0.339952 0.204543 0 4 6 
7988 5 0.760162 0.370433 0.191965 3 -4 2 
7878 6 0.439329 0.382737 0.18842 -3 4 -6 
6776 6 0.149805 0.415666 0.211422 3 -2 1 
5815 6 0.204265 0.383187 0.174932 -1 1 -1 
8639 6 0.221746 0.439396 0.203027 3 2 -3 
7221 5 0.862358 0.438484 0.205255 5 5 -1 
5615 6 0.904326 0.438423 0.204902 -3 0 3 
8109 5 0.699913 0.469036 0.247966 -2 0 4 
8024 6 0.870614 0.467762 0.204466 0 -6 -3 
7382 6 0.283012 0.499447 0.172295 -4 -2 -3 
7376 5 0.372203 0.487236 0.182831 1 -4 4 
7450 6 0.920937 0.465734 0.204522 -3 0 3 
5755 6 0.0352008 0.500887 0.195103 3 0 3 
7204 6 0.691872 0.503722 0.196959 -1 -4 2 
8138 6 0.802322 0.508149 0.184285 -2 -1 -1 