ITEM: TIMESTEP
20000000
ITEM: NUMBER OF ATOMS
9000
ITEM: BOX BOUNDS pp pp pp
-75 75
-75 75
-75 75
ITEM: ATOMS id type xs ys zs ix iy iz 
5927 6 0.144538 0.0295437 0.000818179 -3 -3 0 
7915 6 0.0434733 0.0331104 0.0229935 2 -4 0 
5539 5 0.563771 0.0132682 0.0184373 -5 0 -1 
6642 5 0.281869 0.0827577 0.00158854 1 3 -2 
5043 5 0.876013 0.0498098 0.0211065 -6 0 -3 
5159 5 0.757676 0.0909775 0.0210401 -1 1 3 
6740 6 0.058694 0.173468 0.0460912 4 -3 7 
6701 6 0.625051 0.117697 0.0301494 -1 3 0 
6573 5 0.217131 0.171955 0.983773 2 2 -2 
6053 5 0.599216 0.166569 0.0114395 -2 -4 -3 
6320 5 0.452544 0.200178 0.031711 3 1 -2 
8143 5 0.34534 0.239265 0.0280817 -1 2 3 
8600 5 0.6996 0.242955 0.0286384 -7 0 1 
7168 5 0.785654 0.254795 0.011438 -1 1 -1 
8244 6 0.804532 0.211725 0.0242742 -3 -4 0 
7738 5 0.271656 0.256685 0.0235052 0 -1 4 
7099 5 0.975903 0.253067 0.00258811 3 -1 3 
8285 6 0.0952483 0.294361 0.0218437 6 0 3 
6665 6 0.791754 0.328822 0.990564 0 4 1 
5233 5 0.485993 0.333094 0.994302 -5 5 2 
6579 5 0.787686 0.321983 0.0146898 5 -2 -1 
6467 5 0.854176 0.372939 1.00074 1 2 -5 
5960 6 0.120778 0.362829 0.00301752 3 -2 -2 
6311 5 0.168766 0.361969 0.00959073 2 5 0 
8288 5 0.364269 0.38811 0.021771 5 -1 -1 
7424 5 0.939621 0.384422 0.00439465 -5 -2 5 
8623 6 0.339356 0.431252 0.978942 1 -3 -3 
6090 6 0.695457 0.439098 0.0446764 4 0 3 
5184 6 0.0562233 0.459185 0.0225944 0 0 2 
7702 5 0.641912 0.504163 0.971588 2 1 2 
8849 5 0.0701755 0.519683 0.0151174 -1 1 1 
5987 6 0.148618 0.504327 0.0232112 -1 1 -1 
8262 5 0.476202 0.515752 0.0296266 -4 3 3 
7907 5 0.599384 0.510855 0.973354 -1 2 -1 
8836 6 0.945647 0.46684 0.0205654 1 0 -3 
7615 5 0.169647 0.516424 0.979165 3 -5 0 
5482 6 0.521094 0.58132 0.995807 1 -1 4 
5081 5 0.758932 0.58215 0.00656221 1 -6 0 
8230 5 0.186771 0.53761 0.019896 3 -5 -3 
8391 5 0.429378 0.587801 0.99117 -2 -2 0 
6507 6 0.596999 0.599499 0.996108 -1 -1 -1 
6534 6 0.172621 0.628524 0.0173321 2 -4 4 
8772 6 0.501901 0.631087 0.986949 1 -1 -4 
8314 5 0.585696 0.648245 0.056612 1 2 0 
5963 6 0.945325 0.682843 0.0252777 -1 -5 1 
8126 5 0.693733 0.664097 0.0210329 -1 5 -2 
6428 5 0.528337 0.65766 0.00134939 -2 2 1 
8632 5 0.734024 0.702542 0.0076529 -1 -1 2 
6440 6 0.0453537 0.755673 0.0366226 2 0 6 
8682 5 0.780575 0.750053 0.00380412 -2 0 1 
8720 5 0.783629 0.717969 0.00564165 -1 5 4 
8090 6 0.852578 0.71377 0.998254 6 5 -8 
6544 5 0.00727002 0.746332 0.031129 4 -1 1 
8442 5 0.0347842 0.772263 0.0229895 1 0 1 
5066 5 0.529135 0.73666 0.0202515 3 -2 -5 
7604 6 0.747731 0.727404 0.0463605 0 0 -1 
8020 5 0.703217 0.82889 0.0100048 -1 -1 -2 
8065 6 0.856205 0.817874 -0.00192444 0 -4 -3 
5080 5 0.036374 0.834849 0.0357233 4 -1 -1 
6590 6 0.364611 0.834715 0.988399 3 -2 -9 
5888 5 0.736781 0.838752 0.0369487 0 2 1 
7329 6 0.0468066 0.86994 0.990876 0 5 -1 
6554 6 0.0762418 0.840937 0.0406301 2 3 2 
7796 6 0.230801 0.818578 0.060082 -2 0 -2 
8745 5 0.906666 0.879639 0.0510467 0 -3 2 
6746 5 0.0756251 0.921584 0.994892 2 1 2 
8738 5 0.136496 0.871832 0.987434 -2 -3 -3 
5952 5 0.598711 0.904095 0.0194569 -5 -2 0 
7532 5 0.787546 0.908037 0.997093 -2 -2 5 
7558 5 0.15222 0.925213 0.0214563 -1 -4 2 
5394 6 0.341477 0.930139 0.995289 -6 3 -3 
6473 5 0.878582 0.942094 0.0422887 0 -4 1 
7648 5 0.294684 0.00472235 0.00219847 -2 3 -2 
6475 5 0.527778 0.942125 0.0106764 -4 -1 -2 
7589 6 1.00022 0.975951 0.045939 -1 -1 2 
7069 6 0.180408 0.950318 0.00801943 -7 -2 -3 
5980 5 0.317796 0.0236785 0.0280161 -2 -1 -2 
5492 6 0.39195 0.0122995 0.0510823 0 -5 1 
7799 5 0.488247 0.00873795 0.0470496 2 2 2 
7797 5 0.796801 0.99582 0.0455004 -1 1 -4 
6178 5 0.390046 0.0370456 0.00514176 3 -2 4 
6312 6 0.563216 0.0460701 0.0519411 -2 -1 -1 
6929 5 0.532262 0.0698672 0.0303242 0 -5 1 
6553 5 0.769982 0.0578111 0.0291062 4 6 -1 
8601 6 0.808224 0.0540709 0.0405689 1 3 2 
8999 6 0.466019 0.0453546 0.0799111 2 0 1 
7200 5 0.0249923 0.0856221 0.036979 4 -2 1 
7848 6 0.62434 0.0620811 0.0139722 -1 -1 -4 
7931 6 0.78907 0.0787801 0.070991 -1 2 4 
8374 5 0.350333 0.0955998 0.0292886 -1 -3 1 
6142 6 0.0970776 0.173724 0.0302961 -3 5 4 
7111 6 0.73678 0.167022 0.0214382 5 1 3 
8766 6 0.223602 0.119709 0.0492773 -2 -1 -3 
6216 5 0.854681 0.147018 0.0342001 4 4 0 
7081 5 0.170734 0.141944 0.0413778 -3 1 -1 
7199 6 0.626641 0.236381 0.0211489 -1 2 6 
5669 6 0.130172 0.218035 0.0376835 1 2 4 
8989 6 0.325748 0.220845 0.0531289 1 -10 -2 
6901 6 0.403068 0.206204 0.0546825 -3 0 -1 
7553 6 0.50316 0.237142 0.0355655 2 2 1 
5566 6 0.763999 0.232887 0.0411664 -4 2 3 
8536 5 0.65761 0.280708 0.0683121 2 4 3 
5364 6 0.696608 0.239147 0.0400345 0 0 0 
7734 6 0.642563 0.250806 0.0250944 2 -2 -1 
8817 6 0.653837 0.265894 0.0200913 0 0 -3 
6471 6 0.752752 0.267825 0.0670638 2 1 4 
7487 6 0.342264 0.297817 0.0579699 3 5 1 
5630 6 0.161507 0.275156 0.0176263 8 2 -2 
7390 6 0.66973 0.30335 0.0445398 -6 0 0 
6406 6 0.0419216 0.409015 0.0155598 9 -4 -3 
5956 6 0.235814 0.410087 0.07077 2 -4 -2 
6303 5 0.313593 0.415128 0.0532238 5 -1 -2 
8871 6 0.884993 0.430583 0.0268668 -3 -4 3 
7117 5 0.00789797 0.408914 0.0262233 4 -2 2 
8370 5 0.579208 0.429475 0.0348717 -1 -2 -2 
5989 5 0.434911 0.474124 0.0430115 4 3 0 
6373 5 0.710788 0.46386 0.0207879 0 2 2 
6707 5 0.597166 0.494309 0.0322793 -3 1 0 
8959 5 0.816679 0.519738 0.0159114 4 3 2 
5186 6 0.128547 0.496031 0.0369809 1 -4 5 
8885 6 0.261747 0.553464 0.066597 3 -4 0 
6806 5 0.286761 0.494193 0.0225149 -1 5 0 
8011 6 0.3837 0.516773 0.07594 6 0 1 
8075 6 0.452216 0.520616 0.0151906 2 -1 -2 
5879 6 0.733928 0.508214 0.00783007 -3 -1 -3 
7688 6 0.681978 0.483794 0.0474888 -1 6 6 
5032 5 0.724225 0.520205 0.986095 -5 -2 -3 
8689 5 0.773819 0.57365 0.0329814 4 -1 0 
6414 5 0.439455 0.572776 0.0629215 -4 -1 -4 
6689 6 0.190968 0.613038 0.00090833 2 -2 3 
7789 6 0.300981 0.580577 0.996007 3 -4 -2 
8040 5 0.344176 0.582274 0.0129387 5 0 1 
6807 5 0.462558 0.564381 0.0434962 -1 -6 3 
6104 6 0.114535 0.598476 0.0594663 -4 0 4 
5877 6 0.150625 0.619343 0.0455501 -2 0 1 
8841 5 0.25089 0.614509 0.0313998 -2 1 -3 
6717 5 0.475746 0.634334 0.0293572 4 -4 -4 
7867 5 0.865312 0.637749 0.0183942 3 3 2 
8565 5 0.0107593 0.643321 0.0208746 -1 -1 8 
6137 6 0.349797 0.670567 0.021106 3 -1 2 
7535 5 0.386431 0.653684 0.0573759 -1 -3 2 
8818 6 0.26403 0.711555 0.0502187 1 0 8 
7708 5 0.71905 0.698239 0.0178475 -5 -2 -1 
8866 5 0.154643 0.71979 0.0634905 -4 -2 3 
7342 5 0.495019 0.673059 0.0532185 -2 -4 -2 
6291 5 0.2948 0.744515 0.0149594 1 0 1 
6403 5 0.0152981 0.762559 0.0104909 -3 2 0 
7939 6 0.0373445 0.763923 0.050143 1 -3 3 
7088 5 0.761685 0.771781 0.0602868 1 -1 11 
6037 6 0.79793 0.788183 0.0747144 -1 0 3 
6985 6 0.197984 0.844278 0.991823 0 -1 0 
6252 6 0.944704 0.849452 0.0162747 -1 -4 -1 
8968 6 0.610863 0.865132 0.0289485 0 -3 2 
8844 5 0.766185 0.900073 0.057369 -3 -5 -5 
5810 6 0.440349 0.889705 0.0123397 -4 -2 -3 
8580 6 0.735578 0.900818 0.02914 2 -1 1 
8054 5 0.890912 0.928657 0.0243084 0 -1 -1 
6125 6 0.337297 0.948523 0.0195813 0 -4 -2 
5112 5 0.492912 0.916596 0.0437377 6 -3 -2 
5972 6 0.534345 0.942634 0.0866605 -3 0 -1 
8630 6 0.269751 0.941397 0.0351051 0 -1 -7 
6091 5 0.483126 0.9525 4.84056e-05 -1 1 -1 
5753 6 0.92001 0.94384 0.0454026 2 -3 -2 
7778 5 0.557107 0.987118 0.0357576 1 1 6 
8552 6 0.671444 0.982365 0.0216815 1 -3 0 
5050 6 0.777421 0.00852461 0.0488501 1 2 -1 
6492 6 0.542108 0.0124484 0.0419858 0 5 2 
8151 6 0.76585 0.981605 0.0824981 -2 2 -1 
6961 6 0.319893 0.0122419 0.083566 5 -2 0 
7598 5 0.355773 0.043263 0.0378414 1 0 3 
7520 6 0.393985 0.0350211 0.044155 -1 5 -2 
5724 5 0.842954 0.03636 0.0526582 -2 1 2 
8883 6 0.0292278 0.06442 0.0550663 -3 -4 -5 
5822 5 0.993523 0.0337352 0.0559982 1 1 3 
7283 6 0.626837 0.139625 0.0330553 0 -4 0 
5698 6 0.891325 0.0905232 0.0230394 2 0 -2 
6148 6 0.357936 0.0928283 0.0475743 6 -1 2 
8413 5 0.263755 0.116235 0.0455249 2 5 1 
7546 5 0.949153 0.192422 0.0415273 4 3 4 
8139 5 0.160451 0.216872 0.0387528 4 1 1 
5510 6 0.207149 0.216593 0.0516484 0 2 -5 
8528 6 0.23823 0.215833 0.0465317 -1 0 2 
8162 6 0.0605612 0.272089 0.00392223 -1 -5 5 
7646 6 0.323914 0.279431 0.0524827 -2 -2 0 
7919 5 0.790817 0.290343 0.0504757 4 -1 0 
7119 6 0.0297388 0.330758 0.0392016 -1 -2 -2 
8584 6 0.921467 0.317831 0.0817765 -1 1 6 
7178 5 0.254319 0.324986 0.0717184 2 -4 -1 
5846 5 0.401789 0.378258 0.0924325 1 6 -2 
6115 6 0.497477 0.366197 0.0633598 0 -1 0 
7545 6 0.681974 0.359555 0.0436686 2 0 4 
6192 5 0.972858 0.340022 0.0760651 -1 -2 -2 
8531 6 0.636333 0.35273 0.0752174 1 -4 -1 
8897 5 0.779424 0.402103 0.0823408 -3 -1 7 
5120 5 0.887454 0.357157 0.0786007 3 0 -1 
7510 5 0.166246 0.490111 0.000589234 -1 1 3 
6979 6 0.477734 0.393489 0.0102798 -2 -1 2 
8582 6 0.601919 0.42816 0.130084 0 4 2 
6452 5 0.645559 0.444422 0.0412148 -4 1 2 
6621 6 0.765401 0.378349 0.0292943 -2 1 -1 
6673 5 0.867239 0.393551 0.0874703 -3 0 -1 
5739 5 0.887343 0.411801 0.0294115 1 0 -1 
5775 6 0.355766 0.431787 0.0383945 0 2 1 
7838 5 0.432879 0.467306 0.0597529 4 -2 3 
7163 5 0.53366 0.437854 0.0641025 2 3 -4 
8187 5 0.16603 0.498481 0.0797764 -2 -1 -3 
7963 5 0.489065 0.501415 0.0597095 1 -2 -3 
5561 5 0.841715 0.521776 0.0215866 -3 -1 2 
5763 5 0.364417 0.501525 0.0475119 3 4 -1 
6482 5 0.448624 0.494959 0.0207595 0 3 -2 
5995 6 0.413333 0.540068 0.0560476 -4 0 0 
6805 6 0.512238 0.535434 0.095423 2 -2 3 
7125 5 0.639532 0.546733 0.0443366 0 -6 -1 
7995 5 -0.000362866 0.566518 0.0427818 5 3 -3 
7611 5 0.114433 0.560749 0.0530493 -1 -4 3 
5861 6 0.0873235 0.61937 0.036456 5 -3 -3 
5845 5 0.0794061 0.620714 0.0729372 4 -2 -2 
5059 5 0.567439 0.614651 0.0879474 5 0 0 
7089 6 0.678588 0.587448 0.0449273 3 4 2 
5153 6 0.779031 0.596417 0.0486977 -3 -3 -2 
7917 6 0.6142 0.641218 0.0237708 -2 -2 4 
7841 6 0.725378 0.650988 0.0317689 2 -2 -2 
8659 5 0.149652 0.652869 0.0661072 0 1 2 
6153 5 0.624202 0.669922 0.084966 -6 -2 1 
7430 5 0.917775 0.711059 0.0485548 3 0 -3 
6502 6 0.758318 0.702385 0.0928209 0 -1 -2 
8420 6 0.839698 0.698577 0.0645864 -1 0 3 
6607 6 0.931523 0.685497 0.0580286 0 -2 3 
8616 5 0.213388 0.748527 0.0888133 -6 0 4 
7602 6 0.689165 0.742348 0.0432163 0 1 0 
7179 6 0.777585 0.726635 0.0916403 3 -2 -3 
5633 6 0.858254 0.741085 0.0753654 0 1 -2 
7538 6 0.225598 0.834115 0.0880854 -6 1 1 
8973 6 0.214923 0.740447 0.0615832 3 -1 0 
6329 5 0.523169 0.749361 0.992996 3 -2 1 
6030 5 0.149697 0.797396 0.0468688 -2 2 4 
8462 6 0.322429 0.76135 0.0921988 2 -1 -1 
5365 5 0.00503325 0.895564 0.0642268 1 -1 -5 
6826 6 0.738092 0.888824 0.101921 5 -3 2 
6362 5 0.765573 0.870653 0.0750611 -4 -6 -6 
7107 6 0.723875 0.913071 0.0939898 3 -2 -4 
8910 5 0.731368 0.865897 0.0392674 3 3 4 
6180 6 0.978791 0.90336 0.0695624 2 -4 3 
6261 5 0.993493 0.898745 0.0528221 -1 0 -4 
6973 6 0.349572 0.942342 0.0368862 -4 2 -7 
6057 5 0.658921 0.958319 0.0598765 1 2 6 
6614 5 0.15005 0.00535034 0.0516241 0 3 3 
5806 5 0.639936 0.938523 0.0551998 -3 -2 4 
7691 5 0.0270393 0.96766 0.0966445 -3 -1 6 
7086 6 0.500534 0.00150809 0.0730902 1 4 2 
7949 6 0.766249 0.987253 0.0628386 -4 3 -3 
5427 5 0.0389489 0.0681937 0.0604105 4 -2 2 
5170 6 0.515179 0.0622161 0.11852 2 0 1 
7202 6 0.327243 0.137686 0.0497124 -1 3 2 
8568 5 0.356155 0.0886925 0.0665325 -1 -2 -7 
6992 6 0.419069 0.198709 0.0682244 3 -7 3 
5614 6 0.565493 0.223986 0.0780496 -1 5 -1 
8086 6 0.682989 0.187183 0.0973086 -3 2 1 
6260 5 0.537382 0.2402 0.0700597 0 -3 -2 
5253 6 0.547976 0.225747 0.107516 2 4 0 
6884 5 0.0058431 0.223885 0.0284426 2 -3 -2 
5391 5 0.56876 0.334764 0.0318166 -1 -1 0 
7897 6 0.878263 0.326697 0.0891038 1 -3 2 
7904 6 0.725313 0.341863 0.108249 7 4 2 
7476 6 0.178627 0.396395 0.0879288 0 -3 2 
7612 5 0.530224 0.364288 0.0977648 -1 3 1 
7563 6 0.979221 0.388482 0.0531927 5 -1 3 
5294 6 0.321502 0.418457 0.0567799 -3 -9 -3 
7987 6 0.0283461 0.449785 0.0906712 0 4 0 
8422 5 0.819043 0.412067 0.0905441 -1 1 -1 
8263 5 0.294483 0.456081 0.037111 -2 0 1 
8461 5 0.443604 0.429661 0.0852155 -2 -2 0 
7932 5 0.66448 0.435104 0.103082 0 2 -4 
5558 6 0.992077 0.476957 0.088042 -3 -1 -3 
8260 6 -0.00134834 0.520685 0.0721214 5 -4 0 
7679 6 0.0552314 0.464418 0.115326 1 -1 0 
8799 6 0.0618511 0.499054 0.106862 1 -1 -2 
8913 6 0.939876 0.480308 0.105014 2 2 1 
6075 5 0.154001 0.535852 0.113777 1 -3 -2 
7816 6 0.942348 0.52902 0.109143 2 3 0 
7359 5 0.0746844 0.570064 0.0524654 2 3 -3 
5818 5 0.172891 0.551822 0.0603377 4 -1 0 
8360 6 0.552747 0.585537 0.0606152 -1 -2 1 
5564 5 0.627762 0.574582 0.064608 0 1 -1 
8265 6 0.089431 0.590022 0.0685364 7 -3 -3 
5074 6 0.62145 0.610408 0.0875254 1 2 4 
8593 6 0.864557 0.620326 0.0530692 -4 -2 0 
6726 6 0.60337 0.613363 0.0895762 -1 -4 2 
7847 5 0.638532 0.635748 0.105911 -3 -2 2 
5084 5 0.0907852 0.657692 0.100337 -1 0 3 
6586 5 0.496418 0.650757 0.0905743 -1 2 -5 
8058 6 0.612693 0.668986 0.0486003 -3 -1 1 
5938 6 0.222712 0.723024 0.100711 -1 -4 1 
5517 6 0.148895 0.716069 0.0987882 3 1 4 
8441 6 0.198081 0.707104 0.0756671 1 -2 1 
7317 6 0.900177 0.723229 0.058932 -1 1 -3 
7247 6 0.491567 0.728771 0.0995492 -7 -6 4 
6309 5 0.563406 0.729304 0.0912933 -2 -2 0 
8466 6 0.628556 0.778799 0.057438 2 6 1 
6935 6 0.109498 0.800169 0.0680243 1 -6 3 
8618 6 0.213665 0.811759 0.102447 -6 1 -3 
6725 5 0.127817 0.854496 0.0632429 -4 0 -1 
7488 6 0.944874 0.788248 0.0863487 0 0 2 
5067 6 0.167145 0.848527 0.0499554 -3 -6 -1 
5052 6 0.283273 0.915334 0.0923212 -1 -5 4 
6730 6 0.495706 0.886655 0.0929656 -3 2 4 
7095 5 0.614725 0.945183 0.0695839 8 2 3 
7287 5 0.0317069 0.899234 0.0818021 2 -2 0 
6024 5 0.454128 0.963099 0.0587179 -2 -4 -1 
5462 6 0.171408 0.978415 0.0989564 2 -2 2 
5209 5 0.316181 0.956267 0.0465802 -2 2 1 
8283 6 0.44593 0.993432 0.10829 2 3 1 
7166 5 0.614897 0.958757 0.0682801 3 -5 -1 
8522 6 0.154153 0.967008 0.112061 4 -3 -2 
6908 6 0.403209 0.0256689 0.0952718 1 1 -5 
7911 5 -0.00133909 0.988541 0.138276 5 3 1 
7555 5 0.575787 0.023807 0.0965696 -2 0 2 
7609 6 0.892316 0.00264726 0.111506 -4 0 -2 
5402 6 0.506489 0.0328636 0.103537 4 5 4 
7277 5 0.0459147 0.0725906 0.122167 -1 3 2 
8312 6 0.554053 0.0730141 0.115775 5 0 -1 
7324 6 0.616312 0.107225 0.112243 -2 11 3 
8484 6 0.678764 0.0806123 0.102001 -5 0 2 
7128 6 0.107953 0.0520919 0.0719769 0 5 2 
5584 5 0.211335 0.123942 0.087371 9 2 -5 
8009 5 0.43569 0.153895 0.0961225 2 0 -1 
6270 5 0.594743 0.124498 0.111627 -1 6 0 
5007 5 0.808537 0.123935 0.111823 -3 -4 -1 
5430 5 0.792322 0.116475 0.105179 -2 2 0 
6649 6 0.0694333 0.201841 0.0681471 0 0 -1 
8703 6 0.62496 0.165165 0.10099 1 -2 -3 
7654 6 0.217381 0.242411 0.115026 -1 1 7 
5924 6 0.856948 0.215373 0.0615609 -1 0 0 
6296 6 0.510232 0.261539 0.0913768 2 5 -1 
8505 5 0.0245896 0.270216 0.0831849 -2 2 -3 
8036 6 0.754538 0.28946 0.132584 -2 -1 -4 
6307 6 0.990632 0.325381 0.184821 4 4 2 
7643 5 0.944221 0.297168 0.119684 -3 5 4 
5992 5 0.0946251 0.315124 0.146447 -1 0 -2 
6218 5 0.366124 0.321924 0.0996117 -3 2 -1 
5592 6 0.582605 0.359412 0.131353 2 -1 -2 
6791 6 0.752384 0.376876 0.107616 -2 6 -2 
6880 5 0.265393 0.38139 0.11605 -1 3 1 
6588 5 0.430568 0.365533 0.101913 -1 0 -3 
7593 5 0.855582 0.386463 0.118557 3 4 -1 
5717 5 0.00152383 0.391373 0.0828457 3 -1 4 
6365 6 0.294772 0.373048 0.130115 -2 0 -5 
7877 6 0.78056 0.395907 0.102174 -2 0 2 
8782 6 0.92235 0.392003 0.127233 -1 -8 -4 
8917 6 0.284541 0.427266 0.0766993 2 -4 0 
7123 6 0.787434 0.420297 0.131378 -5 5 -2 
6029 6 0.290587 0.411756 0.109713 4 1 1 
8034 5 0.693383 0.480597 0.0634919 -3 -1 0 
7097 6 0.810498 0.476681 0.110226 -5 1 -4 
5167 6 0.353354 0.540485 0.0855022 5 0 -5 
7768 5 0.845745 0.534437 0.0944029 1 1 0 
7630 5 0.19734 0.545945 0.106049 -2 -1 -2 
5293 5 0.567214 0.540105 0.122216 0 0 4 
8748 6 0.656516 0.549992 0.106638 1 3 1 
6033 5 0.905312 0.558523 0.117792 1 -1 -1 
7167 6 0.251292 0.55585 0.120188 0 2 -4 
8983 5 0.626832 0.543782 0.0701964 4 -1 -5 
5047 6 0.712267 0.516739 0.124453 -2 -2 1 
6888 5 0.632444 0.572129 0.109294 1 -4 2 
5464 5 0.222572 0.582744 0.0900801 3 -4 0 
7634 6 0.61769 0.592168 0.113977 1 1 4 
7542 5 0.250665 0.603834 0.136672 -2 -1 2 
7049 5 0.166332 0.649849 0.116433 -1 1 -4 
6601 5 0.14393 0.642483 0.0741381 -2 -2 0 
5441 5 0.914126 0.653448 0.0696263 -3 -4 0 
7250 6 0.954232 0.666967 0.161845 -2 -1 0 
6228 5 0.13246 0.684492 0.120997 -2 -1 -2 
8683 5 0.831784 0.698668 0.092566 -1 -3 1 
7000 6 0.837819 0.713502 0.11186 -5 4 2 
5623 5 0.0118002 0.732397 0.0779457 2 3 2 
7662 5 0.583835 0.716838 0.0883589 5 0 5 
5322 6 0.668104 0.768526 0.128152 4 3 2 
8016 5 0.882999 0.777722 0.138525 -2 -1 5 
8501 6 0.294925 0.768921 0.149236 -1 -2 -1 
6392 6 0.320416 0.812412 0.0887089 -1 1 0 
5329 6 0.493684 0.84207 0.0973263 1 -2 2 
6990 5 0.213308 0.836007 0.0650344 1 5 -2 
8838 5 0.705394 0.810008 0.0674766 2 -1 -1 
8292 6 0.917164 0.840683 0.103475 -3 0 2 
5208 5 0.208906 0.860729 0.0754493 1 0 0 
5097 5 0.246709 0.863569 0.106276 -3 -3 3 
7176 6 0.452388 0.912981 0.0947597 -2 1 8 
6431 5 0.137947 0.951428 0.132308 2 1 3 
5123 6 0.333389 0.940499 0.113805 2 -1 -1 
7916 6 0.433033 0.96463 0.115201 1 -2 -2 
5813 5 0.403111 0.939072 0.095022 0 1 -1 
5618 6 0.0661719 0.963061 0.0803752 -1 1 6 
8487 6 0.444619 0.958366 0.101226 3 -5 -2 
7785 5 0.500895 0.991159 0.0690861 1 -1 -1 
7391 5 0.997774 0.949303 0.0852044 2 -3 3 
7303 5 0.441143 0.990986 0.0852911 -2 -2 -1 
6043 6 0.441118 1.00014 0.112539 6 -2 1 
7584 5 0.431472 0.0297523 0.154098 -2 -3 3 
5705 6 0.761006 0.9893 0.111301 0 -1 3 
5699 5 0.0825546 0.0406441 0.101058 -3 0 1 
5275 6 0.721434 0.0300638 0.12094 0 1 2 
6774 5 0.53932 0.103973 0.13487 0 2 -2 
7692 6 0.0919475 0.124189 0.131312 -2 4 -4 
7375 5 0.412648 0.144455 0.0606618 -1 -4 -5 
8211 5 0.60221 0.145848 0.093076 -2 -2 -4 
7035 6 0.908325 0.131239 0.18336 -4 -1 -1 
6022 5 0.0669436 0.184127 0.103155 4 0 -1 
8809 5 0.388033 0.158421 0.113713 5 0 4 
7078 6 0.699823 0.167285 0.137536 -3 3 -4 
5148 6 0.264731 0.194406 0.110764 7 0 2 
8398 6 0.609482 0.183344 0.100568 2 -3 -1 
7367 5 0.73697 0.2422 0.118854 -1 1 0 
6782 6 0.924509 0.178123 0.131254 2 0 1 
7670 6 0.682185 0.232391 0.121741 -3 0 4 
6286 6 0.0267015 0.234069 0.137233 0 -1 4 
7401 5 0.22738 0.243877 0.141649 4 0 1 
6213 6 0.753259 0.275117 0.112555 -1 2 -1 
5444 6 0.0092209 0.289937 0.119136 -3 3 3 
6986 5 0.225523 0.278947 0.133118 -2 -4 -1 
6493 5 0.961368 0.277782 0.105922 3 3 -6 
6893 6 0.244736 0.340329 0.110267 0 0 2 
6141 5 0.349262 0.285605 0.117657 1 0 0 
5421 5 0.529124 0.318034 0.138238 -3 -2 3 
7406 6 0.29536 0.371849 0.108583 2 -6 1 
6404 6 0.316141 0.301645 0.0984241 -1 -4 0 
7494 6 0.84695 0.347161 0.121119 -6 1 -1 
6624 5 0.993671 0.331658 0.123509 0 4 0 
5224 5 0.731661 0.346447 0.1498 -3 1 2 
8066 5 0.914595 0.371436 0.158425 -2 2 6 
8835 6 0.193963 0.384794 0.169255 0 -7 0 
6287 5 0.240554 0.366487 0.128496 0 1 -1 
5034 6 0.88993 0.377632 0.13078 -1 3 0 
6438 6 0.146513 0.419422 0.134323 -4 -5 4 
6634 5 0.164502 0.427836 0.149514 -1 4 -2 
6124 6 0.472654 0.445476 0.13074 0 0 3 
7462 5 0.964305 0.430481 0.119609 -1 1 3 
5160 5 0.0646275 0.441822 0.143141 -1 1 2 
6971 6 0.596465 0.414624 0.0850994 1 -2 -2 
6114 5 0.912115 0.440585 0.129765 3 -2 -6 
8448 5 0.156305 0.454446 0.0860915 -4 0 4 
6234 5 0.781508 0.466551 0.112688 -3 -1 -2 
5255 5 0.907412 0.467479 0.0851091 -1 -4 3 
7798 6 0.602975 0.453049 0.121362 3 4 1 
5014 5 0.973361 0.503146 0.125634 0 2 2 
8585 6 0.200676 0.492014 0.167361 3 -2 5 
7728 5 0.295668 0.527755 0.0969133 0 6 0 
7030 5 0.293036 0.517693 0.154493 6 4 1 
6340 5 0.893448 0.528565 0.147633 1 -5 -1 
6038 5 0.902238 0.512959 0.166021 -3 -2 -2 
7028 5 0.623237 0.526218 0.144953 1 -2 -5 
7171 6 0.15074 0.565503 0.157592 2 -1 4 
6282 5 0.603107 0.570634 0.120764 0 0 1 
7477 6 0.176892 0.622203 0.173403 5 0 6 
8375 6 0.565199 0.585662 0.108484 -1 -3 1 
8409 6 0.763579 0.605377 0.126998 1 1 -2 
8119 6 0.709013 0.619529 0.163747 -1 -2 1 
5893 5 0.170319 0.658006 0.124993 4 -2 -4 
7601 5 0.435329 0.617694 0.116394 0 0 1 
5031 6 0.48972 0.700496 0.147583 -1 -5 -1 
8508 6 0.0132191 0.690693 0.136424 -2 2 4 
8877 5 0.844524 0.689969 0.154687 1 1 -5 
5155 6 0.853524 0.655296 0.135566 -2 2 -3 
6099 6 0.42769 0.746888 0.0948519 5 -3 -2 
6849 5 0.814177 0.72477 0.128355 -3 -1 2 
5835 6 0.997889 0.749874 0.12157 5 2 -3 
8581 5 0.246074 0.752655 0.123032 -1 2 2 
7852 5 0.196303 0.78692 0.124415 2 -7 2 
5452 5 0.185142 0.731803 0.132162 2 1 0 
6950 5 0.533331 0.837865 0.117293 1 1 2 
8783 6 0.695838 0.82789 0.129517 -4 3 6 
6743 6 0.713435 0.814286 0.17015 2 3 0 
7971 5 0.917393 0.869931 0.116779 -8 2 0 
8592 6 0.104462 0.837482 0.163533 1 -6 -1 
8916 5 0.288083 0.869902 0.116693 1 -2 3 
8723 6 0.267709 0.880594 0.129497 -2 1 -1 
5631 6 0.63895 0.908549 0.15013 2 1 1 
8678 6 0.919527 0.89904 0.105964 -3 3 -1 
5054 6 0.173667 0.879652 0.173374 -4 -3 -1 
8046 5 0.426733 0.930958 0.132221 -1 -1 0 
6546 5 0.946297 0.931754 0.127561 -2 -4 1 
7316 6 0.583498 0.92996 0.129058 0 -2 1 
8902 6 0.110625 0.98114 0.138899 -1 1 1 
6784 6 0.33818 0.970619 0.155135 5 -3 -6 
5881 6 0.446449 0.988139 0.145028 -1 0 0 
5824 5 0.830507 0.95101 0.137227 1 -3 3 
5057 6 0.0911423 0.972655 0.151094 -1 -4 2 
7577 6 0.56585 0.984967 0.11275 1 -4 1 
5581 6 0.323883 0.0205589 0.172785 3 3 -1 
6555 6 0.700579 -0.00148257 0.122986 -3 6 -2 
5096 6 0.945011 0.981237 0.101379 -1 0 1 
5951 6 0.991137 0.00804589 0.142539 2 -1 1 
5202 5 0.0189749 0.0750807 0.143265 -2 0 -5 
8169 5 0.376634 0.0564576 0.138536 1 4 1 
6419 5 0.875418 0.0183064 0.120005 -5 6 0 
5800 6 0.10181 0.110967 0.160245 1 -3 0 
7562 5 0.403027 0.0871465 0.131512 3 3 0 
8729 5 0.684075 0.0541729 0.140332 2 1 0 
8555 5 0.0831514 0.114538 0.140257 4 3 1 
8787 5 0.954561 0.0910784 0.137671 5 -2 0 
6957 6 0.208706 0.123778 0.167405 -4 -1 1 
7327 5 0.798657 0.136363 0.198759 -2 0 -2 
8553 6 0.108366 0.145654 0.157498 1 3 1 
6073 6 0.259937 0.16184 0.189149 -1 2 1 
8648 6 0.893154 0.145944 0.160264 -3 -1 2 
5726 6 0.198466 0.180596 0.130235 -1 3 0 
5046 6 0.360818 0.209019 0.143511 0 0 4 
7755 5 0.303826 0.210799 0.133843 1 -1 -4 
5460 6 0.451626 0.206843 0.181467 -2 -1 0 
8474 6 0.983062 0.203212 0.160228 -4 4 0 
8217 6 0.847688 0.213583 0.16638 -3 -3 1 
5435 5 0.777771 0.269179 0.161754 0 -2 -2 
8180 5 0.969466 0.278479 0.140251 1 2 5 
5731 6 0.282848 0.332415 0.182392 2 -1 -2 
6499 6 0.489684 0.306578 0.157852 0 4 2 
5807 6 0.370643 0.366003 0.143328 5 -1 3 
8654 5 0.282868 0.368855 0.160357 -1 0 4 
8365 6 0.322248 0.363874 0.145448 -2 0 3 
7137 6 0.926664 0.373877 0.122282 0 1 2 
8479 5 0.918895 0.411452 0.210226 -7 1 4 
5345 6 0.0947601 0.410249 0.154057 1 -1 -3 
6511 5 0.0810816 0.410086 0.116615 -1 -1 2 
8886 6 0.21008 0.451382 0.172936 3 0 4 
6156 5 0.492823 0.465178 0.158174 -3 0 1 
5056 5 0.801971 0.43288 0.167233 0 1 1 
7348 5 0.153487 0.451786 0.177297 4 1 1 
5639 6 0.183354 0.456123 0.115779 3 1 3 
5925 6 0.373532 0.45757 0.133689 0 3 4 
5089 5 0.796808 0.443004 0.146248 -2 -2 -3 
6274 6 0.107201 0.476737 0.123434 1 3 1 
7183 6 0.748424 0.483496 0.171663 1 -1 4 
7216 5 0.0944872 0.48581 0.173952 -4 -4 0 
7452 6 0.0816782 0.501507 0.140698 -1 -4 -2 
5647 6 0.279059 0.501377 0.127794 1 -2 -4 
6488 5 0.474508 0.494085 0.134185 2 -1 0 
6066 5 0.501226 0.51017 0.120644 -2 0 1 
8668 6 0.513684 0.505833 0.1879 -1 -1 4 
8091 6 0.0598108 0.563565 0.140878 1 4 2 
7745 5 0.0517444 0.5597 0.168709 -2 3 1 
6915 5 0.62448 0.507098 0.1661 -2 -4 -2 
7372 6 0.362283 0.545169 0.160102 4 1 2 
7067 6 0.782462 0.555017 0.134171 0 2 -2 
5098 6 0.883632 0.551743 0.116633 -1 -2 1 
5815 5 0.918812 0.55451 0.0876583 6 -1 2 
5134 6 0.963207 0.582436 0.155669 3 0 5 
6688 6 0.0428295 0.603092 0.152939 -4 1 3 
6339 5 0.834704 0.595785 0.149646 -1 2 4 
5082 5 0.757875 0.629059 0.131949 -3 -4 -4 
7292 6 0.0733735 0.656887 0.131033 3 1 5 
7104 6 0.300192 0.662719 0.144807 -1 -3 -4 
7534 5 0.307456 0.691873 0.158098 2 1 -1 
8352 6 0.76601 0.64875 0.133745 -1 2 0 
5315 5 0.151856 0.662711 0.116335 -1 -6 7 
5678 6 0.790239 0.689659 0.119231 -5 1 4 
8781 6 0.717561 0.751138 0.121014 -3 -5 4 
6605 6 0.716882 0.738503 0.117134 2 -2 4 
7879 6 0.885016 0.732531 0.167612 -2 1 0 
8681 6 0.483687 0.766319 0.170093 -1 3 -1 
6491 6 0.188111 0.781567 0.141126 0 -3 0 
7565 5 0.471042 0.802157 0.141236 -1 -4 -3 
8995 6 0.572086 0.835109 0.167783 3 2 3 
6874 5 0.896042 0.862476 0.153529 -5 1 0 
7249 5 0.916151 0.771193 0.136477 1 -1 -1 
7731 5 0.342661 0.859044 0.18209 2 -1 -1 
8560 5 0.778823 0.894357 0.183192 0 2 3 
6106 5 0.0389962 0.919286 0.16168 3 0 -2 
8018 6 0.350255 0.900867 0.137881 2 2 -3 
5265 5 0.468541 0.892268 0.160561 -1 3 6 
8634 5 0.0665969 0.888004 0.140675 0 -4 0 
5892 5 0.521737 0.901024 0.177587 3 2 6 
5971 6 0.673662 0.919888 0.161343 -1 5 -2 
8662 5 0.612435 0.898093 0.153132 6 0 0 
6964 5 0.947833 0.927094 0.137431 -3 0 0 
7945 5 0.427053 0.937385 0.187575 7 0 0 
6187 5 0.0670991 0.962481 0.112965 3 0 6 
7187 6 0.132397 0.962511 0.172587 -1 1 -3 
6134 6 0.486336 0.957357 0.160124 -4 -1 0 
8467 5 0.528924 0.945155 0.139003 0 -2 1 
6305 5 0.694998 0.965228 0.168726 4 4 -2 
8750 6 0.321251 0.99779 0.17156 -1 6 -3 
6460 6 0.630505 0.998764 0.181949 0 1 0 
8271 6 0.801239 0.0639432 0.146784 -1 0 -3 
5565 5 0.253325 0.0886663 0.172953 -5 -5 0 
6314 6 0.299726 0.0851332 0.179958 -5 0 3 
7981 5 0.543686 0.0718735 0.189358 -4 -2 2 
6007 5 0.672322 0.0632026 0.151543 -1 1 -2 
7676 5 0.32506 0.136426 0.181247 3 2 -3 
7711 6 0.999823 0.158001 0.201897 -3 1 2 
8735 6 0.0453431 0.153619 0.179441 0 3 1 
8291 5 0.859983 0.174313 0.197369 6 -5 -3 
8768 6 0.918847 0.163028 0.14678 -4 0 3 
6008 5 0.188747 0.136849 0.203234 1 -1 1 
6279 6 0.514434 0.155789 0.164033 -1 0 -3 
7016 5 0.409677 0.237451 0.191321 2 0 -1 
7885 6 0.724846 0.239601 0.176353 3 -1 -1 
7204 6 0.301661 0.302996 0.187143 1 4 -2 
8225 6 0.665028 0.316153 0.171172 5 3 2 
5762 6 0.319239 0.25765 0.189132 -2 -4 2 
5362 6 0.908438 0.272673 0.166018 0 0 -2 
7576 5 0.0325166 0.289324 0.177035 -1 4 -1 
8604 6 0.327244 0.295013 0.166389 6 5 1 
8364 5 0.537954 0.293181 0.184071 -3 7 0 
7308 5 0.182269 0.332107 0.143094 2 -4 3 
7516 6 0.716593 0.333849 0.141117 -2 9 2 
6883 5 0.28271 0.383507 0.182848 1 3 -3 
8219 5 0.390539 0.326762 0.151147 -2 1 4 
8814 5 0.687051 0.396477 0.145671 0 -2 4 
5985 6 0.634774 0.330218 0.130126 -1 3 2 
6357 6 0.312201 0.392877 0.164067 3 -3 1 
8154 6 0.347264 0.378023 0.167154 -1 1 2 
6461 6 0.933662 0.361502 0.179455 -2 -2 3 
6694 5 0.511255 0.396672 0.148576 2 -2 0 
5625 5 0.592607 0.391822 0.157563 2 -3 3 
6284 6 0.469314 0.425377 0.161772 0 1 3 
5448 6 0.690152 0.427487 0.142418 0 -8 0 
5359 5 0.675031 0.410024 0.168434 -1 -1 -1 
8386 5 0.263123 0.435887 0.155645 6 -3 -4 
6313 5 0.833636 0.435832 0.168722 1 -1 -6 
8762 6 0.884313 0.428954 0.162443 -3 -2 1 
7733 6 0.10158 0.476532 0.159451 -4 1 -4 
7226 5 0.285609 0.463926 0.128895 3 -4 -3 
5220 5 0.278715 0.475803 0.168059 -3 3 -3 
7894 6 0.567213 0.446751 0.190932 -2 -5 -3 
5606 5 0.78087 0.487088 0.172955 -1 5 1 
5379 5 0.51625 0.482768 0.151213 -2 2 -4 
7550 6 0.624019 0.537667 0.152016 2 -4 0 
8339 6 0.628261 0.562714 0.172374 0 1 1 
7445 6 0.915978 0.541481 0.185153 2 1 2 
5495 6 0.259553 0.540198 0.161542 -2 8 -6 
6082 5 0.334107 0.578647 0.16433 0 3 -2 
8286 6 0.562473 0.574684 0.162752 -2 -1 0 
6236 5 0.0796583 0.568242 0.191669 -1 -2 -2 
6789 6 0.893787 0.581938 0.157196 2 2 -5 
6959 5 0.920209 0.568791 0.1749 1 -1 1 
6401 5 0.479407 0.59561 0.216515 -2 -3 2 
8979 6 0.553119 0.593553 0.149123 -3 1 -7 
5640 5 0.810828 0.59198 0.159402 2 -1 -3 
8915 5 0.499228 0.61498 0.181501 -1 2 2 
6904 6 0.692147 0.650823 0.205029 -3 -4 2 
7552 6 0.0834377 0.690307 0.187442 3 1 1 
5241 6 0.570055 0.709058 0.149341 -5 6 0 
7400 6 0.92934 0.641539 0.197047 0 2 3 
5853 6 0.742633 0.702933 0.15453 1 -5 3 
8755 5 0.0548898 0.741453 0.172795 3 4 4 
5721 5 0.659935 0.730187 0.222767 -2 -3 3 
7352 6 0.925857 0.751105 0.17183 2 -1 1 
5613 6 0.0908524 0.785237 0.181394 1 -3 2 
8669 6 0.264332 0.83869 0.139806 0 1 5 
5392 5 0.426351 0.799316 0.153133 1 3 7 
6695 5 0.490055 0.802866 0.127719 -2 -1 -4 
7248 5 0.675046 0.795928 0.178943 -1 1 -4 
5703 5 0.912224 0.847722 0.168756 -4 1 1 
5372 6 0.0278482 0.806024 0.188184 -4 -1 0 
5212 6 0.498784 0.868576 0.16122 0 -3 3 
8025 6 0.937097 0.813183 0.168097 -1 0 -2 
6206 5 0.577355 0.867503 0.14864 0 -2 1 
5228 6 0.591844 0.859171 0.162166 -6 -4 3 
8831 5 0.593081 0.849838 0.140076 1 -4 4 
8012 6 0.73285 0.909014 0.143604 1 -3 0 
6520 5 0.110477 0.887188 0.159601 -7 0 0 
8033 6 0.250229 0.896234 0.135536 5 2 3 
8644 5 0.614716 0.851929 0.155123 0 2 -1 
8801 5 0.792854 0.87787 0.169021 -8 2 1 
7121 5 0.0581063 0.953505 0.186208 -4 3 -2 
6377 6 0.0626926 0.958279 0.162456 -2 1 -4 
8926 6 0.414716 0.943823 0.167379 0 4 0 
5116 6 0.793557 0.917247 0.18192 1 -2 -3 
8802 6 0.963035 0.93862 0.180273 5 4 4 
5140 5 0.984295 0.903306 0.14429 3 -2 -5 
6846 6 0.0251373 0.939849 0.184278 3 3 1 
7084 6 0.603615 0.952535 0.182699 -4 0 0 
6896 6 0.753285 0.899227 0.1584 -1 3 -2 
8084 6 0.833849 0.938879 0.161504 -1 -9 7 
6150 6 0.0611864 0.964841 0.162541 -1 2 -1 
7152 5 0.679466 0.950572 0.172204 1 0 -5 
6096 5 0.0155726 0.969194 0.203154 -1 0 3 
5604 6 0.566447 0.982831 0.155761 1 1 -3 
5161 5 0.543236 1.00146 0.206874 -2 1 2 
6654 6 0.647718 0.0033749 0.180384 1 -2 -1 
7472 5 0.784527 0.0107683 0.231938 0 3 -1 
6744 6 0.996082 0.014397 0.17097 -3 -2 1 
8889 6 0.432941 0.0347827 0.161176 3 0 -1 
6790 6 0.706945 0.0650087 0.158244 1 -2 -3 
7194 5 0.747995 0.0650646 0.219812 4 -4 1 
7850 6 0.273863 0.135575 0.227495 6 -2 5 
6268 5 0.358861 0.0929653 0.163157 2 1 1 
6578 6 0.511913 0.0859208 0.219275 -4 1 -2 
6484 5 0.590545 0.0896275 0.226407 2 -2 5 
5523 5 0.715256 0.105067 0.19664 6 4 8 
5273 6 0.345545 0.169504 0.150235 -2 2 1 
5621 6 0.740738 0.174098 0.167782 -1 5 3 
5766 5 0.0203299 0.169117 0.180341 0 -3 -2 
6976 6 0.715688 0.174318 0.207958 2 5 3 
5997 6 0.777228 0.218298 0.186164 -2 -6 1 
5834 5 0.0219257 0.244675 0.173969 -5 0 -6 
6145 6 0.144865 0.209017 0.202031 -4 -1 -3 
8469 6 0.384732 0.243483 0.198346 5 -3 -1 
7771 5 0.450787 0.26861 0.163218 -2 -5 -1 
7075 5 0.287247 0.266596 0.205586 2 -2 2 
6628 6 0.278911 0.246327 0.231805 2 -3 0 