ITEM: TIMESTEP
20000000
ITEM: NUMBER OF ATOMS
9000
ITEM: BOX BOUNDS pp pp pp
-75 75
-75 75
-75 75
ITEM: ATOMS id type xs ys zs ix iy iz 
6838 6 0.0389164 0.0215388 0.989467 -4 -1 -5 
7880 5 0.801275 0.0348237 0.981798 2 2 1 
7826 6 0.502756 0.00795907 0.0496471 -2 0 1 
6387 6 0.58037 0.0495965 0.990933 1 -3 -4 
7877 5 0.984796 0.028073 0.0280109 7 0 -1 
5946 6 0.584871 0.0329927 0.0534686 -1 -1 4 
5831 6 0.175719 0.10371 0.996534 -5 4 0 
7236 5 0.393357 0.0916622 0.0220962 -7 -1 4 
8219 5 0.0755273 0.100482 0.010876 2 0 0 
7733 5 0.950509 0.12852 0.0200344 -1 7 -2 
5838 5 0.272208 0.144522 1.00058 2 1 -7 
5158 6 0.761478 0.115407 0.0385291 1 3 1 
6647 6 0.161232 0.154628 0.99829 -2 1 0 
8405 5 0.293482 0.116005 0.0061524 -1 0 0 
6912 5 0.622165 0.105617 0.0446163 0 -1 1 
7154 6 0.871648 0.169298 0.98166 1 -4 5 
6971 5 0.269125 0.158267 0.0328013 3 -1 0 
8042 6 0.356788 0.147603 0.00931723 3 -1 0 
7849 6 0.4812 0.205209 0.024967 2 5 0 
7946 6 0.560872 0.17504 0.0090678 1 7 2 
5964 6 0.256869 0.21767 0.0177307 2 1 -1 
7044 6 0.348046 0.229015 0.00754789 1 0 3 
5756 6 0.648764 0.282096 0.00590317 6 -5 1 
6319 6 0.697989 0.272559 0.0187699 4 -3 -1 
7115 6 0.0673723 0.304132 0.0223113 2 -6 -5 
5929 6 0.530812 0.280961 0.996622 0 -5 2 
5470 5 0.991823 0.271112 0.977922 -4 0 -1 
8842 6 0.658877 0.290601 0.0100033 -3 3 -3 
6892 6 0.924418 0.308582 0.990907 -1 2 0 
8559 5 0.0434785 0.344671 0.0374234 1 2 4 
8997 6 0.140693 0.363031 0.0214351 0 4 3 
6181 5 0.52497 0.367372 0.0218995 0 -6 1 
7780 5 0.0175209 0.360801 0.998767 3 2 -3 
8233 6 0.374292 0.409241 0.0342912 -1 -3 0 
6716 6 0.976806 0.380172 0.00170272 4 2 4 
5658 6 0.115561 0.425052 0.0196843 -1 0 1 
5748 5 0.263218 0.417857 0.997947 3 2 1 
8410 5 0.494954 0.475654 0.0111757 -4 -2 0 
7820 6 0.595032 0.394733 0.0107292 -3 -1 -2 
7461 6 0.350782 0.434866 0.991315 1 2 0 
6540 5 0.43849 0.431625 0.0177528 3 0 -2 
6751 6 0.12661 0.453333 0.0139222 1 -1 0 
8068 6 0.38715 0.478723 0.00124463 -3 -2 -4 
5735 6 0.518989 0.465565 0.0140278 1 3 5 
7281 6 0.362967 0.50539 0.0274953 -8 3 2 
5163 5 0.184719 0.557461 0.0245326 -1 2 -3 
7785 5 0.476023 0.53949 0.0347747 1 2 -3 
7216 6 0.725093 0.565857 0.975705 -1 -3 -1 
5916 5 0.180703 0.553617 0.976406 3 1 2 
6874 5 0.318729 0.568569 0.988391 -1 -3 1 
7205 5 0.406117 0.638022 0.00544665 6 1 2 
8790 6 0.666905 0.587105 0.0251484 4 1 -1 
7794 5 0.681917 0.569127 0.0339807 -1 -3 1 
5286 6 0.805047 0.584715 0.00477867 1 0 -2 
6265 6 0.368717 0.610602 0.990261 1 4 -1 
7783 6 0.970841 0.647078 0.0177887 -3 3 1 
5117 6 0.987222 0.674967 0.0435513 5 -1 2 
8331 6 0.355603 0.661926 0.975872 0 1 -3 
5989 5 0.12726 0.708034 0.99867 5 3 1 
7701 6 0.217704 0.676867 0.00823899 -1 -3 9 
5844 5 0.59832 0.701995 0.0611534 1 -3 5 
7331 6 0.0575814 0.693957 0.986589 6 -4 4 
6646 6 0.039612 0.721471 1.00109 -1 6 -1 
5715 6 0.442453 0.747642 0.0165965 3 2 -2 
8835 6 0.255978 0.764884 0.989607 3 -1 0 
5167 6 0.584224 0.790832 0.0468279 2 -3 6 
7862 5 0.650173 0.759952 0.0428562 0 0 0 
8308 6 0.873185 0.828569 0.970281 -1 4 -5 
5699 5 0.415742 0.801517 0.000951623 5 1 1 
7917 6 0.964705 0.843022 0.975818 4 1 -3 
7444 6 0.19704 0.821892 0.984176 -1 -5 3 
6011 5 0.465091 0.882828 0.996956 4 0 3 
8744 5 0.948127 0.881826 0.0244151 -2 -1 -5 
7193 5 0.916057 0.904049 0.0199233 2 -2 2 
6831 6 0.0444001 0.904694 0.0289652 5 0 1 
7799 5 0.825436 0.925279 0.0111152 0 2 1 
5573 6 0.912771 0.95898 0.0108731 0 -3 0 
5634 6 0.943868 0.906463 0.998435 4 -2 4 
8189 6 0.389388 0.923109 0.0121252 -3 -1 2 
5401 5 0.151976 0.952698 0.985409 -3 -4 3 
8337 6 0.429741 0.990235 0.97811 -2 -1 0 
5105 6 0.124154 0.961791 0.0182303 1 2 2 
6133 5 0.894987 0.998559 0.0246132 0 2 0 
5561 6 0.611745 0.983743 0.0106398 -2 1 -2 
6591 5 0.256337 0.0294297 0.0373674 -2 0 3 
7746 6 0.419738 0.0426842 0.0176817 -2 -1 -1 
6084 5 0.629197 0.0723878 0.0217147 -1 0 1 
7649 6 0.218975 0.0444382 0.0146457 2 -2 -1 
6628 5 0.755007 0.0306063 0.051327 10 1 3 
7975 5 0.205027 0.0836907 0.0381713 5 2 8 
8327 5 0.838228 0.123811 0.0696799 -2 -1 0 
8854 5 0.182448 0.129934 0.0244547 -6 7 0 
6593 6 0.61455 0.174515 0.995429 0 -3 1 
6198 6 0.0346257 0.160713 0.998215 -6 0 0 
8838 5 0.469218 0.167229 0.0548036 7 -5 1 
6352 6 0.508044 0.106959 0.0162784 -4 -1 -4 
7450 6 0.374193 0.182053 0.0168634 -3 -7 4 
7914 5 0.661254 0.197939 0.00491089 0 2 -2 
6991 5 0.693077 0.151589 0.0289064 -1 0 -2 
8440 5 0.379108 0.174256 0.0508774 1 -1 2 
7708 5 0.561366 0.210504 0.03415 -3 -5 1 
7854 6 0.146741 0.217061 0.0449052 0 3 0 
6514 5 0.132454 0.235071 0.999793 4 -3 0 
5244 5 0.626447 0.25288 0.0371811 1 3 2 
5570 6 0.842272 0.25757 0.99187 -5 1 2 
7751 6 0.708855 0.286141 0.0313843 4 -2 -1 
7655 5 0.0763532 0.31593 0.0401049 1 -2 1 
8966 6 0.214342 0.332211 0.0259236 -3 -2 -1 
5530 6 0.618432 0.266585 0.04748 3 -2 2 
5055 6 0.868528 0.313373 0.050651 2 2 3 
7722 5 0.108274 0.324926 0.0414921 0 2 1 
7906 6 0.817827 0.367471 0.0290962 4 -4 5 
6138 5 0.277716 0.404632 0.0806821 2 -5 3 
7019 6 0.293314 0.431705 0.00608391 -1 -7 1 
6878 6 0.17107 0.491593 0.0170719 2 6 -5 
8429 6 0.298951 0.448647 0.0251306 -1 0 3 
7714 6 0.437473 0.419465 0.0473836 -2 0 2 
7507 6 0.569507 0.450763 0.030195 -1 -1 3 
8240 5 0.600801 0.469998 0.0252995 -2 1 0 
7178 6 0.313198 0.487236 0.0716963 5 1 3 
7105 5 0.294535 0.455402 0.0697375 4 -4 1 
6977 6 0.382814 0.505184 0.0132189 1 2 0 
8985 5 0.713868 0.595096 0.0405419 -6 4 -5 
5999 6 0.39764 0.525136 0.0715419 0 -3 -1 
5168 6 0.490971 0.575779 0.0114032 -4 3 0 
8094 5 0.766507 0.596734 0.0334915 1 -4 1 
7889 6 0.846876 0.543083 0.987502 -4 2 -1 
8984 6 0.638649 0.58337 0.0355553 0 -2 2 
8869 5 0.76592 0.575841 0.0431953 3 -2 -2 
7680 5 0.94268 0.62855 0.0427075 -2 -5 4 
6083 5 0.220762 0.632918 0.0641692 -3 2 0 
5977 5 0.0516921 0.628834 0.0393369 1 -1 3 
5159 5 0.556366 0.677973 0.0302268 -1 3 -2 
5566 5 0.600698 0.652148 0.0459619 1 2 -1 
7860 5 0.871966 0.648205 0.0406932 3 1 -3 
7798 6 0.522929 0.699046 0.99052 -3 -1 3 
6385 5 0.704191 0.717331 0.0408804 -4 3 -1 
6818 5 0.70025 0.690167 0.0351355 -1 -2 -1 
8963 6 0.85391 0.723004 0.0444239 -4 2 1 
8045 5 0.393703 0.754898 0.0334956 0 2 3 
8128 6 0.134546 0.759964 0.0215532 -2 5 1 
8734 5 0.506145 0.800921 0.0161377 -1 0 -4 
6829 5 0.664491 0.800023 0.0193579 3 2 -3 
8936 5 0.735102 0.845289 0.0492199 3 0 -1 
5708 5 0.577578 0.837462 0.0425484 4 -1 1 
6202 5 0.543711 0.841393 0.0577712 -2 1 -4 
6116 6 0.588272 0.838652 0.0654153 2 -1 0 
5919 6 0.00895667 0.890928 0.0113145 -2 -1 1 
7225 6 0.553047 0.847791 0.00236842 5 5 2 
7247 6 0.860711 0.882337 0.0146349 -3 -2 2 
5632 6 0.172893 0.921219 0.0165792 4 -6 -6 
8377 6 0.468549 0.946574 0.0418097 3 1 7 
5296 5 0.890575 0.922885 0.0358668 -2 -3 2 
6346 5 0.104371 0.905268 0.0224896 1 -2 3 
7006 6 0.180218 0.931325 0.0581138 1 5 4 
8866 6 0.388117 0.940749 0.989887 -4 0 3 
6245 5 0.726668 0.9189 0.0315515 1 3 -3 
6575 5 0.777216 0.944845 0.0292427 5 -2 2 
6927 5 0.838785 0.94299 0.0291121 1 -1 3 
7512 6 0.872546 0.955716 0.0301553 4 -3 -1 
5432 5 0.868316 0.944108 0.027575 4 -1 2 
5948 6 0.414648 0.976202 0.0353659 -2 0 1 
7840 5 0.633959 0.99948 0.0169827 0 -1 0 
6815 6 0.744362 0.0337304 0.059152 3 -3 -2 
6731 6 0.932073 0.99304 0.00430538 1 0 1 
6399 6 0.196281 0.996601 0.052779 0 -3 -4 
6289 6 0.937368 0.0105082 0.0454753 4 5 -1 
6999 6 0.196346 0.0546292 0.0545938 0 1 -2 
5386 5 0.248118 0.0479016 0.0277281 -1 -4 -9 
6044 6 0.436732 0.0302007 0.0428401 -2 2 -1 
8701 5 0.507659 0.0168947 0.0397254 0 0 -2 
8492 6 0.758952 0.0588905 0.0594685 -6 0 2 
5758 5 0.197319 0.0557367 0.0860775 2 1 1 
6033 6 0.339132 0.0589221 0.0908041 -5 2 -3 
8199 5 0.405618 0.114195 0.0465729 -1 1 3 
6196 5 0.976658 0.0876302 0.0270553 -4 1 -2 
5730 5 0.00452586 0.0633561 0.100564 -4 3 6 
7076 5 0.548453 0.121265 0.0537659 0 3 4 
5464 6 0.730706 0.096472 0.0728183 4 2 2 
6454 6 0.361796 0.122341 0.068252 3 2 3 
5686 6 0.400215 0.143813 0.0494674 -1 -1 0 
7038 6 0.806098 0.142592 0.0655832 1 -3 -2 
8624 6 0.0951639 0.104137 0.0380207 3 -2 4 
7650 5 0.253342 0.142799 0.0185063 -5 -4 3 
5489 5 0.319061 0.137011 0.042566 1 -3 2 
8113 5 0.350862 0.157883 0.0517375 0 0 2 
5266 5 0.386393 0.172389 0.0504252 2 3 4 
8852 6 0.153175 0.14755 0.133462 -3 -2 2 
8834 5 0.576582 0.188482 0.043558 1 1 1 
8642 6 0.663931 0.223443 0.0763996 -3 -2 -5 
7540 5 0.857425 0.23438 0.0794199 1 6 1 
5811 6 0.472818 0.250156 0.0549107 0 1 -2 
8629 6 0.468526 0.272059 0.0828843 -1 2 2 
8967 5 0.587287 0.314572 0.0614898 4 -4 0 
6359 5 0.693431 0.229972 0.0395199 2 -1 1 
6433 6 0.393376 0.299594 0.0853661 5 0 2 
8928 5 0.972491 0.284576 0.0436096 1 -5 1 
8019 5 0.98577 0.30826 0.0462434 1 -1 4 
7285 5 0.994025 0.326678 0.0803386 2 -1 3 
8330 6 0.945835 0.323536 0.0410311 -4 -2 -9 
5324 6 0.170306 0.369383 0.061444 -3 0 7 
6730 5 0.812696 0.339965 0.0527862 1 -1 -4 
5301 5 0.854211 0.344343 0.118467 1 2 -2 
6692 5 0.485615 0.367562 0.0498389 -3 1 0 
5613 6 0.599758 0.394198 0.0637349 0 3 4 
8404 6 0.949317 0.348722 0.0842504 -2 0 0 
8915 6 0.101211 0.385956 0.0557394 -1 2 2 
5278 5 0.823537 0.435737 0.0730075 1 1 0 
6701 5 0.328702 0.447616 0.0355377 -2 2 -4 
7408 5 0.378691 0.446022 0.0343345 0 3 2 
6262 5 0.793716 0.479795 0.0676582 -4 -4 -1 
8241 5 0.912859 0.44822 0.0740121 3 -2 0 
5355 6 0.738371 0.476126 0.0700497 1 -2 -2 
5099 6 0.0973996 0.540583 0.0430954 7 3 -1 
5303 5 0.401311 0.577342 0.0630384 0 -3 -2 
8326 5 0.233304 0.514129 0.0445158 -2 -3 2 
5972 6 0.909736 0.625768 0.0522423 -1 -4 -2 
7772 5 0.150969 0.592814 0.0370775 5 -3 -1 
8577 6 0.224475 0.64837 0.0352933 -1 0 1 
7759 6 0.410194 0.581795 0.0659374 -1 2 -3 
6952 5 0.886244 0.615613 0.0725827 2 -5 1 
6491 6 0.956162 0.616929 0.0358618 -5 1 0 
5020 6 0.547002 0.709674 0.0492948 0 -1 0 
5600 6 0.625608 0.648639 0.0406634 2 0 -1 
5769 6 0.671932 0.617611 0.0296796 -2 -2 -1 
8891 5 0.0165375 0.696898 0.0866349 0 7 0 
5685 5 0.282267 0.706733 0.0762199 -3 -1 3 
5141 5 0.535105 0.709467 0.0415216 0 4 1 
8421 6 0.501708 0.731525 0.0298332 -6 0 6 
6854 6 0.493334 0.754488 0.0426396 -3 -1 1 
8514 6 0.615387 0.734858 0.0628888 0 -4 -1 
5544 6 0.67552 0.798334 0.0262778 -2 1 6 
8608 5 0.0782301 0.730723 0.0673119 2 -6 2 
5502 6 0.150538 0.79118 0.0245077 4 -1 4 
8795 6 0.473859 0.79319 0.0320649 0 -3 3 
5414 5 0.711144 0.805052 0.0533237 -4 -2 2 
6939 6 0.833677 0.795478 0.0303362 0 2 -5 
7319 6 0.568067 0.7999 0.0619018 -1 -6 0 
8520 6 0.691063 0.80695 0.0729725 -3 -3 3 
8799 6 0.916299 0.841533 0.0762511 -1 -7 1 
6627 6 0.233079 0.805584 0.067564 -1 -4 6 
7202 5 0.927392 0.85266 0.0257506 -2 3 -1 
8083 5 0.0578006 0.88373 0.0725955 1 5 3 
8281 5 0.0590928 0.867032 0.0465151 2 6 1 
5292 6 0.14689 0.886364 0.0636047 2 1 -1 
7034 5 0.402352 0.911699 0.00432952 -5 -5 5 
6397 5 0.416474 0.872086 0.0121216 1 1 1 
8650 5 0.456858 0.895247 0.0604799 -4 4 2 
7843 5 0.522925 0.922668 0.0397831 -1 -1 -1 
7160 6 0.659368 0.86826 0.0667428 6 2 -4 
8007 5 0.0167956 0.92256 0.0863093 -3 -3 -3 
8973 6 0.046822 0.909355 0.0722217 -1 -1 2 
8072 6 0.115406 0.877173 0.0639891 0 0 2 
6217 6 0.981783 0.921773 0.0272589 -1 -4 3 
8910 6 0.124899 0.88353 0.0439679 1 2 4 
7622 5 0.0424898 0.952986 0.0714687 -3 -3 -4 
5969 6 0.920801 0.92778 0.0339362 -2 -1 -2 
6479 6 0.879667 0.94576 0.0602268 4 -1 0 
6975 5 0.959163 0.0370954 0.0518271 1 -2 2 
8084 5 0.22831 0.0126696 0.0651276 -6 0 -4 
5444 5 0.12056 0.0205321 0.104807 -3 1 -3 
6331 6 0.836816 0.053919 0.0459177 2 -1 1 
6278 6 0.35951 0.995563 0.0711597 2 -1 4 
5364 6 0.801516 0.0760493 0.100876 1 -5 -2 
8287 5 0.0955733 0.0984602 0.056227 -2 2 -1 
7989 5 0.499183 0.0808539 0.0847048 1 -2 -1 
6503 6 0.595277 0.0627213 0.0951111 1 0 4 
7470 6 0.91165 0.170164 0.0160349 0 2 1 
5495 6 0.488339 0.171989 0.06952 -4 5 4 
6080 6 0.7617 0.119499 0.0618258 -1 -2 0 
5791 6 0.87428 0.136994 0.0602059 -4 1 4 
6279 6 0.987402 0.212379 0.0680353 -2 0 -2 
5857 5 0.0828079 0.185828 0.0540098 0 1 -4 
6744 5 0.129026 0.179918 0.0818025 2 -3 2 
6802 6 0.392383 0.215628 0.0750071 -3 7 -2 
7228 5 0.422905 0.172859 0.0378768 5 -5 -2 
5384 5 0.127719 0.226153 0.0922358 -1 -3 5 
6334 5 0.683769 0.254254 0.103188 -4 0 0 
7404 6 0.96364 0.267548 0.105133 -6 5 2 
7130 6 0.292719 0.279757 0.0858768 3 1 5 
8221 6 0.702703 0.301133 0.0362158 6 -3 4 
5003 6 0.40044 0.315302 0.123184 1 -3 1 
5215 5 0.702696 0.34742 0.0472216 0 -1 -1 
5667 5 0.803741 0.362397 0.0404597 2 -2 0 
6373 5 0.341339 0.367622 0.095396 -3 4 2 
7141 6 0.376547 0.359138 0.10066 0 -4 1 
6926 6 0.540919 0.390779 0.0918453 0 0 2 
6013 6 0.784344 0.405057 0.0426019 0 -1 1 
7325 5 0.40729 0.425848 0.0739699 2 0 0 
6059 6 0.494534 0.399618 0.074724 3 -5 2 
7332 5 0.813422 0.407588 0.0698736 2 -4 0 
8892 6 0.382635 0.460781 0.059227 0 -1 2 
8334 6 0.406699 0.439704 0.0976125 0 3 0 
5556 6 0.491633 0.441429 0.0798731 4 1 0 
6069 5 0.515958 0.422003 0.0864838 2 2 2 
5161 6 0.221018 0.43637 0.0890701 2 3 -4 
7254 6 0.229991 0.44387 0.106288 5 5 -3 
8402 6 0.443914 0.476914 0.0984483 -5 2 0 
6416 6 0.674923 0.475598 0.108412 1 -2 0 
5121 5 0.726873 0.492894 0.0528603 -1 -5 3 
7829 5 0.772058 0.517817 0.0628865 3 3 1 
6834 5 0.864809 0.509287 0.0825516 0 -4 -2 
5203 6 0.0600445 0.468673 0.0644383 7 1 0 
5806 6 0.522338 0.587619 0.067716 2 4 -1 
5252 6 0.878909 0.555042 0.0839899 1 -5 2 
8319 6 0.510488 0.514066 0.0988654 -1 -3 1 
6453 5 0.104685 0.548082 0.0686812 -2 0 4 
5553 6 0.589243 0.581854 0.0639273 -3 -2 -6 
7385 5 0.289191 0.614612 0.0551474 2 0 1 
6112 6 0.293267 0.623372 0.0373135 3 1 -1 
5328 6 0.34227 0.595339 0.0793809 -6 -2 2 
8958 5 0.519775 0.61667 0.0618175 0 -3 3 
7060 5 0.614136 0.622413 0.0440931 0 1 1 
5468 6 0.402943 0.629013 0.0573647 2 2 -1 
8931 6 0.888541 0.677849 0.0798379 -4 -1 2 
7042 5 0.103239 0.659206 0.0683901 0 5 -2 
8914 6 0.177249 0.720622 0.0746122 -2 3 3 
5128 6 0.78052 0.700249 0.102673 6 0 2 
5805 6 0.274333 0.715468 0.129246 -2 -6 -6 
5559 6 0.24413 0.68289 0.0892332 3 -3 4 
6113 5 0.357957 0.743687 0.0891841 -5 1 2 
7942 5 0.42742 0.676608 0.0490705 1 -5 4 
6267 6 0.975862 0.726754 0.0647534 -3 -2 2 
7433 6 0.367405 0.763026 0.0534073 2 3 1 
7155 5 0.43847 0.749542 0.0318908 -2 2 1 
5029 6 0.539883 0.77366 0.0914846 -4 0 2 
6220 5 0.975958 0.773884 0.0422326 -2 2 5 
7868 5 0.0710827 0.800163 0.11227 0 -2 0 
5906 5 0.337792 0.799159 0.0985616 5 1 5 
5732 6 0.655111 0.760837 0.0703942 -2 4 -2 
5126 6 0.0514247 0.775687 0.0661401 1 -1 -1 
5657 6 0.100753 0.787297 0.0712715 7 0 1 
5908 5 0.103209 0.790347 0.048172 0 -3 2 
5649 5 0.648882 0.813466 0.0430058 -4 4 2 
8930 6 0.525151 0.850302 0.0696405 5 3 -7 
8981 5 0.559867 0.866424 0.122328 4 0 0 
6052 5 0.885602 0.844315 0.0916359 1 -3 5 
6299 5 0.900227 0.824415 0.10335 0 -6 -1 
5703 6 0.968042 0.849728 0.0767643 5 3 1 
7879 6 0.580968 0.875854 0.106725 -6 -2 -3 
7414 6 0.617295 0.910144 0.107168 -1 3 1 
8293 6 0.652632 0.867227 0.056732 4 3 -5 
6638 5 0.736924 0.930233 0.16699 -1 2 -1 
5760 6 0.766885 0.995312 0.0887099 -1 -2 -2 
8205 5 0.0686215 0.978876 0.0479403 1 -2 2 
8819 6 0.337543 0.972037 0.071093 -3 2 3 
8782 5 0.291032 0.9639 0.062215 -1 1 1 
6429 5 0.143638 0.0325158 0.0788263 -1 4 2 
8515 6 0.178309 0.034237 0.131051 -2 -2 0 
5110 6 0.544089 0.0203074 0.116522 3 4 3 
8465 6 0.712723 0.983467 0.123983 -3 2 0 
6468 5 0.157712 0.0170738 0.0913316 -4 2 1 
7482 5 0.163921 0.00860003 0.0520763 2 0 2 
5654 5 0.171435 0.0313063 0.114526 3 0 1 
6772 5 0.567949 0.0408167 0.116611 0 2 4 
6712 5 0.744566 0.069099 0.0923019 -2 1 -2 
7191 5 0.811742 0.0682659 0.115046 3 1 -1 
6344 5 0.171126 0.0885626 0.0569874 2 3 -2 
5863 6 0.145923 0.103963 0.110129 1 5 5 
7789 5 0.401941 0.131351 0.0842727 3 1 2 
5422 5 0.261824 0.180321 0.124353 -1 1 1 
6557 6 0.77284 0.12721 0.114465 3 -3 0 
7985 6 0.273095 0.160261 0.0592173 2 0 2 
6343 5 0.156754 0.14327 0.107864 0 6 5 
6016 5 0.279633 0.15725 0.0827052 0 -2 0 
6253 5 0.192484 0.236071 0.0798003 0 7 -4 
7207 5 0.5227 0.15877 0.126084 -2 -3 5 
7232 5 0.714473 0.185832 0.100619 -1 -1 8 
8911 6 0.93557 0.204732 0.0720281 3 1 -1 
6847 6 0.167347 0.256085 0.110158 1 -4 -1 
7962 5 0.421354 0.20712 0.0902578 0 4 0 
5302 6 0.831243 0.177806 0.0865441 2 5 -3 
6584 6 0.542663 0.289741 0.0956304 1 -8 2 
6310 5 0.856538 0.330158 0.0889075 2 -4 0 
5881 5 0.0873203 0.319765 0.113905 -4 0 3 
8788 5 0.20038 0.324143 0.0940167 -1 -6 6 
6777 5 0.41148 0.33615 0.0955679 6 4 0 
7874 6 0.527136 0.339313 0.0617731 -1 -4 -5 
5738 5 0.391417 0.37512 0.100195 -2 -1 1 
7100 5 0.0999103 0.392519 0.092651 1 4 0 
8273 5 0.18112 0.41461 0.114118 4 4 1 
7720 6 0.308535 0.362298 0.155175 -5 -5 2 
8031 6 0.396236 0.3752 0.0909421 0 -5 -2 
6601 5 0.419578 0.407475 0.118694 -1 -1 1 
7328 6 0.569437 0.45183 0.0887055 0 -4 3 
6951 6 0.492814 0.495065 0.110428 -2 5 2 
5640 5 0.657307 0.426405 0.101624 -1 4 2 
7387 5 0.185283 0.499555 0.0921012 -2 -1 4 
6572 6 0.388112 0.533976 0.122545 1 -7 -3 
8366 6 0.465642 0.510304 0.062525 -1 -7 5 
6622 5 0.930347 0.512182 0.0470146 0 -2 -3 
8621 5 0.920827 0.534929 0.117115 -2 -1 5 
6839 6 0.529533 0.597436 0.113087 1 4 -3 
6140 6 0.0423714 0.585513 0.0906027 4 1 -3 
5245 6 0.306525 0.598102 0.119703 -4 2 3 
8062 6 0.347867 0.544129 0.0669206 0 -1 -2 
8164 6 0.375021 0.583398 0.110427 0 1 -2 
7475 6 0.868479 0.554244 0.0756466 -5 2 -1 
6870 5 0.267215 0.584296 0.105309 1 -1 -1 
7117 5 0.499748 0.599958 0.0923163 1 -2 -1 
6061 5 0.731825 0.60753 0.147829 1 -2 -2 
5145 5 0.941287 0.585544 0.0651902 0 -2 -4 
7169 6 0.551015 0.60345 0.103579 3 6 2 
7605 5 0.505313 0.642649 0.0556577 2 -1 2 
7436 6 0.57151 0.628912 0.139919 1 -4 -1 
5049 5 0.14797 0.661381 0.0928954 3 -2 -1 
5645 5 0.235079 0.67426 0.092137 8 2 5 
6857 6 0.47308 0.663031 0.0851227 3 0 1 
6805 6 0.811279 0.719224 0.116861 0 0 -1 
7685 6 0.533272 0.716745 0.0731616 2 -3 2 
6413 5 0.644524 0.74252 0.109524 -2 1 -2 
8217 5 0.646475 0.770063 0.146858 4 -10 4 
7047 6 0.948635 0.752674 0.142892 4 2 -4 
8184 5 0.421217 0.758226 0.116145 -2 -1 2 
6048 6 0.61362 0.854561 0.120267 4 -2 2 
7662 6 0.779598 0.815385 0.0810789 -3 -4 -1 
5727 6 0.902983 0.823553 0.0585178 -2 -2 -4 
6825 6 0.166984 0.829168 0.109787 -3 -3 3 
7816 5 0.164206 0.869873 0.0704082 1 -2 0 
6212 5 0.995373 0.900431 0.124217 4 3 1 
7771 5 0.894311 0.872364 0.0735751 0 -4 4 
7124 6 0.353036 0.905454 0.0800002 4 3 1 
6054 6 0.368528 0.895821 0.0873132 3 -2 2 
6957 6 0.684106 0.920555 0.0877235 -2 -1 7 
8380 5 0.729652 0.949738 0.0931383 0 -2 2 
8582 5 0.935103 0.911961 0.1531 2 -1 4 
6345 5 0.00243917 0.995647 0.102994 0 2 3 
7139 6 0.37564 0.962701 0.120182 3 -7 2 
8615 5 0.353645 0.995707 0.114546 3 5 -1 
7302 6 0.724471 0.00821582 0.0968606 -2 3 -1 
5984 6 0.369199 0.0250404 0.139997 0 2 3 
7291 5 0.395944 0.0224438 0.133704 3 3 -3 
6401 5 0.557851 0.0200795 0.152509 2 0 2 
7541 6 0.304695 0.0152997 0.117453 1 8 0 
8112 6 0.440851 0.0655239 0.101531 -2 -1 2 
5154 6 0.705407 0.0611182 0.122614 1 0 0 
7402 5 0.822916 0.04168 0.132585 0 -3 5 
5824 5 0.545651 0.0995256 0.0973143 3 0 2 
6406 6 0.210591 0.077265 0.114221 0 2 -3 
7235 6 0.65328 0.0967908 0.161649 1 6 -6 
5633 5 0.96348 0.125012 0.110077 -2 -5 2 
7214 6 0.582946 0.160462 0.142433 3 2 -4 
5282 5 0.77676 0.187046 0.181869 -1 0 -1 
7690 5 0.0799566 0.194916 0.144149 -3 1 2 
6787 6 0.175523 0.248652 0.126638 1 0 0 
5438 6 0.274826 0.223797 0.134721 1 0 0 
6565 6 0.935061 0.220623 0.102112 -2 0 0 
5492 6 0.00779859 0.193934 0.120974 -1 6 -1 
5621 5 0.536756 0.269209 0.0947864 2 -5 -1 
5604 5 0.397577 0.278311 0.102928 2 2 -3 
8477 6 0.525975 0.309712 0.128506 -1 -1 0 
6804 6 0.684727 0.311388 0.155389 1 1 5 
7096 5 0.245253 0.385109 0.106774 -2 2 -5 
7147 6 0.622246 0.359174 0.131634 3 0 3 
7774 5 0.723412 0.348166 0.126876 0 0 2 
6538 6 0.605773 0.416149 0.128643 2 5 1 
7687 5 0.743509 0.364772 0.0949199 1 -2 3 
6441 6 0.0284935 0.402688 0.132318 4 -2 4 
6085 6 0.547871 0.370488 0.123791 1 6 -6 
6435 6 0.583952 0.412053 0.127443 -2 4 1 
5363 5 0.679478 0.498804 0.127756 -1 1 4 
8133 5 0.810425 0.476187 0.142237 0 1 -3 
8712 6 0.0781039 0.474621 0.0927719 10 -5 0 
6916 5 0.694146 0.475588 0.123772 0 -2 1 
5009 5 0.799377 0.552311 0.107363 -9 8 -2 
8512 5 0.444135 0.498184 0.102619 0 -2 -1 
5549 6 0.469121 0.541108 0.152796 1 -4 2 
7355 5 0.779414 0.567526 0.113426 2 -3 0 
5648 6 0.417949 0.588071 0.170361 0 3 -5 
7429 6 0.906673 0.587232 0.122078 0 -1 2 
7967 6 0.958293 0.611118 0.163962 -5 0 -3 
7756 5 0.0868602 0.583282 0.128655 3 -1 0 
6258 6 0.262527 0.604354 0.137004 -4 5 3 
6754 5 0.525797 0.6144 0.0804173 -5 0 -1 
8186 6 0.85619 0.607483 0.113376 0 -7 1 
8724 5 0.0651294 0.613371 0.133993 -3 0 4 
5909 6 0.546564 0.61542 0.112891 0 1 3 
7446 6 0.376485 0.649467 0.155353 1 -2 -1 
5850 5 0.192924 0.646291 0.123093 -3 -1 1 
8352 6 0.246723 0.632835 0.127321 -1 1 4 
8715 6 0.0423844 0.677733 0.0763359 4 -3 2 
5801 6 0.649494 0.673298 0.112011 -1 3 4 
5706 5 0.175434 0.726278 0.15628 1 -3 -3 
7803 5 0.172955 0.710387 0.138243 2 -5 -4 
7815 6 0.45464 0.740568 0.110271 2 4 -3 
8567 5 0.621855 0.712626 0.146359 2 -3 2 
5188 5 0.637388 0.727397 0.144111 4 -1 5 
5247 5 0.457667 0.744735 0.139857 -1 2 -4 
7463 5 0.567653 0.791301 0.108964 0 1 -3 
5682 6 0.973986 0.78305 0.15779 5 -1 3 
7110 6 0.0880921 0.827631 0.102492 -3 2 -6 
6238 6 0.0669837 0.817458 0.147418 -1 -2 3 
8589 5 0.348375 0.800824 0.155997 1 4 -3 
7984 6 0.347427 0.777579 0.167723 -1 -3 2 
8065 5 0.423745 0.806257 0.126406 -3 -4 0 
8679 5 0.582296 0.788748 0.122992 -5 -1 -2 
8368 5 0.860072 0.841641 0.109009 -1 -2 2 
8649 6 0.887832 0.862 0.120166 -2 3 0 
5849 5 0.161273 0.852664 0.10951 -1 -2 2 
5960 6 0.888135 0.880511 0.136247 3 -3 -4 
8899 6 0.237881 0.915055 0.110881 -3 0 0 
6905 5 0.853001 0.933971 0.147902 0 -2 -4 
6981 5 0.494627 0.943003 0.0896178 1 1 2 
8036 5 0.766139 0.886161 0.129649 5 -2 1 
6534 6 0.267802 0.977427 0.160196 -6 -2 -1 
6001 5 0.882806 0.974054 0.127461 -4 -3 5 
6123 5 0.112476 0.994644 0.0874308 -2 -3 2 
6485 6 0.147428 0.963508 0.131526 0 2 -1 
7018 5 0.486606 1.00006 0.106971 4 -3 -1 
8279 6 0.647571 0.0458011 0.124281 -6 5 1 
6028 6 0.182644 0.0176922 0.128376 -2 -4 7 
8594 5 0.729712 -0.000428619 0.108745 -4 -4 -2 
8988 6 0.353538 0.0609923 0.175389 1 2 0 
5340 6 0.51154 0.0059538 0.140174 1 -2 -2 
6045 6 0.992464 0.968386 0.139388 -2 -2 2 
6921 6 0.0268896 0.104753 0.152252 4 -4 -2 
8132 6 0.0325569 0.10653 0.185404 3 5 6 
8214 6 0.437159 0.0361711 0.134579 4 1 -5 
7422 5 0.879004 0.0459108 0.150394 1 0 4 
6516 5 0.928275 0.0403753 0.118333 -1 -4 0 
8738 5 0.95579 0.0305469 0.146163 -1 4 -2 
6648 6 0.19689 0.0390634 0.145761 -2 2 0 
5119 5 0.523795 0.0694445 0.153872 2 1 4 
7142 5 0.970852 0.0868912 0.154718 0 -1 0 
8776 6 0.976539 0.164101 0.154174 -1 0 -5 
8190 6 0.513048 0.13537 0.11242 1 -3 -2 
8970 6 0.945619 0.0964663 0.188122 0 1 -2 
6445 5 0.163216 0.12528 0.145592 2 4 2 
5721 6 0.668544 0.233572 0.165412 1 -1 0 
8346 6 0.682767 0.201312 0.178538 1 2 0 
5222 6 0.978867 0.195761 0.147074 -1 1 2 
8805 5 0.588767 0.209503 0.155634 -4 0 2 
6883 6 0.013825 0.245149 0.114373 -1 3 1 
5488 6 0.180894 0.203458 0.140582 0 -1 1 
5082 6 0.208607 0.236947 0.130537 -3 -5 4 
5922 5 0.467284 0.287159 0.143646 1 3 3 
7768 5 0.920814 0.279085 0.138792 5 1 1 
7041 5 0.18678 0.243354 0.145275 -1 -2 -3 
5268 5 0.406025 0.347043 0.138154 1 5 1 
7524 6 0.206622 0.31939 0.162463 -1 3 3 
7593 6 0.36546 0.33048 0.184114 1 1 0 
5107 6 0.989377 0.351941 0.117646 -3 1 0 
8121 6 0.305339 0.37974 0.155343 0 -1 -4 
7522 6 0.617113 0.360439 0.146414 2 7 0 
5100 5 0.952264 0.362117 0.148224 3 2 3 
8841 6 0.574745 0.385887 0.159999 -1 -2 3 
8989 6 0.66634 0.33924 0.153233 -3 -2 -2 
5399 6 0.87015 0.389309 0.142271 2 2 0 
6008 5 0.932871 0.39385 0.15301 -5 -5 2 
7171 5 0.18648 0.378407 0.142166 2 -2 -4 
7926 5 0.866325 0.390131 0.130845 -1 0 1 
6920 6 0.383073 0.416313 0.145096 1 0 2 
2903 1 0.528791 0.43478 0.149381 0 0 0 
2901 1 0.531643 0.434725 0.141846 0 0 0 
2902 1 0.528782 0.439332 0.144828 0 0 0 
2904 1 0.530518 0.439845 0.152662 0 0 0 
2906 1 0.528117 0.4352 0.157498 0 0 0 
2905 1 0.533676 0.434567 0.15491 0 0 0 
2891 1 0.560423 0.432809 0.155446 0 0 0 
2887 1 0.570213 0.431871 0.155164 0 0 0 
3125 1 0.59829 0.430277 0.148613 0 0 0 
3123 1 0.603086 0.424707 0.148328 0 0 0 
3122 1 0.606015 0.423584 0.154401 0 0 0 
3121 1 0.599372 0.423849 0.15475 0 0 0 
3124 1 0.603866 0.429894 0.151934 0 0 0 
3126 1 0.598563 0.43508 0.152349 0 0 0 
3097 2 0.617748 0.432977 0.166796 0 0 0 
3098 1 0.617616 0.426371 0.167319 0 0 0 
6126 6 0.756222 0.397303 0.14915 3 -2 -4 
2345 1 0.499109 0.461256 0.147505 0 0 0 
2341 1 0.501285 0.449465 0.148386 0 0 0 
2339 1 0.506826 0.447386 0.144677 0 0 0 
2336 1 0.516589 0.452561 0.144803 0 0 0 
2340 1 0.503437 0.452436 0.143134 0 0 0 
2342 1 0.496033 0.450683 0.145293 0 0 0 
7586 5 0.537163 0.447629 0.143245 5 0 0 
2344 1 0.497051 0.457304 0.143152 0 0 0 
2338 1 0.510111 0.451395 0.141115 0 0 0 
2337 1 0.513782 0.446955 0.144192 0 0 0 
2334 1 0.523497 0.452654 0.145539 0 0 0 
2333 1 0.525245 0.449487 0.150979 0 0 0 
2335 1 0.520157 0.447639 0.146497 0 0 0 
2332 1 0.530403 0.450175 0.146976 0 0 0 
2331 1 0.529673 0.455272 0.151091 0 0 0 
2899 1 0.538536 0.434676 0.143575 0 0 0 
2900 1 0.535245 0.440247 0.14275 0 0 0 
2898 1 0.541797 0.439391 0.14573 0 0 0 
2330 1 0.53268 0.450942 0.15416 0 0 0 
2329 1 0.536755 0.456271 0.154167 0 0 0 
2328 1 0.536873 0.453247 0.148554 0 0 0 
2327 1 0.542082 0.456592 0.148602 0 0 0 
2326 1 0.542469 0.452612 0.143024 0 0 0 
2896 1 0.544452 0.432128 0.145823 0 0 0 
2897 1 0.545478 0.437199 0.141469 0 0 0 
2889 1 0.565914 0.436811 0.152358 0 0 0 
2895 1 0.550604 0.432469 0.143695 0 0 0 
2894 1 0.55024 0.436064 0.149122 0 0 0 
2893 1 0.554876 0.43194 0.149664 0 0 0 
2892 1 0.555047 0.436047 0.154438 0 0 0 
2890 1 0.561797 0.438847 0.157045 0 0 0 
2832 1 0.548683 0.448877 0.156697 0 0 0 
2831 1 0.548625 0.453738 0.160461 0 0 0 
2199 1 0.598725 0.458912 0.149877 0 0 0 
2888 1 0.568863 0.437698 0.158084 0 0 0 
2886 1 0.567469 0.430777 0.160536 0 0 0 
3132 1 0.581437 0.440266 0.159633 0 0 0 
2196 1 0.59182 0.462104 0.153548 0 0 0 
8576 5 0.579227 0.44058 0.151174 -2 -3 -2 
3129 1 0.590257 0.437937 0.156971 0 0 0 
3128 1 0.593073 0.440826 0.152157 0 0 0 
2201 1 0.603661 0.460772 0.143882 0 0 0 
3130 1 0.585794 0.441037 0.153601 0 0 0 
3131 1 0.586232 0.444607 0.158844 0 0 0 
3127 1 0.59222 0.43455 0.150835 0 0 0 
3092 1 0.608999 0.448369 0.150235 0 0 0 
3094 1 0.614021 0.444359 0.154366 0 0 0 
3095 1 0.612145 0.440317 0.158976 0 0 0 
8623 5 0.603387 0.453944 0.146932 -5 -1 0 
3091 1 0.606099 0.453392 0.153474 0 0 0 
3093 1 0.609092 0.447794 0.156695 0 0 0 
3096 2 0.612865 0.435996 0.163983 0 0 0 
8074 5 0.75565 0.46043 0.142333 0 7 2 
7932 5 0.299495 0.469828 0.183283 -1 -2 -3 
2351 1 0.492276 0.470565 0.157533 0 0 0 
2347 1 0.494837 0.465823 0.15111 0 0 0 
2348 1 0.491008 0.467657 0.14638 0 0 0 
2349 1 0.488276 0.468362 0.15234 0 0 0 
2343 1 0.497021 0.455142 0.149364 0 0 0 
2386 1 0.514231 0.466138 0.151733 0 0 0 
2384 1 0.518387 0.472562 0.153011 0 0 0 
2350 1 0.493047 0.472941 0.151518 0 0 0 
2346 1 0.492747 0.460885 0.147702 0 0 0 
2388 1 0.512557 0.467916 0.159137 0 0 0 
2389 1 0.516308 0.470319 0.163483 0 0 0 
2387 1 0.518536 0.466578 0.156634 0 0 0 
2390 2 0.519438 0.473136 0.168074 0 0 0 
2381 1 0.515519 0.479885 0.14579 0 0 0 
2382 1 0.513528 0.473624 0.148059 0 0 0 
2385 1 0.519715 0.467689 0.149057 0 0 0 
2383 1 0.519897 0.474811 0.146982 0 0 0 
2352 1 0.498148 0.472605 0.157325 0 0 0 
2325 1 0.541757 0.458884 0.141349 0 0 0 
2324 1 0.536338 0.457391 0.143497 0 0 0 
2322 1 0.530797 0.462422 0.145025 0 0 0 
2321 1 0.534797 0.46228 0.150395 0 0 0 
2320 1 0.528584 0.462931 0.151936 0 0 0 
2323 1 0.537308 0.463881 0.144014 0 0 0 
2830 2 0.547562 0.459784 0.161706 0 0 0 
2828 2 0.545057 0.472512 0.163015 0 0 0 
2198 1 0.598984 0.463124 0.15473 0 0 0 
2206 1 0.606213 0.470791 0.145936 0 0 0 
2208 1 0.600515 0.475849 0.147834 0 0 0 
2197 1 0.595393 0.457809 0.156326 0 0 0 
5883 6 0.618799 0.476895 0.155053 -1 4 -2 
2200 1 0.604744 0.460889 0.15044 0 0 0 
2207 1 0.606039 0.477284 0.145067 0 0 0 
2205 1 0.611265 0.472146 0.143024 0 0 0 
2204 1 0.612057 0.466853 0.146889 0 0 0 
2203 1 0.609438 0.464652 0.141406 0 0 0 
2202 1 0.609687 0.459325 0.145654 0 0 0 
2213 1 0.601475 0.4731 0.162172 0 0 0 
8918 6 0.837203 0.463142 0.138255 1 1 -2 
5521 6 0.968213 0.440276 0.151963 1 -1 -7 
7551 5 0.19647 0.45482 0.0996869 0 5 -3 
7861 5 0.480445 0.482195 0.171767 -1 -7 0 
2378 1 0.517645 0.485995 0.15214 0 0 0 
2377 1 0.515684 0.484296 0.158104 0 0 0 
2380 1 0.512233 0.480395 0.151332 0 0 0 
2379 1 0.518312 0.479741 0.15266 0 0 0 
2376 1 0.521328 0.488812 0.157899 0 0 0 
2374 1 0.518317 0.492282 0.163483 0 0 0 
2373 1 0.515098 0.490163 0.168915 0 0 0 
2375 1 0.51897 0.486096 0.163333 0 0 0 
2210 1 0.598057 0.479982 0.153807 0 0 0 
2209 1 0.60368 0.480277 0.150629 0 0 0 
2211 1 0.602869 0.47845 0.157318 0 0 0 
2212 1 0.597604 0.478756 0.160993 0 0 0 
6668 5 0.825163 0.489057 0.147022 -1 1 4 
8903 6 0.187954 0.551934 0.142392 5 -2 2 
2494 1 0.53889 0.503844 0.156764 0 0 0 
2490 1 0.539905 0.514701 0.148968 0 0 0 
2488 1 0.543245 0.52045 0.152482 0 0 0 
2489 1 0.546702 0.515798 0.150496 0 0 0 
6072 5 0.0578951 0.553382 0.152985 1 5 2 
8453 5 0.371371 0.523294 0.15755 3 5 2 
6009 6 0.383832 0.509827 0.14278 2 -3 0 
6276 6 0.492387 0.552249 0.114701 0 4 1 
8165 5 0.472547 0.56207 0.17444 -2 3 1 
8839 6 0.148215 0.60629 0.136957 2 -5 3 
7734 5 0.294466 0.596076 0.141301 0 1 2 
6058 6 0.514294 0.609433 0.174791 0 2 -3 
8315 6 0.0459059 0.59156 0.1776 -4 3 0 
6417 6 0.341025 0.647083 0.140143 2 -2 0 
5447 6 0.633154 0.657974 0.144904 4 -1 2 
5711 6 0.661571 0.651346 0.153133 -1 0 -4 
8230 6 0.348198 0.667413 0.171066 1 0 -1 
8009 6 0.0493303 0.675216 0.158964 2 -2 -3 
8548 6 0.384671 0.661214 0.16174 3 -2 4 
5501 5 0.769677 0.670103 0.110427 -2 3 0 
7071 6 0.0778909 0.686359 0.147665 1 -2 0 
7656 6 0.106603 0.672533 0.124286 0 -1 4 
6096 5 0.316567 0.721381 0.190227 5 -3 2 
6587 6 0.673417 0.691683 0.143215 -3 -4 -1 
6732 6 0.794462 0.693847 0.157093 3 -2 -2 
5652 6 0.0634953 0.704372 0.108617 1 1 -2 