ITEM: TIMESTEP
20000000
ITEM: NUMBER OF ATOMS
9000
ITEM: BOX BOUNDS pp pp pp
-75 75
-75 75
-75 75
ITEM: ATOMS id type xs ys zs ix iy iz 
6235 6 0.110446 0.0289824 0.0395752 -1 3 0 
8342 5 0.365909 0.0119158 0.0484111 1 2 1 
8844 6 0.637816 0.00813338 0.00545353 -1 -4 -2 
7223 6 0.0346852 0.10089 0.0304732 0 -3 0 
8846 5 0.807052 0.0680156 0.997717 -2 5 0 
6930 6 0.896747 0.0475406 0.980929 -5 -2 0 
6269 6 0.0449361 0.0869489 0.0116287 4 1 -3 
8843 6 0.356829 0.0890725 0.00448032 -5 -2 -3 
7816 6 0.0271941 0.161209 0.0235297 0 3 -3 
8278 5 0.669788 0.176726 0.996862 2 -4 -3 
8689 6 0.309102 0.224254 0.0125561 -2 2 5 
5370 6 0.49964 0.210403 0.0160049 3 0 4 
5022 6 0.99831 0.251884 0.0203074 -2 4 -4 
8981 6 0.156577 0.257429 0.0140473 6 -3 -1 
5580 6 0.747626 0.250751 0.966893 3 4 -1 
6973 5 0.0571227 0.292355 0.0280766 -5 2 -4 
5464 5 0.231769 0.2461 0.998907 1 5 1 
6641 5 0.560111 0.280436 0.0168773 3 -1 -1 
5168 6 0.818982 0.278165 0.98522 -3 1 -4 
8994 6 0.972675 0.333701 0.994602 -4 -3 5 
6257 5 0.232821 0.310547 0.0117157 1 -1 -4 
8589 6 0.676022 0.288944 0.0605624 1 1 1 
7418 6 0.144594 0.318487 0.996081 1 2 -2 
5803 5 0.803511 0.351819 0.0111629 2 1 0 
6897 6 0.897739 0.357592 0.0127993 2 -5 -2 
7609 5 0.122139 0.44674 -0.000178069 -1 0 -2 
6475 6 0.114338 0.428096 0.0116099 2 -2 1 
5765 6 0.116856 0.410088 0.973025 2 1 6 
5010 5 0.18394 0.423175 0.0245077 0 0 1 
8639 6 0.729068 0.457025 0.0375065 -2 3 2 
8636 5 0.0656633 0.450296 0.994885 2 3 -6 
5317 5 0.559329 0.433674 0.000189108 -3 -4 3 
8449 6 0.563229 0.458642 0.992744 1 -1 -3 
5192 5 0.550948 0.439089 0.0109369 1 -1 1 
8521 5 0.585178 0.454178 0.968378 2 0 1 
5341 5 0.637701 0.480029 0.022408 -6 4 -2 
6887 5 0.0366892 0.456875 0.038828 2 1 5 
6706 6 0.146554 0.470274 0.0194795 2 1 4 
6692 5 0.27785 0.50959 0.0161443 1 -1 2 
7481 5 0.257899 0.534682 0.0231684 -2 -3 1 
8065 6 0.060113 0.567451 0.98855 1 3 -2 
5264 6 0.712326 0.590988 0.00791947 3 -1 1 
5730 5 0.846296 0.549966 0.9918 -6 -6 -6 
6205 6 0.119646 0.555742 0.0394361 0 0 1 
5847 6 0.495316 0.578902 0.0394365 3 1 4 
5550 6 0.656264 0.554817 0.0136554 5 0 3 
8275 5 0.765351 0.590265 0.0589088 -2 1 3 
6793 5 0.228192 0.575966 0.0205826 -4 5 -2 
5428 5 0.232846 0.581328 0.971648 -3 2 -2 
6581 6 0.685704 0.622907 0.999045 4 -2 1 
5044 6 0.937584 0.633847 0.0101659 -2 -3 4 
5583 6 0.0188714 0.629692 0.990311 0 2 -7 
5105 5 0.337829 0.662623 0.0101124 -3 -2 -2 
7724 6 0.452645 0.621664 0.0409519 -3 1 4 
5958 6 0.59924 0.652644 0.992461 4 5 2 
5067 5 0.986171 0.647869 0.044273 2 1 2 
8014 5 0.0576784 0.693971 0.0172043 -2 -4 4 
6305 6 0.389625 0.706089 0.990809 2 -4 3 
7852 5 0.332018 0.721717 0.0511808 0 8 -1 
6855 6 0.340176 0.69853 0.985154 -4 1 5 
8950 5 0.118335 0.732873 0.0101314 3 0 -1 
6614 5 0.710995 0.794109 0.00328717 3 -2 -3 
8072 5 0.734237 0.780935 0.00500436 4 -1 -2 
7473 5 0.888602 0.78335 0.0432732 -4 -4 2 
7258 5 0.86112 0.795628 0.969405 -3 1 0 
8436 6 0.467052 0.828891 0.0367671 -1 -8 -6 
7610 6 0.527687 0.797973 0.0105801 0 -1 0 
8699 6 0.561636 0.817071 0.020907 6 0 -1 
5748 6 0.717139 0.858254 0.990901 -1 -2 0 
7947 5 0.84079 0.816172 0.0109835 0 1 -1 
7703 6 0.476854 0.87053 0.0198561 0 5 1 
5469 5 0.817391 0.866446 0.0338861 -2 -3 3 
6139 6 0.0678045 0.81119 0.032457 0 -5 -1 
5397 5 0.864668 0.878777 0.0101827 3 1 3 
5235 6 0.397009 0.908482 0.025098 1 -6 -1 
5258 6 0.429544 0.944605 0.0430826 3 4 1 
8363 6 0.240803 0.993586 0.0177315 1 3 -4 
7965 6 0.00120844 0.966111 0.956615 3 -2 1 
7104 5 0.463597 0.0377103 0.0250061 1 -6 3 
8523 5 0.00303609 0.0323269 0.00438611 -2 4 1 
5733 5 0.703797 0.0424727 0.0369256 1 4 2 
5325 6 0.00395858 0.0489758 0.0436596 -2 1 -3 
7346 6 0.0992026 0.132208 0.0431042 -3 -3 -2 
6380 6 0.864011 0.110606 0.9902 0 -1 -1 
7700 5 0.928614 0.124388 0.0195841 0 -2 3 
5418 5 0.669321 0.117057 0.025828 1 -3 -3 
5362 6 0.0658237 0.206325 0.0440886 0 2 3 
7170 6 0.111312 0.178861 0.00754697 0 -3 -3 
5641 5 0.324597 0.218606 0.080567 0 3 1 
5350 5 0.344759 0.19399 0.0204881 -2 -4 2 
8268 5 0.547311 0.231888 0.0321857 1 1 -2 
7726 6 0.191279 0.22042 0.0360705 -4 1 -1 
5299 5 0.713811 0.273977 0.0562392 1 5 0 
6829 5 0.359421 0.232914 0.0119678 -3 -1 2 
5894 5 0.852745 0.251355 0.0488846 -3 -6 -1 
6984 5 0.339655 0.320254 0.0225287 -4 0 0 
7463 5 0.518505 0.337199 0.993651 -4 -4 -8 
5774 5 0.874322 0.327969 0.0311364 1 1 0 
5180 5 0.34979 0.336792 0.0167997 -2 -3 3 
7836 6 0.494315 0.371887 0.00978926 -1 7 4 
8221 5 0.587156 0.330208 0.0101895 3 2 1 
5212 5 0.807239 0.34083 0.0335123 1 0 0 
6048 6 0.131783 0.352239 0.0356758 0 2 -3 
6494 6 0.0698588 0.408988 0.016709 0 0 4 
5242 5 0.682583 0.431699 0.00881335 0 -2 -2 
6722 6 0.12289 0.45465 0.0446682 5 1 -1 
5767 6 0.896992 0.502431 0.0072075 -1 -2 -1 
5175 6 0.564339 0.486416 0.0638423 -2 5 3 
5832 5 0.58725 0.481245 0.0529593 -4 -1 3 
6951 5 0.925991 0.528292 0.0455907 -4 0 3 
8201 6 0.440056 0.496141 0.0444925 1 0 -1 
8146 5 0.44013 0.535399 0.00651392 1 -2 3 
5785 5 0.292417 0.53805 0.0181313 2 -2 1 
8552 5 0.372085 0.539628 0.0718582 2 3 4 
8333 6 0.90089 0.58675 0.0143368 4 2 -4 
5578 6 0.606646 0.587564 0.0343307 -1 3 -2 
7023 5 0.273855 0.616963 0.0397807 0 3 0 
7679 6 0.869604 0.65093 0.998492 -4 4 -2 
7888 5 0.663369 0.62125 0.00464946 4 1 0 
8889 6 0.758459 0.651585 0.0582016 3 0 3 
5447 6 0.420072 0.67077 0.042082 0 0 0 
8635 5 0.939385 0.663801 0.043592 7 3 0 
6963 5 0.635105 0.642179 0.999276 0 0 -1 
7026 6 0.801402 0.717253 0.0317189 1 -3 1 
6286 6 0.60924 0.722927 0.0409243 -2 0 0 
5172 6 0.782575 0.742996 0.0348397 -4 4 -4 
7004 5 0.48098 0.778781 0.0455899 6 1 -3 
8432 5 0.619402 0.777637 0.0424058 2 1 -3 
6226 6 0.0622521 0.773875 0.0387449 1 4 1 
7138 6 0.201512 0.81084 0.0333227 0 4 0 
7754 5 0.756069 0.774216 0.0244338 1 -4 5 
6369 6 0.802818 0.80959 0.998053 3 0 0 
6043 6 0.27438 0.861383 0.0108095 2 -2 0 
6280 5 0.337805 0.86842 0.0396039 0 -1 -2 
5961 6 0.155784 0.942468 0.0311377 -3 -2 -4 
8726 5 0.375045 0.926912 0.0378497 -1 4 -1 
8314 6 0.593505 0.905467 0.0371874 0 -6 1 
7121 6 0.0198438 0.945258 0.0284285 0 -4 -4 
7870 6 0.233569 0.939937 0.0636061 2 -5 0 
8456 5 0.474713 0.980559 0.0443395 -5 -6 1 
5817 6 0.679601 0.937187 0.0364825 -2 -3 4 
5376 6 0.00171553 0.965714 0.0372524 4 -2 0 
7787 5 0.0649161 0.977398 0.0486454 5 -1 -1 
7193 5 0.6566 0.986526 0.106559 1 -1 -1 
6067 5 0.850844 0.0053306 0.0508841 -3 -2 4 
8349 5 0.159323 0.0559072 0.0387408 2 1 2 
5763 5 0.657387 0.0241524 0.0750257 -6 0 3 
8397 6 0.815381 0.030209 0.0725217 -2 2 1 
7322 5 0.0364471 0.0857455 0.0679046 4 4 2 
7333 5 0.149379 0.0494009 0.0311011 6 1 1 
8175 5 0.858207 0.0508032 0.0741307 0 1 1 
7649 6 0.9171 0.0912773 0.0446085 -3 4 1 
7449 5 0.228981 0.0857786 0.103322 -2 -4 -1 
8512 5 0.447291 0.0858607 0.0594414 -1 -2 6 
7417 6 0.613417 0.106454 0.0440572 -2 3 -6 
5199 5 0.767291 0.167391 0.0644842 -3 2 2 
8440 5 0.592073 0.104358 0.0416166 -1 4 0 
7325 6 0.624037 0.185313 0.0249442 5 0 -3 
5340 6 0.889593 0.171559 0.0670369 -4 3 5 
6622 6 0.496512 0.223578 0.0955739 0 4 -4 
7394 6 0.56722 0.127076 0.0418474 1 -1 2 
6175 6 0.933846 0.229934 0.0628236 -1 8 -1 
6371 6 0.311678 0.273931 0.0342536 0 2 6 
6949 6 0.900599 0.213051 0.0728551 -1 6 -2 
5630 6 0.0237335 0.243925 0.987481 3 2 0 
6783 5 0.135403 0.249772 0.0809599 0 -1 2 
6585 5 0.338546 0.234174 0.0717142 -6 -2 -1 
5526 6 0.0629764 0.337418 0.119994 1 -1 2 
7006 6 0.387689 0.307897 0.0523864 7 0 -3 
7012 5 0.724517 0.32764 0.0447546 1 -2 -1 
6645 6 0.631571 0.329796 0.102536 -7 3 5 
8567 6 0.595276 0.341407 0.0395682 -2 1 -4 
8710 6 0.670526 0.373219 0.0283907 -1 3 1 
8807 6 0.802972 0.390677 0.07356 2 -2 2 
8935 6 0.147537 0.419563 0.0225908 0 5 -1 
6218 5 0.587393 0.401601 0.0482502 1 -2 3 
5108 5 0.149462 0.403706 0.0337976 0 -1 4 
8219 5 0.280055 0.410603 0.0362481 1 -2 -4 
5812 5 0.929378 0.420235 0.0606849 -4 3 2 
7049 6 0.182814 0.445832 0.0155124 0 1 3 
8985 6 0.221086 0.443969 0.101281 -4 5 1 
8586 5 0.374468 0.43569 0.0157268 0 1 7 
8324 5 0.654752 0.438796 0.0127925 3 -2 1 
7216 5 0.458397 0.498101 0.0381637 -1 -1 -2 
6184 6 0.155019 0.529227 0.0584222 7 0 0 
6030 5 0.35946 0.494764 0.0119334 1 -1 -4 
5948 6 0.601825 0.527302 0.0620429 -2 0 4 
5433 5 0.297846 0.550266 0.0518651 0 1 1 
6710 6 0.439188 0.540682 0.0721411 0 -7 -1 
6603 6 0.493509 0.564016 0.046323 -6 0 -2 
8856 5 0.730421 0.590506 0.0758755 -5 3 3 
8896 6 0.948227 0.637455 0.0588891 2 0 -1 
7041 5 0.304596 0.608697 0.0592894 2 -3 3 
8921 6 0.382069 0.632679 0.0649922 3 -1 -1 
7222 5 0.878577 0.61193 0.0663908 -4 3 2 
5379 6 0.284321 0.644287 0.0224715 -2 0 0 
5925 6 0.586563 0.599293 0.0141529 0 -1 4 
5696 6 0.523647 0.648201 0.0112194 -2 -2 6 
8299 6 0.261857 0.711077 0.0878471 -1 1 2 
6438 5 0.881106 0.749107 0.0818108 -2 0 -4 
7469 6 0.500443 0.717711 0.0812382 2 3 3 
6517 5 0.376967 0.707391 0.0474142 2 -3 -1 
5256 6 0.567717 0.721584 0.0807871 0 -4 -2 
5155 5 0.595859 0.745107 0.0520513 4 -1 2 
6981 5 0.104233 0.826527 0.0208617 -5 -5 0 
8093 6 0.923179 0.864851 0.0503307 -5 1 8 
8204 6 0.557238 0.841438 0.0268364 -3 2 6 
7081 5 0.647013 0.85798 0.0824915 0 -5 -2 
6543 6 0.775128 0.874127 0.115708 1 -2 -1 
6649 6 0.699137 0.873982 0.0477063 0 -4 -1 
6239 6 0.110271 0.87259 0.055414 -2 -2 4 
8121 5 0.31515 0.926185 0.0681082 -1 -4 1 
6626 5 0.42426 0.893851 0.0552622 -4 -4 2 
6074 5 0.125442 0.89498 0.0746544 0 -3 3 
7229 6 0.501833 0.979154 0.0447996 -4 -5 2 
8441 5 0.649174 0.974422 0.0599844 -1 -5 1 
8830 6 0.293733 0.968992 0.0415578 5 3 3 
6372 6 0.440143 0.987556 0.034187 0 -1 -5 
6769 6 0.0769906 0.0260925 0.0870423 1 -2 3 
7804 5 0.0947644 0.0171202 0.124878 1 0 -1 
8181 5 0.0643371 0.0526051 0.0562576 1 2 4 
8119 6 0.517683 0.0313038 0.0911207 -1 -1 -2 
5633 6 0.577329 0.0539762 0.102888 -4 0 -3 
8164 5 0.621709 0.0850878 0.100381 -6 1 3 
5593 5 0.733116 0.14038 0.108776 -2 -6 2 
8731 6 0.805334 0.0726952 0.0905955 -1 0 -2 
5710 5 0.871664 0.118689 0.0879123 1 2 -1 
8214 6 0.90825 0.108402 0.0659091 4 -1 -1 
8158 6 0.679141 0.148274 0.0879879 0 0 -1 
8306 6 0.0659747 0.0693891 0.0483295 -4 0 0 
8850 5 0.553818 0.132846 0.0770266 5 -1 1 
8528 5 0.715224 0.131501 0.054855 -3 3 -2 
6831 5 0.0387424 0.184292 0.0969762 1 -1 2 
8498 5 0.429477 0.166198 0.0915572 0 0 2 
5178 6 0.470997 0.163509 0.0536033 2 4 0 
7304 5 0.656053 0.213073 0.0687699 1 4 1 
6652 6 0.710103 0.18973 0.0916012 -4 3 5 
7291 5 0.767609 0.155981 0.0854195 0 -6 3 
8238 6 0.248527 0.235752 0.086083 -1 -1 -3 
6015 6 0.58898 0.240806 0.0953511 -1 0 5 
8327 5 0.405346 0.274962 0.0920553 6 3 0 
6442 6 0.487891 0.21884 0.0406619 -3 -2 5 
5094 5 0.685299 0.261749 0.0677637 -2 9 1 
7427 6 0.888673 0.260264 0.0864921 4 1 1 
6274 6 0.940614 0.260101 0.0702669 -3 -1 2 
6889 5 0.912328 0.279329 0.103815 3 3 -1 
8618 6 0.999566 0.368895 0.0737588 -2 -6 -3 
8923 6 0.537667 0.316109 0.0842072 -2 3 1 
7617 5 0.41723 0.315724 0.0305577 2 4 -2 
7815 6 0.552913 0.333491 0.124094 4 -3 -1 
8671 6 0.438224 0.367899 0.0802579 3 0 -3 
8739 5 0.484305 0.367136 0.0697673 -5 2 2 
6817 5 0.496229 0.414122 0.0851745 -4 -1 0 
8180 5 0.751367 0.377631 0.0873857 4 -6 -2 
8465 6 0.0306007 0.417629 0.0593757 3 4 5 
5887 6 0.365389 0.381976 0.0592548 3 0 -2 
8085 6 0.391123 0.415484 0.0463526 -3 -4 2 
5332 6 0.415789 0.425416 0.0996771 -1 4 1 
7489 5 0.543445 0.393638 0.0890605 -2 -1 1 
7273 5 0.986549 0.428547 0.0661451 5 5 2 
8641 5 0.202477 0.405762 0.0907631 -2 -1 -4 
7183 5 0.305641 0.456068 0.120187 4 -4 -4 
5800 6 0.263908 0.454371 0.0962406 -4 2 4 
6345 6 0.809758 0.481167 0.0940574 3 -1 -2 
7157 6 0.482058 0.506556 0.112504 -2 0 -1 
5463 6 0.789852 0.486966 0.0527582 0 4 -2 
8750 6 0.941158 0.552771 0.0943655 1 1 8 
5374 5 0.897327 0.5806 0.128561 2 -2 1 
5246 6 0.181352 0.606592 0.0936967 -4 -1 0 
7339 6 0.491605 0.622181 0.0476292 0 -5 2 
8354 5 0.912837 0.598133 0.0994745 0 1 0 
6095 5 0.357737 0.62472 0.0409809 0 -2 6 
8660 5 0.994317 0.601507 0.111856 -5 -1 -2 
5539 6 0.0311765 0.62296 0.0564489 8 2 -1 
6559 6 0.15944 0.64018 0.0926847 3 3 2 
8632 5 0.227728 0.610408 0.0491162 4 -1 -2 
6104 6 0.869578 0.614983 0.0855528 -5 1 1 
7433 5 0.987861 0.705548 0.0563245 -1 2 -1 
7197 6 0.0625927 0.687429 0.0933557 -3 2 1 
7035 5 0.30179 0.696982 0.0877182 2 -3 0 
6801 6 0.406859 0.7498 0.0703327 3 2 -1 
7398 6 0.463967 0.742837 0.0884091 -9 0 3 
8877 5 0.579765 0.680607 0.040818 0 -2 9 
5952 6 0.686146 0.735138 0.0507823 0 -1 -3 
5380 5 0.781002 0.708025 0.053243 0 2 1 
8588 6 0.279067 0.783576 0.0375106 -4 1 0 
7940 5 0.841848 0.778655 0.120747 3 -1 3 
7066 6 0.874959 0.730815 0.0903478 1 -3 0 
8946 5 0.919138 0.751344 0.0670411 -5 2 0 
7080 6 0.148425 0.789873 0.0467062 8 2 1 
6334 6 0.427422 0.760173 0.0777939 6 0 4 
5361 6 0.0901518 0.799747 0.0795838 -7 -3 -4 
8384 5 0.846458 0.823263 0.0831581 3 -1 0 
7360 5 0.612722 0.826227 0.0577508 0 -4 -4 
7148 6 0.865714 0.842228 0.0784263 -2 1 1 
7743 5 0.058258 0.870516 0.0771872 4 0 2 
6262 6 0.292914 0.898722 0.0691113 0 0 -1 
5581 5 0.923111 0.822478 0.109592 0 -4 0 
7450 6 0.0160666 0.890984 0.0520844 1 -2 4 
8466 6 0.373076 0.860686 0.0795656 3 1 1 
6953 5 0.475541 0.87298 0.0640638 1 -1 -1 
7486 5 0.118651 0.899182 0.0546716 -1 1 4 
8672 5 0.187479 0.940073 0.112871 1 -2 -2 
6966 5 0.33659 0.921796 0.0887448 -5 0 0 
5473 5 0.488471 0.850247 0.085067 3 -3 -1 
5637 6 0.9231 0.917998 0.0758563 -1 0 3 
7460 6 0.818742 0.900992 0.0712062 -3 -1 2 
5671 6 0.892193 0.892267 0.0604258 -2 3 6 
8516 6 0.714272 0.947992 0.0636791 5 -2 1 
8663 6 0.0743949 0.932 0.083977 -4 2 1 
6093 6 0.12933 0.977892 0.0743698 0 0 -6 
7854 5 0.365325 0.999125 0.0809131 -3 -3 -2 
6852 6 0.80383 0.965983 0.0758883 -2 0 2 
8224 5 0.815258 0.021608 0.118991 -1 0 5 
7425 6 0.132574 0.0418603 0.0803097 2 -1 -1 
5126 6 0.369725 0.995413 0.0578338 6 -5 3 
8117 6 0.0408563 0.0454263 0.0947318 0 2 2 
6567 5 0.210792 0.0537209 0.0598763 0 2 0 
8132 5 0.196822 0.019835 0.109739 0 -5 -1 
6173 6 0.267919 0.0793439 0.0782678 -4 5 1 
6105 5 0.0961586 0.0803063 0.064401 0 7 -5 
5587 6 0.629489 0.0901258 0.109578 -2 0 1 
5434 5 0.0563216 0.176833 0.0967611 -2 3 3 
7226 5 0.671353 0.152644 0.10804 4 3 4 
7448 5 0.992476 0.181036 0.0908074 0 -2 -2 
7728 6 0.358226 0.198632 0.124289 -7 2 0 
5500 6 0.748217 0.186427 0.118427 4 -4 5 
7594 5 0.238316 0.176774 0.0921681 -1 6 4 
7751 5 0.252627 0.176649 0.0951251 1 2 0 
5821 6 0.353345 0.223109 0.0912168 0 4 0 
6989 6 0.153293 0.219907 0.0920464 1 -2 3 
8649 6 0.293013 0.225009 0.0771406 4 -4 -2 
5253 5 0.857926 0.174318 0.107921 -2 6 4 
8826 5 0.414 0.269595 0.101905 2 1 4 
6396 6 0.564273 0.271356 0.0696155 3 5 0 
7780 5 0.892017 0.2232 0.0815292 0 1 -1 
5623 6 0.261632 0.304678 0.0847906 -5 -1 2 
5762 6 0.577343 0.346493 0.110786 0 -7 -1 
5323 6 0.993482 0.340951 0.0940634 0 0 0 
5624 6 0.158886 0.330292 0.112974 -5 -1 0 
7721 6 0.230954 0.398716 0.0953537 1 2 3 
8458 5 0.914914 0.366077 0.0801656 1 -2 0 
7716 6 0.0652685 0.449295 0.0874288 -3 2 -1 
6192 5 0.125226 0.434695 0.093809 2 2 -1 
7150 6 0.250214 0.439154 0.100165 4 -2 4 
7766 5 0.749134 0.399564 0.130174 2 0 -2 
8228 6 0.830822 0.463101 0.07121 2 3 6 
5864 6 0.124673 0.463031 0.12614 5 -1 -8 
5462 6 0.679375 0.445918 0.0810842 4 -4 1 
7601 6 0.381045 0.480991 0.103195 0 -3 0 
8666 5 0.99693 0.503243 0.113673 6 0 1 
6723 6 0.29066 0.489616 0.0758318 2 -2 -2 
6653 6 0.388435 0.491484 0.105331 -2 0 4 
6892 5 0.642172 0.494241 0.0846301 0 2 2 
5363 6 0.157995 0.539389 0.0734699 1 -1 -2 
5598 5 0.740431 0.516488 0.0776621 -2 2 3 
7029 5 0.185405 0.548055 0.10624 1 -3 0 
5756 5 0.551065 0.557032 0.0791184 -4 -5 5 
6039 5 0.668761 0.517546 0.0860066 0 -5 1 
8749 6 0.652429 0.526477 0.124414 -1 -2 3 
6196 6 0.702165 0.599993 0.127309 1 -7 0 
6938 6 0.215707 0.6011 0.119996 -2 -6 5 
6908 6 0.516934 0.580011 0.111629 2 -1 0 
7277 5 0.51113 0.593593 0.104336 6 0 -1 
7010 6 0.0950333 0.581054 0.127214 2 0 -3 
6172 5 0.487854 0.64768 0.137917 1 3 3 
5818 6 0.820804 0.575177 0.0971866 3 -3 0 
5229 6 0.845445 0.619491 0.0836674 -5 2 -2 
7913 5 0.729407 0.611334 0.0709552 0 0 2 
6416 6 0.344285 0.656456 0.0720287 -3 0 -2 
5444 5 0.184188 0.648905 0.0613934 0 3 2 
6671 6 0.575351 0.68798 0.0818448 -1 -2 0 
8016 6 0.75613 0.638767 0.11351 1 0 -1 
7598 6 0.950452 0.66069 0.112944 -5 2 -2 
6128 5 0.167281 0.681203 0.0672834 0 -3 2 
8361 5 0.503016 0.693678 0.122672 -1 3 -1 
8559 6 0.710998 0.665546 0.107647 0 6 0 
7634 5 0.748415 0.69873 0.0810973 1 0 -2 
6097 6 0.145025 0.727692 0.0965871 -2 1 2 
5964 6 0.204762 0.710702 0.0746302 0 -5 0 
5479 6 0.158306 0.784248 0.0971994 1 3 1 
7421 6 0.49692 0.779135 0.132976 1 -8 3 
5417 5 0.620017 0.785976 0.0606534 1 -3 -1 
7691 6 0.817991 0.74579 0.0911679 -2 -5 -1 
5951 5 0.24191 0.805521 0.133104 4 3 -4 
7396 5 0.565671 0.808952 0.106845 1 -5 -1 
7522 6 0.209874 0.811516 0.102284 -5 -1 -1 
6443 5 0.479735 0.788041 0.13815 1 -3 -3 
7142 6 0.45205 0.8606 0.0785275 -4 2 -3 
8135 6 0.979533 0.80146 0.0697027 -1 2 -1 
7764 5 0.429861 0.864576 0.103987 3 0 -1 
5191 5 0.263382 0.856237 0.135262 2 8 -3 
7198 6 0.625447 0.89038 0.150571 -4 3 -1 
5142 6 0.657825 0.87294 0.112332 -2 2 -2 
7550 6 0.0521039 0.916219 0.134591 -2 0 3 
7135 5 0.554386 0.878639 0.0891424 0 -2 2 
5461 5 0.594095 0.912119 0.0978212 6 0 -3 
8668 5 0.679435 0.911105 0.0889659 -1 0 2 
7337 6 0.0139078 0.994499 0.102266 2 2 0 
7925 6 0.23621 0.987427 0.0744853 1 0 0 
8832 5 0.214121 0.994586 0.106375 2 0 3 
7232 5 0.435251 0.930669 0.117208 2 0 3 
6068 5 0.718421 0.0057678 0.121696 1 -4 4 
6615 5 0.180802 0.997397 0.102382 -3 -1 -1 
8996 6 0.610603 0.0794892 0.128919 7 0 0 
5119 6 0.738525 0.0926618 0.14267 0 1 -1 
7259 5 0.72135 0.071667 0.143991 1 -4 2 
5455 6 0.799946 0.0668012 0.143427 -5 -4 2 
6214 5 0.440143 0.0848177 0.143269 -3 0 1 
8461 5 0.109001 0.0960676 0.145004 3 2 -4 
7065 5 0.28221 0.133681 0.140131 3 4 5 
7343 5 0.361041 0.124001 0.162106 2 -4 1 
5289 6 0.289555 0.117945 0.058022 3 2 -5 
7558 6 0.590339 0.132275 0.10863 -5 6 -1 
6869 6 0.804913 0.173052 0.136195 3 1 -3 
6310 6 0.94686 0.148255 0.121432 1 -3 5 
5588 6 0.960785 0.211897 0.146853 -3 0 -3 
8581 5 0.966389 0.265762 0.106222 0 1 5 
5899 6 0.926444 0.251058 0.0856362 1 0 -1 
6580 6 0.138385 0.297978 0.167603 5 -1 0 
7540 6 0.24164 0.305153 0.13871 -2 4 1 
7000 6 0.71595 0.318946 0.147971 -2 -4 -3 
5272 6 0.801919 0.27515 0.108712 0 0 0 
5121 6 0.218788 0.332129 0.137552 -3 -1 -2 
6860 5 0.775827 0.338924 0.141588 0 1 -6 
6221 5 0.880668 0.285505 0.119187 -5 2 -1 
5098 6 0.901498 0.353358 0.140074 -2 3 0 
7284 6 0.905836 0.328719 0.137815 -1 3 2 
6922 6 0.0941336 0.384185 0.101972 -6 5 -1 
6690 5 0.44316 0.397481 0.117595 5 -1 4 
5978 5 0.0605256 0.397872 0.167261 6 -1 2 
7038 6 0.0924893 0.411328 0.141234 -1 0 -4 
6538 6 0.84975 0.419044 0.134385 -5 -1 -1 
5890 6 0.154318 0.48955 0.125659 3 6 1 
8015 5 0.309417 0.47879 0.145186 -4 2 -1 
7646 6 0.573977 0.444794 0.145425 3 4 7 
7822 5 0.579788 0.475036 0.10624 -5 -1 1 
6108 5 0.649734 0.475698 0.160769 -6 -4 0 
8722 6 0.755756 0.476445 0.129707 2 -1 -4 
7071 5 0.859566 0.435821 0.128414 4 -2 0 
8665 5 0.33782 0.538646 0.110836 -5 -5 8 
5389 5 0.453237 0.461432 0.103311 0 0 4 
7182 6 0.998846 0.55389 0.106362 -2 1 4 
7623 5 0.8706 0.569316 0.129747 -6 -1 1 
5127 5 0.560391 0.579135 0.11618 -2 -5 0 
8933 5 0.0823765 0.608788 0.145301 0 -4 2 
7274 6 0.845984 0.599513 0.114378 1 0 -4 
7376 6 0.724929 0.651111 0.0890741 1 -3 2 
8499 6 0.572799 0.671115 0.130624 1 2 -2 
7414 5 0.819886 0.713718 0.164948 -2 5 5 
6739 5 0.975202 0.684678 0.0934243 0 -1 5 
7712 6 0.242241 0.729953 0.108582 -4 0 0 
5504 6 0.420312 0.711134 0.114335 7 2 -1 
7988 6 0.946885 0.684316 0.124965 2 1 7 
7682 5 0.0832713 0.721817 0.119143 -2 -2 1 
5423 6 0.900636 0.780103 0.16067 2 -1 5 
6777 5 0.735756 0.778766 0.143943 1 -5 -6 
7103 6 0.159999 0.805783 0.110853 1 -4 4 
5823 6 0.760003 0.818764 0.107576 -3 -2 3 
5002 6 0.662112 0.825778 0.145676 2 1 3 
5373 6 0.734971 0.882919 0.123244 1 -4 -1 
7513 6 0.520283 0.937336 0.0951185 -2 4 4 
6862 6 0.175215 0.949 0.0997349 -3 -1 -2 
5283 5 0.713411 0.983673 0.0980961 -3 -5 3 
5597 5 0.821072 0.93683 0.12448 3 -5 0 
7324 6 0.965479 0.972059 0.115553 0 2 1 
8460 5 0.373688 0.000833304 0.173043 -2 2 -2 
5600 6 0.328062 0.0502806 0.129683 0 1 2 
6085 6 0.697105 0.0432976 0.152516 -2 -2 -2 
7961 5 0.104725 0.144043 0.12229 2 -2 2 
8576 5 0.0991437 0.101332 0.132758 3 0 -3 
5136 5 0.306196 0.101525 0.184035 -1 -3 4 
8506 6 0.60166 0.157336 0.151402 -1 -2 -4 
5319 5 0.0331381 0.11677 0.155232 3 1 0 
5471 6 0.515858 0.119531 0.144379 0 -1 0 
7263 5 0.67399 0.133614 0.16537 5 2 -1 
8593 6 0.940268 0.148711 0.162712 -4 1 3 
7027 6 0.196921 0.166032 0.190051 1 -3 4 
6070 5 0.540959 0.167944 0.15199 1 3 -2 
8120 5 0.945426 0.173018 0.120439 -2 4 0 
6676 6 0.54323 0.143571 0.109639 -2 3 -1 
6993 5 0.857063 0.221377 0.150462 0 -4 5 
7871 6 0.971163 0.185424 0.124188 -5 -3 1 
5031 6 0.147008 0.226258 0.18175 2 -2 3 
6578 6 0.807836 0.214536 0.131245 -2 3 2 
8550 6 0.412095 0.269427 0.146893 -1 0 -4 
5561 5 0.784214 0.268935 0.147938 -5 2 -3 
5679 6 0.922514 0.270379 0.124549 -2 0 2 
7265 6 0.130159 0.300483 0.172338 3 0 -3 
5048 6 0.442937 0.304586 0.221107 -4 -3 -6 
8399 6 0.894286 0.29405 0.170055 1 -1 0 
6246 5 0.952302 0.2821 0.179128 1 2 -3 
8305 5 0.0285403 0.321733 0.170607 -2 4 2 
8154 5 0.320151 0.345118 0.168732 4 -6 0 
5811 6 0.0656725 0.373955 0.18473 4 -3 -1 
8149 5 0.862283 0.355861 0.158501 1 -2 -4 
7301 6 0.538995 0.421303 0.117977 0 -3 0 
7070 6 0.735249 0.4212 0.133775 0 -4 2 
5043 6 0.0200942 0.464844 0.127936 4 0 0 
5647 6 0.434326 0.455122 0.144971 1 5 -3 
5914 5 0.139184 0.486499 0.102756 -2 -1 0 
5342 6 0.196293 0.551965 0.107092 -1 1 0 
7572 5 0.531265 0.493326 0.153488 1 -6 -2 
5798 6 0.94853 0.553151 0.17473 -1 0 0 
7798 6 0.992996 0.52185 0.16367 1 -3 2 
7753 6 0.685294 0.542985 0.130706 3 2 3 
6664 5 0.949391 0.551057 0.137821 -6 3 2 
5983 5 0.999372 0.495504 0.198301 7 4 -1 
7987 6 0.345681 0.55761 0.157032 5 -2 1 
5824 6 0.114332 0.599657 0.138952 2 -2 1 
8620 6 0.866145 0.652452 0.123746 1 -3 -4 
6382 5 0.946446 0.647039 0.162768 2 2 5 
5215 6 0.978664 0.672732 0.11825 -6 2 0 
6460 6 0.018882 0.651978 0.143038 -1 3 -3 
7900 6 0.380359 0.639262 0.121873 4 -6 3 
8634 6 0.66079 0.649435 0.196382 2 -2 2 
7188 5 0.127999 0.678244 0.172285 1 -2 0 
8693 6 0.282177 0.709212 0.147727 -2 -6 -3 
8008 5 0.455588 0.683162 0.108671 3 -4 0 
5059 6 0.491436 0.708795 0.144135 5 1 8 
7233 5 0.976819 0.738394 0.137402 -1 0 4 
8403 5 0.47345 0.748582 0.152847 1 -3 -1 
5741 5 0.730332 0.785623 0.143121 3 -3 -1 
5921 6 0.950843 0.766194 0.185931 -3 0 -1 
8003 5 0.528102 0.809647 0.137149 1 8 -1 
8362 5 0.779868 0.788633 0.118417 -2 -5 2 
6450 6 0.790877 0.777154 0.145153 2 -1 -2 
6870 5 0.202077 0.800832 0.140142 6 5 1 
7923 6 0.503726 0.778801 0.167555 3 3 -1 
5424 5 0.813235 0.795538 0.12497 -7 -1 -4 
8081 6 0.150318 0.821239 0.123918 -2 1 -2 
7729 6 0.606605 0.832908 0.156138 -1 -3 2 
7144 5 0.172588 0.852776 0.146342 4 -3 1 
8497 6 0.396837 0.896964 0.117372 1 1 1 
8890 6 0.487198 0.848537 0.132587 -4 -2 3 
7997 6 0.0614123 0.902849 0.137352 10 -4 1 
6745 5 0.405918 0.852086 0.162685 1 2 -3 
6779 6 0.45584 0.895079 0.121762 0 -2 4 
5548 5 0.652902 0.909264 0.144881 -1 -3 4 
5960 5 0.152767 0.952621 0.1213 -1 0 0 
8380 6 0.636523 0.912305 0.136694 -1 -1 -1 
6425 5 0.791757 0.933108 0.10401 -2 1 -5 
5652 6 0.106138 0.925137 0.11503 -5 -2 -1 
7240 5 0.8254 0.940963 0.131043 1 -2 0 
7494 6 0.153736 0.967104 0.162808 -1 -1 1 
8002 6 0.234385 0.966415 0.134264 4 -1 4 
8446 6 0.0911312 0.989292 0.135693 1 -3 1 
5705 6 0.0568224 0.0518661 0.147595 1 1 2 
5351 6 0.429752 0.0475306 0.118299 1 0 0 
8793 6 0.741346 0.0508851 0.212982 2 -1 3 
6454 5 0.264973 0.050483 0.153365 0 -6 -1 
8414 5 0.672247 0.0763952 0.224025 -3 1 4 
5217 5 0.129839 0.11472 0.183619 -2 -2 3 
8142 5 0.571685 0.128782 0.129032 -5 4 -1 
8326 6 0.245597 0.160067 0.134322 -7 -4 -1 
6457 6 0.830463 0.144893 0.152308 -2 2 2 
8294 6 0.00116 0.174839 0.180603 7 0 -1 
7001 6 0.140696 0.146802 0.139993 0 3 1 
7579 6 0.282241 0.195151 0.163236 4 0 -2 
8998 6 0.453741 0.206774 0.145104 1 2 0 
6814 6 0.622496 0.206405 0.124011 3 3 -2 
5056 5 0.716693 0.192326 0.153807 -1 0 0 
7533 5 0.236966 0.223516 0.182863 -1 0 3 
5975 6 0.515419 0.218242 0.151861 -4 0 1 
7929 6 0.70091 0.220929 0.170228 -2 -5 1 
5749 6 0.687601 0.225487 0.178814 4 -2 1 
8631 5 0.875703 0.236586 0.159735 4 -3 1 
5755 6 0.485039 0.271572 0.163757 -4 -1 0 
7989 5 0.762734 0.275934 0.208429 -1 0 1 
8112 6 0.7692 0.273802 0.159009 -3 -4 4 
7199 6 0.942309 0.295653 0.160149 -4 5 -1 
7036 6 0.269502 0.32883 0.144181 2 2 -3 
6505 6 0.455289 0.352016 0.173521 -4 -3 -3 
8729 5 0.316916 0.34755 0.1789 2 7 5 
7053 5 0.205885 0.354197 0.154513 2 1 1 
7236 6 0.601231 0.372522 0.201677 -4 1 1 
5085 6 0.738817 0.34852 0.162611 -3 1 5 
6470 5 0.118814 0.410184 0.188484 -3 -3 0 
7415 5 0.411588 0.360192 0.171224 3 -3 -7 
6007 5 0.452602 0.401188 0.179959 2 -4 3 
7878 6 0.606843 0.395422 0.141292 2 -3 0 
6627 6 0.0042622 0.364257 0.145982 7 -2 -2 
7039 6 0.349679 0.465759 0.14887 1 0 1 
7195 6 0.275945 0.478333 0.154457 -2 -1 0 
8416 5 0.538314 0.485499 0.167158 3 5 -1 
7959 6 0.124254 0.545673 0.161075 -1 2 -4 
5091 6 0.37391 0.495782 0.167871 -2 0 -1 
7167 5 0.343145 0.55323 0.225854 0 1 3 
8502 6 0.622421 0.57535 0.174569 2 2 3 
5430 6 0.75698 0.601012 0.182676 -2 -1 4 
6472 5 0.388473 0.675105 0.159422 -10 -1 -2 
7096 5 0.486046 0.619206 0.139657 2 0 0 
8828 5 0.720154 0.639535 0.158607 1 3 3 
6820 5 0.0530488 0.699353 0.187732 1 0 -3 
5101 6 0.347436 0.674156 0.139332 -5 -2 0 
7359 5 0.078947 0.683965 0.181461 0 -1 -5 
6249 6 0.164393 0.724595 0.180916 -2 2 0 
5222 5 0.821939 0.738422 0.123279 0 1 1 
7286 5 0.362514 0.718293 0.167379 0 -5 0 
6047 5 0.0542811 0.758074 0.190625 2 2 6 
6518 5 0.151846 0.718685 0.154778 -2 8 -2 
8222 6 0.497087 0.711763 0.188617 5 -1 2 
8833 5 0.157474 0.76606 0.174502 3 3 6 
6586 5 0.717277 0.774031 0.178924 -4 -4 4 
7689 6 0.271939 0.761273 0.180381 1 4 8 
8128 6 0.705281 0.782528 0.178787 1 1 0 
7574 6 0.249737 0.805749 0.185505 -4 -4 -1 
7570 5 0.635676 0.799875 0.161548 -2 6 -2 
6659 6 0.973566 0.814947 0.182884 -1 -1 1 
5267 6 0.369514 0.840508 0.166558 1 -6 0 
6765 6 0.586434 0.816935 0.163388 0 -3 1 
5732 6 0.414001 0.842264 0.168644 0 -3 5 
6466 6 0.745774 0.854414 0.171316 -1 1 -5 
5014 5 0.206605 0.912572 0.180024 -2 0 2 
7560 5 0.567029 0.891774 0.150588 4 -1 1 
6670 5 0.76705 0.905801 0.19445 0 -1 -3 
7422 6 0.764845 0.886133 0.16712 0 -1 -2 
5891 6 0.196201 0.922884 0.194017 2 -5 2 
5040 6 0.594326 0.918258 0.150157 -3 0 2 
8949 6 0.975814 0.909028 0.152124 2 2 0 
7874 6 0.039532 0.941542 0.184556 1 -1 -3 
8522 6 0.36477 0.927409 0.140239 2 2 1 
7891 6 0.457098 0.920153 0.120535 2 4 1 
6530 6 0.593262 0.908743 0.12529 0 -4 -2 
5926 6 0.941912 0.9404 0.164124 -2 0 4 
8804 6 0.956779 0.917867 0.170987 3 0 -2 
6600 5 0.364441 0.968827 0.176305 0 -3 5 
5981 6 0.998101 0.988563 0.1792 -4 -4 -6 
6760 6 0.20043 0.0323268 0.177504 0 -2 -1 
6407 6 0.75096 0.0677784 0.227157 -1 5 0 
8282 5 0.889688 0.0349532 0.197503 2 6 1 
6086 5 0.828174 0.0781345 0.15042 -1 0 -3 
5698 6 0.0541557 0.14347 0.180263 0 0 3 
8042 6 0.0838518 0.142586 0.198799 6 0 -5 
5805 5 0.370641 0.141709 0.167202 -4 3 0 
8664 5 0.67147 0.197178 0.227691 4 1 1 
5510 5 0.617445 0.174607 0.209479 1 3 2 
7511 5 0.785042 0.234766 0.204061 -1 2 -4 
5183 6 0.818014 0.189387 0.195448 -2 2 0 
7175 5 0.689123 0.188379 0.149309 -1 2 7 
6527 6 0.0633239 0.219252 0.174542 5 -2 -1 
6069 6 0.0289416 0.279842 0.157409 0 3 3 
7525 6 0.661054 0.304022 0.191493 0 3 4 
7171 5 0.151961 0.272035 0.196563 -1 4 3 
6748 6 0.605055 0.286316 0.185517 -3 4 -1 
5344 6 0.0744594 0.309487 0.157348 0 0 8 
8095 6 0.45047 0.325756 0.219977 -1 0 4 
6725 5 0.876926 0.340056 0.212999 2 1 -1 
6283 5 0.887045 0.331677 0.204306 -1 1 -5 
5697 5 0.211334 0.361591 0.166714 -1 -1 -5 
7686 5 0.511682 0.332895 0.202741 1 -2 1 
8501 5 0.571859 0.365153 0.213675 -2 -4 -1 
6001 6 0.972446 0.334338 0.230031 -3 -4 -2 
8685 6 0.666613 0.379138 0.207613 4 -5 -1 
5394 6 0.10609 0.403894 0.184769 -2 0 -5 
5945 5 0.767996 0.376909 0.209854 4 1 3 
6660 6 0.951066 0.42447 0.184592 -3 2 -2 
6838 6 0.278939 0.435351 0.200459 -1 0 3 
6667 5 0.558932 0.432198 0.209469 1 3 3 
5691 5 0.621452 0.398184 0.20758 0 2 -2 
6707 6 0.125778 0.432266 0.160021 -3 -5 4 
6768 5 0.593327 0.440854 0.16637 1 1 1 
8584 6 0.143988 0.481656 0.172469 -2 -2 0 
6504 6 0.838865 0.471277 0.18177 -7 0 0 
6955 6 0.154539 0.511234 0.182869 3 1 -1 
5303 5 0.593101 0.503428 0.192637 -3 0 -1 
8254 5 0.704633 0.48351 0.186312 -2 -1 -2 
8482 6 0.988329 0.502687 0.190616 1 1 -1 
8195 6 0.237692 0.531341 0.163242 -3 -2 -1 
5537 6 0.256251 0.538745 0.219794 0 -5 5 
8395 6 0.380454 0.558708 0.207091 2 -4 -2 
5879 6 0.31634 0.578051 0.195233 0 -2 1 
8862 5 0.308825 0.595107 0.21514 0 2 3 
5912 6 0.490768 0.606312 0.213302 -7 -1 5 
7906 6 0.751714 0.552966 0.176947 -4 6 3 
8241 5 0.0135042 0.592599 0.178196 0 6 2 
7554 5 0.426164 0.610893 0.191365 -2 -1 1 
7316 6 0.493318 0.606428 0.232142 7 -5 0 
6056 6 0.727967 0.604765 0.220193 7 -2 -1 
8943 6 0.977574 0.585677 0.189288 -3 -2 -4 
5250 6 0.495495 0.630614 0.218434 0 4 1 
6865 6 0.963482 0.642503 0.194687 -4 0 5 
6005 6 0.331926 0.688676 0.191013 -4 -2 -5 
8220 6 0.214516 0.721608 0.221799 4 0 -2 
5294 6 0.437289 0.751136 0.178716 -1 0 -2 
7264 6 0.610643 0.755424 0.167757 -4 1 0 
7949 6 0.415143 0.823571 0.202498 -1 0 4 
8193 5 0.914998 0.784404 0.22274 -4 -1 -2 
7054 6 0.777283 0.863046 0.166093 3 -2 4 
8148 6 0.234835 0.865397 0.197149 3 -7 1 
7244 5 0.511058 0.859647 0.224702 1 -3 2 
8255 5 0.80644 0.899966 0.18772 2 -1 1 
7793 6 0.515332 0.916909 0.182372 -1 0 3 
6804 6 0.631215 0.914892 0.198311 1 0 -2 
8496 5 0.80906 0.909832 0.199447 1 -7 2 
8795 5 0.990198 0.932294 0.201703 2 1 -1 
5324 5 0.373554 0.977583 0.18536 -2 -3 2 
5029 6 0.717041 0.993953 0.199298 -3 -4 0 
5946 5 0.232597 0.00701765 0.215429 2 0 1 
6978 5 0.852305 0.993125 0.218762 1 1 -3 
8565 5 0.170993 0.0227777 0.234351 -3 6 0 