ITEM: TIMESTEP
20000000
ITEM: NUMBER OF ATOMS
9000
ITEM: BOX BOUNDS pp pp pp
-75 75
-75 75
-75 75
ITEM: ATOMS id type xs ys zs ix iy iz 
7800 5 0.408056 0.994976 0.0367933 1 3 1 
6617 6 0.617879 0.99778 0.994872 1 3 3 
7578 6 0.862978 0.0400812 0.0234476 -1 1 3 
6685 5 0.0644298 0.0548315 0.985908 -3 1 -1 
5469 6 0.157401 0.0430414 0.986262 3 -1 -2 
5558 5 0.231139 0.0380905 0.966898 -3 4 -1 
5464 5 0.401869 0.0667545 0.047532 -1 -3 -2 
6379 5 0.419566 0.0637071 0.0777073 -1 -3 -2 
5920 6 0.748545 0.0177468 0.984074 3 2 -2 
7201 6 0.974221 0.0558951 0.0124154 -2 5 0 
6970 6 0.391214 0.0861056 0.0145726 2 2 -3 
8098 5 0.523231 0.103965 0.00439436 2 2 5 
6820 5 0.902896 0.0711457 0.0167833 0 -3 -2 
5525 6 0.957786 0.0369422 0.0179216 -2 1 1 
5759 6 0.271734 0.128345 0.054255 -1 -1 2 
7872 6 0.369715 0.126374 0.0194502 -2 2 -3 
8845 5 0.0724991 0.151445 0.0337964 5 -1 -1 
6701 6 0.317326 0.140047 0.965086 2 2 2 
6169 5 0.590849 0.14647 0.027299 4 -1 -1 
5585 6 0.277791 0.160752 0.0035146 -7 2 -4 
7378 6 0.485224 0.184569 0.0209215 -1 0 5 
8103 5 0.583579 0.159126 0.00831234 -2 -1 -4 
6560 6 0.5264 0.225611 0.985522 -3 3 -2 
5278 6 0.688685 0.168424 0.00161285 3 -3 0 
7155 5 0.975156 0.201295 0.956371 7 -4 -2 
7464 6 0.814419 0.198428 0.0139159 -4 0 0 
6462 6 0.258584 0.280165 0.0653456 -2 -3 -3 
7623 6 0.453751 0.241499 0.00169117 1 -1 3 
6089 5 0.658154 0.283984 0.988142 -1 -2 -3 
6255 6 0.897781 0.236842 0.981802 5 0 0 
5404 6 0.0658234 0.282882 -0.00293984 -1 1 0 
5682 6 0.230407 0.306828 0.017152 0 -3 -7 
5593 6 0.555968 0.297953 0.0162037 1 1 0 
8668 5 0.792905 0.285567 -0.00239784 0 4 5 
8081 5 0.836699 0.271072 0.00348176 -2 1 2 
7370 6 0.103437 0.294405 0.0295111 -1 4 4 
6332 6 0.50146 0.268629 0.98854 -2 -3 -3 
5063 6 0.578721 0.307712 0.0366566 0 2 0 
6266 5 0.726169 0.268035 0.982559 1 -3 1 
5791 6 0.962065 0.344824 0.0378103 1 -2 0 
6985 6 0.027529 0.322961 0.042862 0 1 1 
7454 5 0.877037 0.372823 0.00797096 -1 3 1 
7848 5 0.985078 0.300529 0.0104466 5 1 0 
6311 6 0.849295 0.381007 1.0011 -3 2 -6 
6490 6 0.0882044 0.361197 0.0143694 -1 3 0 
7790 5 0.569334 0.366633 0.030676 -1 4 -1 
5403 6 0.581389 0.363688 0.0397695 5 3 -1 
5192 6 0.786995 0.353256 0.00738623 -2 2 2 
7682 6 0.559116 0.412489 0.0227767 -2 -3 2 
7804 6 0.0201729 0.382942 0.984742 -2 -1 -3 
8551 5 0.746558 0.393998 0.0111834 -1 9 0 
8185 6 0.570691 0.429338 0.990199 1 -1 -4 
7625 5 0.773784 0.444769 0.99495 1 -5 0 
8370 5 0.796253 0.444613 0.0116399 3 -4 4 
6241 5 0.61396 0.461738 0.970587 5 -2 -6 
5208 6 0.36839 0.51232 0.0260204 3 0 1 
8901 5 0.36058 0.474241 0.993081 -3 -2 2 
7219 5 0.710735 0.455331 0.971927 -4 2 -1 
5445 6 0.72486 0.487413 0.0260505 3 -1 1 
6451 5 0.722739 0.495108 0.0490703 -3 -3 1 
7894 5 0.835625 0.491331 0.00555709 -1 -3 4 
8146 5 0.094266 0.562628 0.00409778 -4 -1 4 
7665 5 0.599081 0.545793 0.99168 4 3 -1 
5909 6 0.714666 0.521605 0.0362687 0 0 3 
7162 6 0.00868307 0.535446 0.0322399 -1 2 0 
7413 5 0.35259 0.551099 0.0640496 2 -7 5 
7326 6 0.767949 0.610298 0.00383841 -5 -4 1 
7232 6 0.258298 0.666179 0.0466356 -1 0 -2 
8043 6 0.304102 0.662779 0.0108388 3 -7 3 
5219 6 0.553924 0.685112 0.0249752 -2 2 2 
6665 5 0.158084 0.658202 0.994566 1 0 1 
7983 6 0.640332 0.717924 0.0196132 2 2 4 
8843 6 0.149323 0.69407 0.0280291 3 -4 0 
8786 5 0.162781 0.7015 0.991761 2 -1 2 
7151 5 0.480823 0.724957 0.0147959 -6 3 3 
7619 5 0.616954 0.708449 0.998605 -3 -4 1 
7738 5 0.0321926 0.690386 0.967275 2 -4 1 
6503 5 0.129344 0.715594 0.0291541 -1 0 0 
5136 6 0.501717 0.756821 0.0206291 -4 2 4 
5182 6 0.736929 0.722904 0.00988754 -2 1 3 
7987 6 0.484025 0.736494 0.0099295 0 2 3 
7866 6 0.698429 0.796987 0.987457 -4 1 3 
6537 5 0.938247 0.754586 0.0232929 -1 0 -4 
7798 5 0.709875 0.816497 0.0490502 -4 3 7 
6008 6 0.78057 0.844275 0.0267226 2 -2 -2 
6228 5 0.15191 0.842091 0.972573 0 3 3 
7485 6 0.199644 0.853272 0.0213392 7 7 5 
7670 6 0.245483 0.820425 0.0413262 -1 -3 0 
6204 5 0.396906 0.879102 0.998716 1 -5 -4 
6410 6 0.190754 0.901042 -0.000680112 -4 -4 1 
6102 5 0.416081 0.893619 0.05295 -2 -2 2 
7373 6 0.40407 0.884566 0.995137 -4 1 -3 
8550 6 0.646716 0.887816 0.0253627 -3 -2 1 
6930 5 0.925109 0.861417 0.0132693 0 2 -3 
6407 6 0.0190603 0.894569 0.0157446 -3 -4 3 
7372 6 0.254677 0.916337 0.994823 3 -2 3 
7547 6 0.772122 0.912388 0.0236169 -4 -3 2 
8211 6 0.755978 0.964277 0.0262428 5 -1 -2 
8029 6 0.791783 0.962653 0.032972 -4 -3 -1 
7956 5 0.600637 0.963143 0.983979 -6 1 1 
5103 6 0.898278 0.0211717 0.0536755 5 1 5 
8795 6 0.746556 0.0425837 0.0118312 1 -1 6 
7184 5 0.814656 0.0330147 0.0516744 2 4 -2 
8232 5 0.936163 0.0469398 0.0424217 2 -4 -2 
7098 6 0.334575 0.0403936 0.0628312 0 -1 -1 
7694 6 0.326054 0.0627329 0.0355964 0 -2 2 
7725 5 0.819817 0.0383242 0.0727555 -2 -1 1 
5797 5 0.309666 0.0655494 0.0291868 2 2 6 
6585 6 0.731444 0.0530526 0.0468967 -2 5 -1 
5344 5 0.734346 0.0960014 0.0156157 -2 -2 -1 
5221 5 0.806507 0.0840361 0.0393221 5 -2 2 
8906 6 0.775744 0.08399 0.988874 -1 0 6 
6574 5 0.527515 0.13327 0.988049 2 -3 -2 
6606 5 0.137179 0.173674 0.047254 1 -1 2 
8540 6 0.233856 0.154259 0.042786 3 3 -1 
8010 6 0.274295 0.202264 0.0477771 0 -2 3 
5266 5 0.621689 0.188311 0.0425751 -4 1 -1 
5620 5 0.64848 0.195524 0.035195 1 3 -2 
6371 6 0.849855 0.149169 0.0476814 -2 1 -3 
5275 5 0.0186392 0.249782 0.0764407 -1 5 1 
6977 5 0.0132984 0.299925 0.0144932 -3 0 -4 
7150 6 0.296732 0.277447 0.0116581 -1 4 0 
7166 6 0.378781 0.288125 0.0514325 1 1 3 
6999 5 0.792788 0.268537 0.0287002 1 2 0 
6576 6 0.297718 0.293434 0.0369998 5 2 3 
6778 5 0.307675 0.334715 0.0415406 -1 3 6 
6564 5 0.263858 0.280371 0.0512448 3 -2 4 
8431 5 0.414997 0.25903 0.0324437 4 1 -3 
6314 6 0.0621401 0.310761 0.0299648 1 -2 -1 
5199 5 0.182506 0.328797 0.0502306 -1 4 4 
6287 6 0.815098 0.334549 0.0110653 2 0 7 
7466 5 0.923656 0.303868 0.0273899 -1 1 -3 
8721 5 0.61715 0.353406 0.0480184 0 2 3 
7823 6 0.591177 0.384651 0.00980608 -4 3 4 
7868 6 0.729081 0.381877 0.0238393 -1 -1 -2 
5651 6 0.835178 0.39912 0.0211405 -1 1 -1 
6710 6 0.102635 0.407522 0.043667 -5 -2 3 
6952 6 0.660515 0.434218 0.093834 -1 -1 2 
8076 5 0.842974 0.481195 0.04529 -1 2 -3 
7424 6 0.238246 0.502918 0.00992087 0 2 5 
8367 5 0.277413 0.477907 0.0432597 -1 -4 -1 
7565 5 0.372636 0.491812 0.0481613 -3 7 5 
6473 5 0.50648 0.479789 0.0644542 -2 -3 2 
8886 6 0.79266 0.488656 0.0495717 0 2 1 
8526 5 0.151215 0.513863 0.0643345 2 -3 1 
8675 6 0.459212 0.512025 0.0364625 2 2 -1 
6390 6 0.768415 0.478977 0.0495961 5 -2 0 
7182 5 0.932163 0.51052 0.0353773 0 2 1 
7347 5 0.927676 0.523173 0.0234129 -3 0 -3 
6412 6 0.374597 0.577207 0.0176838 0 3 0 
5831 5 0.526655 0.614658 0.0345326 0 -2 -3 
7722 5 0.669181 0.535789 0.0406302 1 -4 -1 
8599 6 0.69855 0.563528 0.0237869 4 2 0 
5039 6 0.888501 0.616652 0.0450172 -1 -1 0 
8386 6 0.95724 0.521539 0.0435824 1 -5 -5 
6830 6 0.0212433 0.603205 0.059478 -2 -3 -2 
6981 5 0.897365 0.601463 0.00706412 -2 -3 -1 
7895 6 0.766522 0.616745 0.00696179 0 -1 -1 
7877 5 0.96078 0.628538 0.0255551 0 2 0 
8632 6 0.319941 0.690925 0.0440597 2 -1 4 
5244 6 0.877429 0.682527 0.0343077 2 -1 -2 
7223 5 0.284014 0.702886 0.0403668 3 0 -2 
6780 5 0.413195 0.678176 0.0604089 0 0 -3 
7911 6 0.477414 0.688265 0.0645051 0 2 2 
8595 5 0.843068 0.705667 0.0127049 -1 2 -1 
7145 6 0.0415278 0.734815 0.0381943 -1 -1 -4 
8857 5 0.454831 0.734643 0.0212747 1 -2 -4 
6076 6 0.77066 0.739173 0.0636837 2 -1 -2 
6286 5 0.936006 0.790159 0.00356603 -6 -3 -1 
6889 6 0.410603 0.765236 0.0195496 -2 -1 4 
8190 6 0.727768 0.750883 0.0349046 -1 -3 3 
7833 5 0.918573 0.764055 0.0310952 1 -2 3 
5942 5 0.0754644 0.794426 0.0550155 3 2 1 
6123 6 0.573263 0.777473 0.0548237 -4 4 -4 
5334 6 0.645059 0.793855 0.0539622 2 0 -1 
7636 6 0.656148 0.788435 0.0126331 1 -7 1 
7546 6 0.576595 0.785802 0.0473425 -1 -1 6 
8249 5 0.982302 0.833457 0.0206837 1 -5 -1 
5093 6 0.285113 0.841221 0.0301779 -5 1 0 
6622 6 0.048593 0.889495 0.0906543 3 -2 -1 
6895 5 0.135828 0.837308 0.0572928 1 7 -1 
6001 5 0.104724 0.849334 0.0393665 -1 -2 1 
5117 6 0.37244 0.852021 0.0524399 3 -4 4 
8169 6 0.473074 0.862947 0.0300828 0 -3 1 
6675 6 0.113724 0.90907 0.0558366 -1 3 3 
5859 5 0.256469 0.902056 0.044093 -1 5 2 
7036 6 0.437042 0.946843 0.99634 3 6 -3 
7601 6 0.533386 0.959748 0.0159568 -1 1 4 
8944 6 0.997756 0.974705 0.0510221 -3 -2 -3 
8428 6 0.115767 0.992388 0.0178135 -2 -2 3 
6162 5 0.680779 0.00339367 0.0478885 -1 -4 -1 
5072 6 0.228172 0.981811 0.045887 1 -2 2 
7392 5 0.586149 0.978102 0.0801407 -6 -1 0 
8780 6 0.0159319 0.0447895 0.0233436 -3 3 1 
8828 6 0.99446 0.0631271 0.0435111 -2 1 0 
7982 5 0.346722 0.0405298 0.0530601 0 1 0 
8008 5 0.802405 0.070752 0.0873231 0 1 -5 
8479 6 0.839288 0.0717502 0.0721882 -2 0 1 
7626 5 0.0820012 0.108542 0.054505 0 1 -2 
5934 5 0.187861 0.0746002 0.084378 -3 0 0 
5532 6 0.363152 0.0925127 0.0631574 -2 1 0 
6924 6 0.432139 0.0771613 0.0876178 3 5 -2 
8895 5 0.866695 0.084488 0.082525 2 -2 -3 
5472 5 0.603281 0.169945 0.00976517 -1 2 2 
8984 5 0.733891 0.167037 0.077838 3 -1 -1 
5395 6 0.382102 0.225244 0.022587 3 -4 0 
6055 6 0.411123 0.190914 0.0520271 -6 -2 4 
7374 6 0.113522 0.217904 0.0500002 1 -1 -1 
5059 6 0.130555 0.196236 0.0667008 -3 0 0 
6073 6 0.515269 0.21739 0.0594306 -4 0 1 
5882 5 0.745796 0.223359 0.073184 0 -2 1 
7086 5 0.847533 0.208278 0.0584182 -4 1 0 
7797 6 0.42154 0.290683 0.0228598 0 -1 0 
5543 5 0.227418 0.284903 0.0852667 -2 0 1 
7552 6 0.847761 0.261489 0.0820917 -2 -5 0 
6512 6 0.805514 0.294178 0.0510388 -1 -1 4 
7376 6 0.80115 0.327149 0.0557854 -4 1 0 
6327 6 0.782281 0.320984 0.083161 -2 1 1 
8567 6 0.288512 0.346655 0.0553355 0 -2 1 
7527 6 0.566595 0.313974 0.0669941 1 3 3 
6474 5 0.0385788 0.404734 0.0557273 -4 -2 0 
5742 6 0.394223 0.365415 0.0677552 0 2 0 
6610 6 0.979016 0.382175 0.0829502 4 1 4 
5913 6 0.243848 0.369129 0.0731199 1 4 -6 
7580 6 0.387907 0.421061 0.0527202 2 5 3 
8548 6 0.918437 0.344247 0.0413062 -1 2 -1 
8636 5 0.534392 0.412176 0.0315855 2 4 0 
5097 6 0.584903 0.497689 0.0871049 -3 -5 -6 
7478 5 0.710567 0.544691 0.073925 1 -6 0 
8684 6 0.924946 0.551817 0.0305219 3 2 2 
8114 5 0.239921 0.572352 0.046554 -1 1 0 
8512 5 0.476554 0.562426 0.0398225 -1 0 0 
8440 5 0.504688 0.609554 0.0134453 -1 -3 1 
6605 6 0.984327 0.619115 0.0316799 -2 -4 2 
7792 5 0.974342 0.666758 0.0539196 0 -2 -3 
7266 6 0.418687 0.638956 0.0404651 2 -6 0 
7847 6 0.580618 0.655148 0.0908981 -4 3 -1 
7929 6 0.919435 0.708753 0.0586389 -2 -4 -1 
7271 6 0.104684 0.675226 0.0585562 -1 1 2 
5752 6 0.335603 0.69689 0.0513653 -2 -1 2 
5446 5 0.985993 0.682611 0.0672151 -2 -3 3 
8958 5 0.452689 0.709725 0.0480028 2 -4 -3 
5263 5 0.625956 0.701119 0.0664009 -1 -8 6 
6111 6 0.632213 0.69482 0.078158 -1 2 7 
8916 6 0.0239977 0.720682 0.074515 0 5 0 
5696 5 0.200199 0.764007 0.00823432 1 6 -2 
7668 6 0.462644 0.724855 0.0858238 -2 0 2 
6007 5 0.204164 0.81198 0.0739174 2 1 -3 
8766 6 0.737479 0.812199 0.0568008 9 -2 2 
5818 6 0.0987274 0.792383 0.0661333 2 3 2 
6325 5 0.195459 0.803965 0.0369117 7 1 -1 
7661 6 0.997903 0.825571 0.0126942 0 -1 3 
6133 6 0.894561 0.842532 0.0764825 1 -5 -1 
8787 6 0.163922 0.856234 0.0418572 2 0 2 
7404 5 0.152741 0.899784 0.0810583 0 0 0 
7212 6 0.117726 0.889297 0.0530696 -3 0 -6 
7893 5 0.554837 0.906661 0.0318708 1 0 1 
6901 6 0.584008 0.935668 0.06915 -5 -2 -2 
7468 6 0.760576 0.925596 0.0263416 -1 -6 -7 
5056 6 0.577802 0.96096 0.0475816 -5 4 3 
7685 6 0.74259 0.926141 0.0411777 2 -7 3 
5952 6 0.0440856 0.0145822 0.0784123 -6 -2 -1 
7120 5 0.190907 0.983784 0.0593145 3 -1 -4 
7503 6 0.443339 0.991489 0.072196 1 0 2 
5820 6 0.041598 0.00121291 0.0628806 2 2 1 
5274 6 0.640071 0.0151055 0.0816038 -5 0 -1 
6959 5 0.304778 0.072828 0.109747 -4 -1 5 
5830 6 0.3131 0.0546285 0.0942889 -7 1 -1 
6993 5 0.765062 0.0333507 0.120831 3 1 0 
5285 6 0.31705 0.107585 0.076669 3 -1 5 
7914 5 0.0519973 0.156064 0.0549539 -1 -3 1 
5340 5 0.188646 0.153019 0.116636 1 1 2 
8240 6 0.469286 0.165055 0.105326 2 -5 1 
5049 6 0.653832 0.120632 0.0713041 -2 0 -1 
7655 6 0.97522 0.126257 0.0897846 -1 1 -3 
5381 6 0.0744571 0.161544 0.0791079 -1 0 1 
7859 5 0.222929 0.185372 0.0612708 -2 2 1 
7253 5 0.67915 0.161147 0.0855209 -2 2 2 
6022 6 0.686609 0.173763 0.11032 -2 0 -7 
7380 6 0.0876595 0.174304 0.116971 2 2 -4 
6037 6 0.527895 0.206465 0.102719 3 -2 -2 
8908 6 0.0756798 0.247712 0.0794202 1 -4 -1 
7377 6 0.375087 0.302528 0.06908 -3 1 3 
6491 6 0.474916 0.242421 0.0794903 8 -5 2 
6115 6 0.658467 0.282762 0.0772797 0 5 -2 
5372 5 0.265293 0.284272 0.0581303 -1 -2 -2 
8065 6 0.724709 0.257986 0.0670995 -2 3 -1 
5355 6 0.108629 0.275706 0.0154371 -2 1 3 
6734 5 0.879874 0.295569 0.0639135 -3 -1 2 
8111 5 0.08401 0.343006 0.0813204 3 1 5 
8207 5 0.618268 0.337275 0.113861 1 4 5 
8659 6 0.414803 0.401736 0.0849913 4 2 6 
8022 6 0.709091 0.411921 0.11449 -6 1 2 
7328 6 0.36434 0.47644 0.083364 -1 -4 -3 
7582 5 0.707067 0.421206 0.0855082 -4 3 0 
6492 6 0.382431 0.512839 0.0859357 -1 4 5 
5371 6 0.00334036 0.463942 0.0702962 1 0 0 
6984 6 0.109551 0.52558 0.0850011 -1 2 5 
6527 6 0.0651092 0.579464 0.059 -3 5 -5 
5303 6 0.266548 0.523029 0.0466695 -2 2 -1 
7008 5 0.28647 0.555072 0.0764624 -2 4 0 
8391 5 0.54525 0.54253 0.0715693 2 2 3 
8507 5 0.620066 0.56583 0.0471033 1 -2 0 
6232 6 0.639264 0.578014 0.0647219 3 -1 0 
7991 6 0.871937 0.57076 0.0677068 -2 4 -2 
6419 5 0.212826 0.562053 0.0786593 -3 -2 2 
5080 6 0.28754 0.586452 0.0619944 2 2 0 
6319 5 0.430272 0.640694 0.103099 -1 -6 -4 
8860 5 0.771762 0.586262 0.106029 -3 -2 -2 
6651 5 0.778637 0.584457 0.102994 6 -6 2 
8670 5 0.956202 0.603823 0.0662992 3 -1 -1 
6595 5 0.872251 0.603234 0.0989426 2 0 -3 
6517 6 0.119739 0.611603 0.0653119 -2 1 1 
6941 6 0.370058 0.610409 0.099325 2 2 1 
7128 5 0.3234 0.673874 0.0726919 1 -1 -1 
8961 6 0.5745 0.698369 0.095869 -1 -1 -1 
6852 5 0.782055 0.694303 0.0537389 -2 0 -1 
8841 5 0.909742 0.708367 0.0893923 -3 -1 1 
5639 5 0.278323 0.724895 0.0997232 -2 0 5 
7055 5 0.883656 0.752966 0.0602577 -3 -1 1 
7508 5 0.924793 0.692767 0.0557218 -5 -6 -3 
7011 6 0.503101 0.745025 0.110601 1 3 -2 
6038 5 0.664111 0.729693 0.0737401 -3 -5 3 
8936 5 0.0355549 0.77182 0.0479253 4 1 -3 
7863 6 0.482994 0.701746 0.0430108 3 -5 4 
6363 5 0.286519 0.820427 0.0754266 1 -7 1 
5167 6 0.778295 0.799925 0.0832255 -1 -4 -3 
5302 6 0.572423 0.810562 0.0923621 -10 1 -1 
7358 6 0.423104 0.84718 0.0902845 -1 -1 1 
6273 6 0.0765635 0.856367 0.0834021 2 -2 -6 
6227 6 0.298532 0.860807 0.0254061 -1 3 -5 
5946 6 0.314343 0.897394 0.0804953 -2 -1 4 
6620 5 0.124197 0.910271 0.0796124 0 0 0 
7750 6 0.38602 0.89158 0.0987613 -1 2 -4 
7569 6 0.849816 0.907691 0.1078 1 3 -3 
8517 5 0.201578 0.932859 0.0734978 2 0 3 
7416 5 0.297457 0.966015 0.0960157 -5 -1 -2 
7885 6 0.159222 0.95937 0.0989788 1 1 -1 
8509 6 0.220273 0.986076 0.0727867 6 0 3 
8194 6 0.333335 0.00741156 0.122891 1 4 0 
5396 5 0.751756 0.00772768 0.0897716 3 5 -3 
6414 5 0.570715 0.0854093 0.0945342 0 2 -1 
6445 5 0.232681 0.0786593 0.0912426 -2 1 4 
8701 6 0.233313 0.0417481 0.0747656 3 -3 -2 
7828 6 0.90007 0.0671165 0.0944485 2 0 6 
8198 5 0.377216 0.104809 0.118345 0 1 1 
8492 5 0.837554 0.101376 0.104754 -2 0 -3 
8203 6 0.846226 0.104377 0.1133 2 2 0 
8871 6 0.561657 0.123021 0.0858704 0 -2 -3 
5013 6 0.613318 0.1362 0.11318 2 -5 -1 
6238 5 0.0865454 0.147597 0.127596 4 -2 1 
5664 5 0.394197 0.155005 0.0953481 -2 -1 0 
7295 5 0.792104 0.147399 0.0774711 1 -2 0 
5004 5 0.910245 0.122408 0.0988415 -4 -1 4 
6814 5 0.115495 0.187741 0.112224 -4 7 4 
5971 5 0.849801 0.184286 0.0950368 4 3 -4 
6340 5 0.219934 0.176499 0.104863 2 2 0 
6127 5 0.635867 0.217917 0.127615 1 5 -1 
7542 6 0.356346 0.243343 0.128034 0 -4 -2 
8351 6 0.991939 0.244213 0.0974268 2 1 1 
7172 5 0.173032 0.260269 0.13796 1 -3 -4 
7938 5 0.177187 0.241206 0.111832 2 7 3 
8720 5 0.520823 0.267062 0.119262 1 0 -2 
7707 5 0.877099 0.290911 0.038729 3 0 -1 
8019 6 0.963863 0.275513 0.0972445 1 0 -3 
6391 6 0.537977 0.298192 0.0934216 0 4 -3 
5349 5 0.803218 0.340812 0.0935805 2 8 -2 
6997 5 0.406569 0.316173 0.136629 4 0 3 
8667 6 0.491887 0.323722 0.0976073 0 0 -2 
8368 5 0.977392 0.340535 0.0949652 -1 0 3 
6334 6 0.545107 0.308191 0.0905272 -1 3 0 
7805 5 0.748385 0.362638 0.0876775 1 -2 4 
8075 6 0.0681432 0.411374 0.118989 -1 -1 -1 
8260 5 0.400559 0.392168 0.136907 0 1 -1 
5388 5 0.966424 0.397033 0.088037 -2 0 -2 
7758 6 0.0680527 0.464352 0.0982429 -7 2 5 
5151 6 0.403132 0.460011 0.0915834 4 2 2 
6898 6 0.495963 0.447773 0.0851174 -4 -5 1 
7124 5 0.123932 0.474135 0.112787 -5 -1 1 
6640 6 0.310588 0.490721 0.10854 1 -1 -1 
5110 5 0.100636 0.468006 0.121551 4 0 3 
7456 6 0.242219 0.514528 0.133382 0 2 -1 
5948 5 0.602025 0.559379 0.0671578 -1 0 2 
5183 6 0.0100538 0.5023 0.09316 -1 -3 7 
8123 5 0.129125 0.522346 0.0776472 -1 -4 2 
8259 5 0.0905894 0.609602 0.132587 -2 3 -1 
5483 6 0.409747 0.56503 0.0821561 0 1 1 
6761 6 0.123167 0.536061 0.110148 2 2 3 
7052 6 0.706999 0.564438 0.0842276 -7 -5 -1 
8547 5 0.71163 0.576082 0.117396 -2 0 6 
6934 6 0.843941 0.597397 0.097305 3 2 -1 
6240 6 0.403512 0.656342 0.080775 -2 -1 1 
6747 6 0.548338 0.545505 0.103583 0 0 -5 
8321 5 0.673673 0.595513 0.0873724 0 0 0 
7502 6 0.555451 0.59518 0.0888327 -1 -2 -4 
7566 5 0.590268 0.657663 0.0840088 2 1 -3 
6533 5 0.989734 0.650035 0.105147 -2 0 -4 
5915 6 0.815562 0.633022 0.137677 -2 1 4 
6053 5 0.865316 0.629175 0.123341 1 2 3 
7000 6 0.532933 0.70357 0.0983981 -1 -1 -5 
5774 5 0.874589 0.750011 0.0773147 -5 5 6 
5784 6 0.935581 0.715122 0.073304 0 1 -2 
7415 6 0.806965 0.780625 0.0950281 -4 1 1 
6951 6 0.872588 0.777796 0.0978793 2 3 2 
5123 5 0.849013 0.809837 0.090584 -7 -1 -1 
6126 5 0.384737 0.843245 0.107162 -2 2 4 
5705 5 0.831586 0.825195 0.0745042 1 -2 -3 
7244 5 0.999424 0.838661 0.0941165 -3 -5 7 
6467 6 0.158123 0.889034 0.0823641 4 3 -3 
5380 6 0.313211 0.835961 0.0901142 -2 4 -2 
5241 6 0.456765 0.776354 0.0611274 1 5 1 
5055 6 0.903047 0.844473 0.0541733 -2 0 -2 
7782 6 0.088931 0.860013 0.11311 0 1 -6 
5983 5 0.447531 0.908348 0.133155 2 1 0 
5389 5 0.722965 0.863645 0.0940073 1 3 -3 
6799 5 0.734511 0.904908 0.09142 4 -3 0 
6468 5 0.765481 0.849828 0.135927 -5 -1 1 
6088 5 0.510925 0.918702 0.125151 4 0 -1 
7082 6 0.969805 0.905068 0.118562 3 3 -1 
5647 6 0.949638 0.923553 0.0995573 1 -2 0 
5770 6 0.151848 0.916465 0.0719554 0 4 -1 
6006 5 0.285914 0.899069 0.110846 -1 -4 1 
7348 6 0.957754 0.910254 0.105759 0 0 -1 
5495 6 0.358315 0.945502 0.0760609 -5 -2 -4 
5189 5 0.747633 0.940201 0.0919761 -2 -3 -2 
7322 6 0.0627709 0.982892 0.095942 1 0 -6 
5711 6 0.979698 0.952087 0.107088 4 2 3 
8099 5 0.0685499 0.984945 0.0997368 -9 0 2 
6444 6 0.207146 0.97723 0.0947109 -2 -4 -1 
8461 5 0.310784 0.0230678 0.0936608 3 0 2 
6816 5 0.43127 0.944921 0.106643 2 0 0 
6645 5 0.0325433 0.0357432 0.121686 -1 -4 -3 
7122 6 0.302055 0.991829 0.116364 -5 -7 -6 
6331 5 0.681705 0.982843 0.102533 2 2 4 
7824 5 0.987017 0.99535 0.138753 -3 -2 -4 
8633 5 0.983634 0.00017767 0.165443 4 2 -5 
7334 5 0.278213 0.0101877 0.105138 -7 -2 -1 
7996 5 0.495869 0.0486107 0.124959 -1 2 0 
7068 5 0.811417 0.0225471 0.0632777 2 -1 -3 
8490 5 0.135102 0.0429319 0.11674 5 2 5 
7753 6 0.459603 0.102131 0.135598 -1 1 -1 
6639 6 0.702213 0.0629502 0.100552 4 2 -1 
6247 5 0.585491 0.139387 0.0801647 1 6 -3 
6011 5 0.269862 0.186839 0.143276 1 -2 -4 
5075 5 0.316459 0.195574 0.144007 -1 2 -2 
5047 6 0.949536 0.142804 0.147132 -1 -2 1 
5900 6 0.980608 0.173839 0.088062 2 4 -1 
5037 5 0.18218 0.178021 0.0964712 2 1 3 
6631 6 0.560655 0.150146 0.101596 0 7 -1 
6364 6 0.217257 0.241704 0.135546 -1 -3 -6 
8435 6 0.505109 0.208211 0.0993952 2 2 5 
5716 6 0.881258 0.213458 0.12059 -2 -2 -2 
8745 6 0.98197 0.213118 0.077149 3 -2 -1 
6000 6 0.0679288 0.317749 0.114674 2 -1 0 
7410 5 0.276177 0.228539 0.136738 -5 3 -2 
5603 6 0.279447 0.257605 0.0991579 3 0 -1 
8171 6 0.43839 0.307345 0.126669 2 5 0 
5523 6 0.934034 0.305212 0.0961813 1 -1 -4 
6678 6 0.0774281 0.299486 0.127901 -4 5 4 
7235 5 0.523009 0.342522 0.0960403 2 -1 -2 
8170 6 0.44664 0.359852 0.108459 2 -2 5 
6033 6 0.480035 0.386628 0.0933545 1 3 -1 
8300 5 0.970212 0.408966 0.128691 -3 1 0 
5810 6 0.0204004 0.375613 0.157046 -3 2 2 
7889 6 0.491182 0.408379 0.101252 7 0 4 
6312 5 0.792902 0.421573 0.0911962 4 -3 0 
6350 5 0.814342 0.372088 0.13894 -1 3 -1 
8727 5 0.440246 0.471275 0.133759 -2 -3 0 
5173 6 0.56037 0.422183 0.124896 1 -2 3 
5890 5 0.499414 0.492983 0.145089 2 -1 2 
6117 5 0.897365 0.499202 0.149484 0 5 5 
5357 5 0.360378 0.450944 0.159274 1 3 0 
6705 6 0.610248 0.477183 0.0819443 -4 -1 -4 
6476 5 0.263097 0.538259 0.117727 6 -5 7 
8791 6 0.62895 0.543546 0.10321 -3 2 1 
6510 5 0.947846 0.604351 0.164923 1 1 7 
8139 5 0.997452 0.635336 0.125307 -6 4 1 
7177 6 0.212398 0.60636 0.141015 1 0 -5 
6927 6 0.482351 0.571469 0.0980914 -3 -2 -3 
5649 5 0.545951 0.584665 0.122894 3 2 2 
8290 6 0.878157 0.614568 0.105965 -2 2 0 
7028 5 0.956697 0.610707 0.12059 -1 1 -1 
7864 5 0.405533 0.665099 0.113177 2 -2 -2 
7654 6 0.642063 0.690149 0.0896098 1 2 -2 
6183 6 0.696281 0.684611 0.149 -4 4 2 
7610 5 0.902803 0.666716 0.166888 3 2 -3 
6982 6 0.655355 0.708144 0.120245 4 -5 1 
6544 5 0.970954 0.727218 0.10947 2 -1 7 
8399 5 0.0729323 0.743838 0.102584 1 1 0 
5197 5 0.417914 0.781034 0.115213 6 4 1 
7488 5 0.535064 0.765594 0.121469 0 -1 0 
5783 5 0.719356 0.73089 0.160698 -1 -6 1 
6589 5 0.847564 0.738654 0.0848747 -5 3 3 
8478 6 0.996546 0.780089 0.126625 0 1 3 
8372 5 0.171165 0.762156 0.142322 1 -4 3 
5718 6 0.675298 0.818311 0.140736 -3 -5 -2 
6800 6 0.741567 0.793031 0.137273 -4 0 -5 
6913 5 0.564633 0.802504 0.0997496 0 2 2 
8741 6 0.0916137 0.820683 0.114162 3 1 1 
8840 6 0.274429 0.873542 0.123852 -2 -2 -1 
8176 5 0.626685 0.88316 0.146294 -1 2 -1 
7019 6 0.108793 0.871901 0.130543 -2 -4 -3 
6960 6 0.467734 0.857038 0.132753 6 -1 -1 
8555 5 0.688418 0.82376 0.117568 -1 -4 0 
7852 5 0.81594 0.911001 0.156272 4 0 -7 
8100 6 0.807427 0.910698 0.14405 -3 0 -2 
8266 6 0.976072 0.911186 0.152562 5 1 3 
6671 5 0.0939052 0.942018 0.096365 2 1 3 
5458 6 0.240354 0.947482 0.135848 2 1 3 
5101 5 0.512796 0.898387 0.122895 -1 1 1 
7168 5 0.797003 0.900617 0.0976173 0 4 0 
6717 5 0.428167 0.971407 0.121263 -1 -1 3 
8403 6 0.479318 0.895097 0.160851 -2 -3 -7 
7796 6 0.360261 0.971296 0.169834 3 5 2 
6532 6 0.18635 0.949417 0.134641 0 1 -3 
8082 6 0.449716 0.989708 0.144076 1 -1 2 
7970 6 0.716131 0.0109433 0.141789 4 3 -1 
7217 6 0.000679817 0.980244 0.164635 0 -2 0 
6591 6 0.191337 0.0465165 0.130715 4 -3 5 
5626 6 0.352 0.0465321 0.123849 -4 2 -1 
5025 5 0.622636 0.992696 0.193866 -1 2 -1 
8681 6 0.205134 0.0525098 0.130511 -2 -3 -1 
7543 5 0.227269 0.0494734 0.114724 7 -3 -2 
5755 5 0.333073 0.0520632 0.166242 -7 1 -2 
5443 6 0.335683 0.0811504 0.165094 3 -3 3 
6377 5 0.387384 0.0444118 0.151891 5 3 -3 
8978 6 0.701923 0.00886483 0.108831 0 -2 -2 
6803 6 0.902131 0.0584473 0.161132 1 -1 3 
7990 5 0.271691 0.0305756 0.1211 -5 0 1 
7562 6 0.315658 0.0827094 0.171429 -2 -1 2 
7855 5 0.502659 0.0951236 0.161043 -4 4 4 
5912 6 0.74677 0.0840753 0.139776 2 0 0 
7315 6 0.904643 0.0796839 0.146285 -1 3 -2 
8527 6 0.783258 0.102392 0.122267 0 5 0 
7091 5 0.0175343 0.134228 0.175416 2 5 4 
5502 6 0.426301 0.0971727 0.146676 2 -1 -2 
8844 6 0.174312 0.211147 0.137829 -3 -3 5 
7715 6 0.9586 0.185138 0.159588 3 0 2 
5544 5 0.183072 0.259783 0.147961 3 -3 3 
6321 6 0.913315 0.182964 0.173349 0 -5 -6 
5269 5 0.0392751 0.242003 0.147686 -3 3 -1 
7492 5 0.690043 0.248985 0.136193 1 0 -2 
7460 6 0.201218 0.278528 0.175947 -2 -1 -2 
5860 5 0.53703 0.284975 0.123469 3 3 0 
8496 5 0.5963 0.312655 0.160449 -1 1 0 
7959 5 0.816351 0.297121 0.185465 -5 4 -1 
5581 5 0.668776 0.361026 0.213991 1 0 -3 
5542 5 0.218873 0.369594 0.172813 2 -5 1 
7869 6 0.360294 0.359988 0.159618 -2 4 -3 
5222 5 0.54092 0.373137 0.136426 2 2 -3 
8143 6 0.0262162 0.425173 0.152664 -2 1 1 
8979 6 0.0505677 0.435156 0.114988 4 1 -5 
8939 5 0.247056 0.404011 0.179029 -4 -3 5 
7398 6 0.10637 0.447314 0.128047 3 1 4 
6561 5 0.478313 0.461486 0.154812 1 3 2 
5607 5 0.285865 0.461145 0.162814 -1 1 2 
6086 5 0.333105 0.448088 0.133956 1 -3 -2 
5106 5 0.44323 0.485388 0.188176 -2 1 -2 
6937 6 0.749209 0.426902 0.134979 -5 -3 2 
7757 5 0.911318 0.509018 0.121768 -1 -3 2 
7585 5 0.357149 0.522437 0.196235 0 2 -5 
8854 6 0.53789 0.541132 0.105243 -2 4 1 
5806 5 0.504232 0.568224 0.148108 4 2 0 
7329 5 0.769131 0.522476 0.15939 -3 -3 5 
8743 6 0.456078 0.565482 0.124761 1 5 4 
8772 5 0.82596 0.608584 0.176426 -1 3 3 
6902 6 0.21588 0.676085 0.181987 1 0 -2 
7165 6 0.519802 0.761375 0.129779 -7 -2 1 
6485 5 0.216167 0.786796 0.164187 2 -1 -1 
5919 6 0.491788 0.745276 0.146769 4 0 7 
5465 5 0.529353 0.800291 0.155732 -2 -2 1 
6416 6 0.967863 0.798886 0.121718 1 -6 -3 
8557 6 0.319834 0.758587 0.142631 -1 0 -1 
5096 5 0.873624 0.783595 0.161555 1 2 5 
7281 6 0.215478 0.828049 0.150364 -2 1 4 
8835 5 0.113324 0.812561 0.159848 2 1 -1 
6046 6 0.411105 0.848931 0.161352 -2 -1 2 
5161 5 0.372286 0.859329 0.159388 4 4 -1 
6572 6 0.322649 0.88785 0.151047 3 2 5 
8761 5 0.0657604 0.926337 0.103995 -1 -6 2 
7919 5 0.272246 0.860146 0.156223 7 -3 -1 
6887 5 0.80129 0.924728 0.135994 -3 1 -3 
6051 5 0.0421021 0.930371 0.110785 -3 1 2 
8353 6 0.25402 0.980389 0.144174 1 -3 3 
5448 5 0.203443 0.983507 0.156056 4 -1 -2 
5276 5 0.470087 0.0752286 0.183471 -1 -5 0 
8236 5 0.945495 0.0495304 0.195832 1 2 4 
5796 6 0.330168 0.0471634 0.19618 -3 5 2 
8303 5 0.943225 0.0672391 0.164139 1 6 1 
8432 5 0.618072 0.114868 0.135794 -2 1 1 
5146 5 0.902862 0.0903345 0.15992 2 4 2 
5875 5 0.133613 0.109581 0.162269 -1 -1 -2 
8186 5 0.347538 0.117969 0.144157 3 4 1 
7739 6 0.648046 0.0920319 0.155888 1 -1 -1 
8833 5 0.313837 0.120986 0.182045 -3 -4 1 
5672 5 0.805472 0.139166 0.176056 -3 0 -2 
6079 5 0.700134 0.171367 0.198282 0 2 0 
6677 5 0.963096 0.121483 0.190791 2 2 -1 
7438 6 0.517094 0.162694 0.142572 -6 -2 -2 
5343 5 0.074188 0.183325 0.151823 -5 1 -3 
6664 6 0.769905 0.193379 0.134212 -2 4 0 
8889 5 0.812301 0.201375 0.150986 1 -2 4 
5169 5 0.285847 0.250467 0.156359 0 1 5 
6446 6 0.429307 0.224663 0.180706 -3 1 6 
6489 6 0.749946 0.222484 0.169063 2 1 -1 
6855 5 0.316547 0.233548 0.166122 -3 4 1 
6349 5 0.64672 0.275708 0.179141 3 5 1 
5614 6 0.0751755 0.324554 0.194921 -6 -1 -5 
8414 5 0.331371 0.270222 0.137692 1 0 2 
8122 6 0.567106 0.250791 0.13998 3 1 -6 
8004 6 0.490585 0.312899 0.200984 4 -1 -3 
5031 6 0.626785 0.344317 0.157797 -5 4 -3 
6134 5 0.989684 0.321858 0.181035 0 -4 1 
8381 5 0.190538 0.342743 0.157366 3 -1 -8 
8120 5 0.833419 0.348685 0.17816 4 1 1 
6486 6 0.0933481 0.39 0.139288 3 1 10 
5470 6 0.138369 0.422521 0.169324 5 -1 -1 
8042 6 0.619606 0.392976 0.20017 5 0 2 
7423 6 0.177238 0.450379 0.19738 0 -7 1 
7874 5 0.268689 0.383639 0.144717 3 2 4 
6084 6 0.34732 0.395133 0.1188 2 -3 -5 
6397 6 0.0855855 0.449355 0.174533 -1 -1 0 
8528 6 0.271028 0.438524 0.184346 3 0 -3 
7088 6 0.105814 0.440837 0.185986 0 -2 -1 
8734 6 0.748473 0.434407 0.212781 0 1 0 
5878 6 0.173389 0.508669 0.188638 -3 -3 -2 
7242 5 0.203301 0.441477 0.158106 -3 4 6 
6854 5 0.783634 0.507994 0.184558 -1 3 1 
8324 6 0.913175 0.500735 0.212817 2 -2 -1 
5993 5 0.289223 0.504573 0.166304 2 0 0 
8643 5 0.467204 0.54869 0.151736 4 3 0 
5805 5 0.56558 0.478586 0.177322 1 4 -4 
5309 5 0.192598 0.570085 0.162754 -1 -1 -1 
6307 5 0.40932 0.513815 0.13777 4 -2 -3 
6254 5 0.613608 0.584232 0.142926 -2 -1 1 
5206 6 0.85953 0.524877 0.157207 4 -1 0 
6100 6 0.12223 0.546163 0.163937 -3 -6 2 
5098 6 0.224989 0.581477 0.181846 1 1 -1 
7498 6 0.651279 0.518118 0.154198 0 -4 3 
7475 6 0.130666 0.593686 0.133535 2 1 -1 
6721 6 0.709173 0.601669 0.140329 -3 -2 0 
6642 6 0.793801 0.553182 0.177713 -4 -2 -6 
7294 5 0.0353313 0.60502 0.173763 1 -5 2 
7879 5 0.229062 0.588686 0.136273 2 1 5 
8425 6 0.590023 0.590533 0.168276 1 0 5 
7763 6 0.0658972 0.623324 0.154795 -5 0 1 
5494 5 0.891428 0.654118 0.170472 -3 -2 -6 
7703 5 0.520048 0.645713 0.127304 -1 0 5 
8986 6 0.588791 0.647672 0.161406 -1 -2 3 
6175 6 0.741338 0.662886 0.20334 -5 2 4 
7350 6 0.0500053 0.697753 0.192376 1 2 -2 
5258 5 0.137373 0.683299 0.17291 1 5 -1 
6874 5 0.829904 0.73919 0.163868 2 6 4 
5546 6 0.301052 0.734975 0.151447 0 0 4 
6822 6 0.427271 0.721937 0.160072 -1 -1 3 
7736 6 0.986666 0.682448 0.179648 -1 -1 -3 
8552 6 0.079436 0.765329 0.194578 -7 7 2 
7051 6 0.272607 0.744859 0.222365 2 3 3 
8689 6 0.709722 0.750384 0.181824 0 3 -1 
5700 6 0.987558 0.757192 0.186748 0 3 2 
8210 5 0.364423 0.844591 0.149177 -2 -4 -1 
6066 5 0.947173 0.904934 0.143983 0 -7 0 
5511 5 0.961613 0.838856 0.182374 -3 -1 3 
8931 5 0.0189155 0.926069 0.150604 2 1 4 
7591 5 0.0133823 0.902308 0.197246 2 -5 0 
6944 6 0.948491 0.931556 0.184188 1 5 -3 
8941 6 0.35473 0.918925 0.172073 3 3 2 
6545 6 0.737213 0.952466 0.191018 -4 4 -3 
8482 6 0.650436 0.0210908 0.204823 2 2 -1 
7351 5 0.794409 0.993668 0.166093 0 2 -2 
7189 5 0.338116 0.0679551 0.20326 1 1 -5 
8940 6 0.985196 0.979282 0.156163 -4 -3 -3 
6943 6 0.229112 0.0351214 0.200305 -4 1 3 
6559 5 0.463993 0.0253105 0.217642 0 -3 -1 
8406 5 0.643387 0.0526076 0.158511 2 -3 -3 
8865 6 0.932493 0.00216629 0.185779 -1 -2 4 
8715 5 0.937358 0.0705651 0.199248 0 2 -1 
5722 6 0.419815 0.0522727 0.177126 4 -2 -1 
6625 6 0.937344 0.0456295 0.162185 3 -5 0 
6731 6 0.264309 0.101461 0.17375 1 -1 4 
5439 6 0.567784 0.0871904 0.234878 0 5 -3 
7135 5 0.270559 0.0687904 0.206254 -6 2 -1 
6106 6 0.504337 0.129267 0.206005 -1 -3 1 
7316 6 0.571063 0.0894574 0.160513 -5 3 4 
8960 5 0.294848 0.128934 0.187299 -2 0 -4 
8052 5 0.495628 0.209853 0.204468 -1 -2 1 
5021 6 0.889159 0.15099 0.191121 -4 4 1 
8364 6 0.86543 0.191901 0.157926 2 2 3 
8267 6 0.834791 0.218431 0.169763 -3 1 2 
5362 5 0.448839 0.283065 0.205151 3 -4 2 
6766 5 0.86707 0.244516 0.133181 1 -5 2 
7429 5 0.0174646 0.306386 0.220931 -1 0 3 
5393 5 0.477239 0.350646 0.149845 3 -3 -1 
6522 6 0.747592 0.313243 0.183302 -4 2 -2 
6883 6 0.82264 0.335569 0.199433 4 2 -1 
6549 6 0.881324 0.364589 0.14829 1 -2 2 
6188 5 0.182181 0.389651 0.183338 2 -4 -6 
8430 5 0.654814 0.454239 0.187156 -3 -2 3 