ITEM: TIMESTEP
20000000
ITEM: NUMBER OF ATOMS
9000
ITEM: BOX BOUNDS pp pp pp
-75 75
-75 75
-75 75
ITEM: ATOMS id type xs ys zs ix iy iz 
7633 5 0.258669 0.985667 0.977458 -4 0 -1 
5991 5 0.444646 0.0223147 0.0188391 1 3 -3 
5464 6 0.730364 0.0377725 0.0331237 1 -7 -1 
7960 6 0.741429 0.0342381 1.00343 -1 -3 0 
8118 6 0.262506 0.0443195 0.997994 5 -3 -6 
6314 5 0.885929 0.0127131 0.0389796 3 4 3 
6821 5 0.549186 0.0231384 0.0253836 -1 1 -1 
8989 5 0.319081 0.0659909 0.0227744 -2 0 0 
5928 6 0.670981 0.116882 0.0210181 -3 -2 -1 
8025 6 0.90747 0.0831603 0.0277203 -1 3 2 
8497 6 0.570495 0.139835 0.977904 2 -2 1 
7929 5 0.977099 0.14161 0.0366349 -2 3 3 
5835 5 0.233473 0.171868 0.935358 -3 1 3 
5604 6 0.877357 0.142338 0.00448264 -2 -5 2 
6688 6 0.0456197 0.210565 0.0174079 6 4 -1 
5328 6 0.731979 0.148748 0.0071122 -1 -3 5 
6990 6 1.00105 0.19891 0.0266172 4 0 3 
7964 5 0.430331 0.21112 0.985936 3 2 1 
5378 5 0.969816 0.206389 0.976362 1 2 0 
5137 5 0.521536 0.238957 0.0059221 -2 -2 3 
8443 6 0.523311 0.2747 0.0214456 -2 1 -1 
6801 5 0.80187 0.284515 0.0061626 -3 5 3 
7119 6 0.0598972 0.291742 0.0300254 -1 1 1 
7192 6 0.290242 0.305043 0.00704583 0 0 3 
6817 6 0.807056 0.300618 0.03761 -2 2 3 
8028 6 0.327989 0.36098 0.0320419 -3 -7 -2 
5779 6 0.402106 0.344425 0.988771 -3 0 0 
5491 6 0.546221 0.355027 0.0502741 0 0 -1 
6987 6 0.780254 0.341589 0.0174474 -1 1 0 
8110 5 0.926986 0.345218 0.997148 -3 0 2 
8059 6 0.379577 0.37931 0.0203952 1 0 4 
5701 6 0.533381 0.329582 0.0227589 5 0 0 
6704 5 0.65648 0.383158 0.00563741 2 -1 5 
5268 6 0.719262 0.34509 0.982041 2 1 2 
6275 6 0.114856 0.426596 0.010086 -3 -2 2 
5132 5 0.711809 0.355672 0.0188907 1 0 4 
8223 5 0.828129 0.378134 0.975093 -5 -3 3 
7089 6 0.92099 0.375557 0.0264011 -3 -1 1 
6918 6 0.24186 0.400929 0.0265082 -3 -1 1 
6856 5 0.776009 0.400879 0.991785 -2 1 -4 
6331 6 0.942064 0.438045 1.00306 -5 0 1 
8097 6 0.968261 0.423782 0.0316261 -2 -2 1 
8509 6 0.342327 0.473812 0.0094966 -2 -6 1 
5253 6 0.789155 0.462995 0.0321234 3 1 -4 
5134 6 0.0692974 0.403417 0.983011 4 7 0 
6637 6 0.47093 0.447312 0.0238968 7 -4 4 
8855 5 0.595998 0.462639 0.0159972 -4 -1 4 
5324 5 0.783712 0.480721 0.0240856 -4 -2 1 
7773 6 0.969263 0.484751 0.00174115 3 6 2 
7293 5 0.100498 0.478483 0.99538 1 3 3 
7122 6 0.766653 0.514887 0.966334 1 -4 0 
7138 6 0.832553 0.513824 0.956828 2 0 3 
7310 5 0.0230925 0.550441 0.00549732 1 1 0 
7503 6 0.371149 0.518184 1.00368 -2 -3 0 
8651 5 0.50252 0.506637 0.0297455 -1 1 -1 
5954 6 0.536114 0.565429 0.0245753 -2 -3 -1 
7289 5 0.172564 0.540768 0.0135486 2 1 -4 
6141 6 0.144242 0.568849 0.994984 -8 1 -2 
6780 6 0.35435 0.580811 0.00682687 -2 1 -3 
7345 5 0.612145 0.566109 0.0114722 0 1 2 
5177 6 0.851698 0.564283 1.00105 1 -2 -2 
6483 6 0.147687 0.621755 0.00252321 -1 0 3 
5392 6 0.430601 0.62431 0.00150138 -1 2 1 
8018 6 0.731959 0.618629 0.0227215 2 5 3 
6832 5 0.804241 0.58394 0.015198 1 2 1 
5557 6 0.137162 0.58076 0.0188612 -4 -1 1 
8755 6 0.76333 0.640464 0.0427045 -2 1 -4 
7989 5 0.221097 0.657659 0.982479 3 1 2 
8212 6 0.441875 0.613887 0.0280395 -2 -2 0 
8887 5 0.659207 0.633019 0.0484059 -5 1 3 
7078 6 0.72663 0.688207 0.975942 2 7 -5 
8787 5 0.449049 0.659042 0.0325558 -1 4 -4 
8182 6 0.486027 0.652353 0.0382084 -3 -1 -2 
8075 6 0.593376 0.676448 0.0193619 -4 0 -5 
6336 5 0.722599 0.684595 0.0205017 -2 6 4 
7616 5 0.266335 0.682779 0.039473 4 2 3 
6181 6 0.418397 0.657374 0.999891 -2 5 2 
7365 6 0.690292 0.727288 0.044665 -1 2 2 
6731 5 0.912154 0.711909 0.0253396 0 2 3 
6648 6 0.0681682 0.768905 0.0132416 -1 -1 -1 
6834 5 0.385979 0.741212 0.0136494 -5 1 -4 
6229 6 0.582443 0.819974 0.0390723 5 -3 0 
5907 6 0.189012 0.767387 0.0109414 2 -2 -3 
8371 6 0.292938 0.811899 0.00418878 1 -1 2 
8719 5 0.316413 0.797393 0.997341 1 2 1 
6486 6 0.408306 0.828374 0.0236595 -1 -5 2 
6046 5 0.462667 0.845347 0.98194 2 3 3 
8391 6 0.703024 0.840659 0.00504743 4 2 3 
7172 5 0.378165 0.870729 0.00657303 -1 1 2 
6097 5 0.172263 0.847703 0.0431276 2 -3 3 
5454 6 0.351382 0.913863 0.0119868 3 0 -3 
5585 6 0.48092 0.91152 0.987686 5 3 3 
6733 6 0.609012 0.849821 0.0562949 -3 0 0 
7308 5 0.0591638 0.90834 0.0325405 -3 -2 1 
5957 6 0.11992 0.876612 0.0237908 -1 -3 1 
8996 5 0.134503 0.929009 0.011106 -1 0 -1 
5825 6 0.405039 0.938134 0.0239227 0 -4 4 
5465 6 0.701747 0.915715 0.0311196 1 3 2 
6452 5 0.391083 0.928334 0.0157282 3 0 -3 
6554 6 0.0548885 0.977501 0.035439 0 2 2 
6772 5 0.685208 0.0144598 0.039115 1 1 -8 
8320 6 0.175125 0.978817 0.0323001 -1 7 1 
7098 6 0.466887 0.0398556 0.0322249 7 1 4 
5169 5 0.600373 0.0192721 0.987737 0 0 5 
7725 6 0.102424 0.0595045 0.0316252 0 -1 3 
7939 6 0.626387 0.021676 0.0307868 -1 0 1 
8711 6 0.784035 0.0661129 0.0513543 2 0 -3 
8543 6 0.952527 0.0384787 0.0245828 -2 -1 -1 
7927 6 0.461698 0.134979 0.0230061 0 -4 4 
8899 5 0.798586 0.0849195 0.0448438 0 -5 -1 
6082 5 0.593493 0.103367 0.037408 -1 3 0 
8343 5 0.112075 0.148707 0.0263622 4 7 -3 
5930 5 0.20492 0.126079 0.0319584 1 -2 -2 
5478 6 0.466377 0.112567 0.0420235 -3 5 -1 
7501 6 0.940894 0.0961361 0.0436978 3 5 0 
7363 5 0.53795 0.156704 0.03509 -1 4 6 
6598 6 0.831691 0.200832 0.990173 -3 -1 -5 
8998 6 0.836977 0.188009 0.000102118 0 5 2 
7993 6 0.233803 0.169359 0.0264982 5 1 -1 
6664 5 0.639597 0.202336 0.00642983 1 -1 3 
8634 5 0.826247 0.21517 0.0490862 -4 4 0 
6451 5 0.654952 0.224942 0.0613291 -3 0 0 
5139 5 0.450908 0.291714 0.00852473 2 5 1 
7142 5 0.594694 0.281133 0.0119667 1 3 1 
8677 6 0.986253 0.293291 0.0324435 -5 2 3 
7391 6 0.0654062 0.303336 0.0450161 0 -6 4 
7155 6 0.91184 0.324595 0.0463958 -1 2 -2 
7778 6 0.281579 0.320495 0.0336847 0 -1 2 
6813 6 0.986087 0.385376 0.0119465 -3 -1 -2 
5773 5 0.131183 0.342323 0.0511684 0 0 3 
7578 5 0.241694 0.3552 0.0288787 -5 -4 -2 
7485 6 0.506147 0.355103 0.996387 -2 2 -2 
8394 6 0.194953 0.387866 0.0147046 -2 0 3 
8847 5 0.200337 0.401784 0.0228369 -3 -1 0 
8542 5 0.620987 0.399894 1 -4 -2 -4 
6137 6 0.805187 0.349085 0.0456713 -2 3 4 
5921 5 0.559985 0.397607 0.0596408 2 2 1 
7054 6 0.966401 0.422563 0.0724764 -2 -3 3 
7334 6 0.0546514 0.407225 0.0441696 0 0 -3 
7210 5 0.188613 0.424401 0.0550697 -1 5 -3 
7146 6 0.341021 0.446617 0.00907831 0 -1 1 
6119 5 0.830362 0.395873 0.0144924 -3 0 -4 
6882 6 0.141475 0.475456 0.0274607 2 -2 1 
8549 6 0.355739 0.467461 0.0332913 -1 -6 4 
8339 6 0.43251 0.458675 0.0460375 1 0 2 
8254 6 0.716047 0.487107 0.0364998 2 -4 4 
5686 5 0.757185 0.45457 0.0454516 0 -4 -1 
7802 5 0.986861 0.46167 0.034018 -7 2 -1 
8626 6 0.452816 0.504339 0.988546 0 2 -2 
7470 5 0.525208 0.475156 0.0680362 3 -4 -1 
8457 5 0.758159 0.506098 0.0353239 2 -2 6 
8433 5 0.241672 0.510094 0.025231 5 -5 -2 
5949 6 0.418264 0.536549 0.0400886 -1 6 2 
5741 6 0.524192 0.58788 0.986456 -3 1 2 
5818 5 0.586442 0.510767 0.0693475 -4 0 2 
8476 6 0.507331 0.594177 0.0206733 -1 0 4 
5774 6 0.704725 0.548079 0.0407764 -2 -1 4 
8661 6 0.367385 0.575015 0.00261998 -2 0 3 
8187 5 0.817566 0.604008 0.0464202 3 -2 -2 
8734 6 0.247145 0.608141 0.0032328 -5 -2 0 
7997 6 0.405216 0.686916 0.0342225 0 -7 2 
5842 6 0.0874885 0.675167 0.0375451 -1 -1 -4 
7511 5 0.0867296 0.694062 0.0652386 -2 -2 4 
6310 6 0.321182 0.734964 0.0550153 3 -3 4 
8764 5 0.359928 0.75293 0.0521304 0 -4 1 
7215 6 0.55836 0.72266 0.0311319 0 5 3 
7561 5 0.598044 0.754039 0.0419181 4 4 1 
6982 5 0.0521194 0.70785 0.0207982 2 -2 1 
6746 6 0.0848579 0.717024 0.0448947 -2 0 1 
6384 6 0.762716 0.768119 0.0235491 2 -2 1 
8628 6 0.199177 0.803288 0.0315179 -3 -5 2 
7237 5 0.388065 0.776225 0.0445671 5 -2 2 
7869 6 0.465915 0.779076 0.995841 0 -4 -5 
7505 5 0.0161384 0.799761 0.0502963 2 2 -1 
7930 6 0.18838 0.771461 0.0760411 3 -1 1 
8784 6 0.765926 0.809537 0.0447962 -1 1 6 
6391 5 0.441165 0.841428 0.0395172 3 -1 -5 
5657 6 0.446278 0.882306 0.0604595 -1 -4 -2 
7405 5 0.490221 0.863934 0.0292262 -3 -3 2 
8558 6 0.897961 0.880075 0.0164503 -4 -8 -4 
5142 5 0.0347583 0.894387 0.0495753 0 0 1 
5601 5 0.151444 0.936391 0.0257133 -2 2 1 
7734 6 0.566681 0.846487 0.0437549 -3 10 -1 
7211 5 0.185945 0.936084 0.0230276 0 -2 1 
8090 6 0.789501 0.924841 0.0518546 0 -3 2 
5600 5 0.260949 0.939025 0.0386508 -4 -2 4 
6096 5 0.676902 0.919016 0.0634122 0 -2 8 
7535 5 0.656566 1.00206 0.990862 2 8 4 
6105 6 0.731247 0.983977 0.00428894 0 2 1 
8340 5 0.852846 0.962566 0.0698306 -2 -8 -4 
8533 5 0.810522 -0.00019519 0.0154649 -2 6 -1 
7692 6 0.900747 0.968652 0.0375475 3 -4 -2 
6152 6 0.300168 0.00802027 0.0429073 -1 3 2 
5943 5 0.418469 0.033711 0.0803037 -1 0 -4 
5848 6 0.589637 0.0563718 0.0630378 4 -4 -3 
8045 6 0.405646 0.0334766 0.0496005 -2 3 -2 
8559 6 0.0681671 0.0920884 0.0567054 4 1 -1 
8099 5 0.135299 0.12306 0.052057 5 2 3 
5356 5 0.562379 0.0766942 0.0476298 3 1 3 
7207 6 0.720745 0.0928597 0.0572305 0 -1 1 
5327 6 0.914505 0.0934646 0.0224783 1 -2 4 
8927 5 0.181021 0.138236 0.076451 4 2 1 
8647 6 0.764712 0.11004 0.0491347 4 -2 1 
5277 5 0.174948 0.188965 0.0362681 -1 -3 2 
8592 5 0.676624 0.230502 0.0515771 3 9 5 
8230 5 0.725437 0.174518 0.0617882 -6 -2 0 
8437 5 0.604844 0.174028 0.0571156 0 -1 0 
8446 6 0.951381 0.213075 0.0612785 1 -4 2 
7478 6 0.0544747 0.201718 0.0666103 -1 -3 2 
5668 5 0.372033 0.219514 0.0394922 -4 -4 -5 
6912 6 0.570453 0.212173 0.0214117 4 1 3 
7504 6 0.551567 0.198695 0.0797584 7 3 2 
6572 5 0.980678 0.20869 0.0838987 5 0 -1 
6134 5 -0.000956723 0.219886 0.090225 -2 -1 -3 
7717 5 0.984084 0.208917 0.06948 1 1 2 
8069 6 0.68098 0.25253 0.0498579 -2 7 1 
8113 5 0.701989 0.280573 0.0247862 -4 -5 4 
6507 5 0.371571 0.295171 0.0666609 3 0 -2 
8072 6 0.992286 0.327453 0.0604968 -7 -5 1 
8910 6 0.0686037 0.277015 0.0906296 2 2 1 
7506 6 0.0549678 0.269505 0.0587888 2 3 -1 
8177 5 0.703995 0.293163 0.0533929 -3 -3 -1 
6244 6 0.364086 0.321554 0.07508 -1 0 0 
5828 6 0.401198 0.322652 0.0494418 2 2 11 
7095 6 0.502221 0.312892 0.0725767 -1 0 -3 
5282 5 0.0134465 0.34337 0.0397244 3 -1 8 
7193 5 0.0759683 0.360703 0.0411616 -3 2 3 
6940 5 0.246373 0.351186 0.0778921 -2 -2 5 
8668 6 0.0495525 0.384237 0.0958152 -5 1 -2 
7309 5 0.340071 0.36913 0.0704875 -4 6 2 
8518 6 0.75931 0.389637 0.0553258 0 0 0 
5034 5 0.880882 0.437938 0.0473978 -1 -5 -2 
5603 5 0.824335 0.408521 0.0241209 -1 6 -1 
8817 6 0.341656 0.447513 0.0851453 -2 -5 -5 
5712 6 0.483177 0.486721 0.0453416 -3 -4 -4 
7281 5 0.974664 0.54252 0.0659819 4 4 1 
5412 5 0.913922 0.525453 0.0551973 -5 1 6 
5935 6 0.028227 0.52884 0.0973987 4 -1 -2 
7667 6 0.844968 0.503862 0.0788998 -2 -1 2 
6064 6 0.032742 0.54477 0.0485192 -2 -6 2 
5824 6 0.38257 0.527588 0.0361171 -2 -2 1 
8707 5 0.55546 0.543373 0.096962 2 1 -3 
8936 6 0.914641 0.56678 0.0647009 -1 0 -2 
5201 5 0.371875 0.574248 0.0694605 2 4 1 
8014 5 0.41465 0.636786 0.0857614 3 -5 -3 
5247 6 0.153053 0.607489 0.0429728 -2 -1 -1 
6052 6 0.913965 0.616684 0.0518198 -1 -1 4 
8318 5 0.459266 0.613402 0.0629398 2 -2 0 
8514 6 0.208084 0.677685 0.0768599 -2 0 2 
5128 5 0.20367 0.712518 0.0733521 1 1 -3 
8188 6 0.404844 0.670974 0.0465707 1 0 1 
7005 6 0.568273 0.672343 0.0707031 -1 -1 -1 
8228 6 0.667214 0.682235 0.0522806 0 -1 -2 
6115 6 0.673471 0.729243 0.0741632 0 3 2 
5436 6 0.17096 0.738982 0.0648908 1 0 1 
5096 6 0.357577 0.715315 0.0533576 -1 0 -1 
8911 6 0.0204434 0.730262 0.0381528 0 -1 5 
8263 5 0.256823 0.757758 0.0649838 3 3 2 
7162 5 0.702913 0.766073 0.0771343 -2 1 -1 
5240 5 0.342929 0.771805 0.0338073 4 4 -2 
5048 6 0.905733 0.761958 0.0673446 4 -4 0 
6764 6 0.0420296 0.760443 0.0662263 -7 -2 3 
8962 6 0.0405544 0.84238 0.065206 -1 2 4 
8977 6 0.128022 0.844934 0.0272743 3 1 -3 
6908 5 0.513641 0.833155 0.0449278 -1 0 -2 
8548 6 0.783323 0.799287 0.0793338 -1 0 -1 
5308 5 0.0670113 0.938072 0.0806054 4 -3 -7 
5337 5 0.8061 0.988783 0.0295363 0 0 -3 
7545 6 0.886819 0.997092 0.0479405 1 -3 2 
8253 6 0.547392 0.039009 0.0270898 -3 4 -1 
5231 6 0.791057 0.0523172 0.0863285 1 -4 -1 
8903 5 0.24461 0.0707456 0.0973711 3 -1 -1 
7316 6 0.463702 0.0832082 0.0756362 -6 -1 4 
8925 6 0.469888 0.120894 0.0908044 -2 2 1 
7275 5 0.450456 0.111051 0.069468 -2 0 0 
6366 6 0.110586 0.168947 0.0737372 -4 -3 -1 
6059 5 0.0769522 0.197019 0.0781482 0 3 -3 
7675 6 0.63125 0.185724 0.0746844 -1 -3 1 
6603 6 0.768209 0.196244 0.0793588 2 -5 -2 
7425 5 0.266243 0.213739 0.0754502 -3 1 0 
7743 5 0.0151735 0.23557 0.0960253 4 -7 4 
5510 5 0.109683 0.283545 0.0499535 4 2 2 
5073 5 0.343481 0.240864 0.0680053 3 -2 -4 
8421 5 0.235508 0.259638 0.0881672 3 -1 5 
6237 5 0.342603 0.275955 0.0452399 -1 7 0 
8019 6 0.856214 0.293101 0.0751505 0 -2 -5 
7926 5 0.483505 0.332292 0.117337 1 0 -1 
8471 5 0.0600069 0.366851 0.101252 6 5 1 
6268 5 0.177274 0.366412 0.0439647 -1 -2 2 
5419 5 0.442613 0.381312 0.085144 -1 -3 0 
7475 6 0.69857 0.324318 0.081168 0 -3 1 
8552 5 0.495696 0.394059 0.105144 3 6 -3 
7655 5 0.0848518 0.391297 0.0791258 4 -3 -1 
5437 5 0.428302 0.394967 0.0848749 1 0 -3 
6836 6 0.89002 0.410189 0.0935625 -1 0 3 
5288 5 0.645343 0.437182 0.0976029 -1 4 0 
6000 6 0.798973 0.417436 0.084865 -4 -6 -1 
7801 6 0.194091 0.440178 0.0572829 0 3 -1 
8892 5 0.675576 0.40692 0.032639 1 3 0 
8374 5 0.572323 0.492106 0.126079 2 5 -2 
6909 6 0.881732 0.470134 0.0870584 4 2 2 
5207 5 0.974173 0.502323 0.0795944 0 -1 -6 
5733 6 0.381652 0.554922 0.131522 0 0 8 
5050 5 0.881324 0.557482 0.060745 -6 -4 2 
6659 6 0.995203 0.563827 0.122193 3 0 -2 
6574 6 0.025293 0.595213 0.0634359 0 -4 1 
8786 6 0.0606914 0.600265 0.0957685 -1 2 1 
6474 5 0.118787 0.598711 0.100103 1 -2 -3 
8528 6 0.411887 0.592024 0.053057 3 0 3 
8080 5 0.545581 0.579977 0.0782273 -2 3 -3 
5947 5 0.581462 0.592009 0.0963829 0 -2 0 
6578 6 0.472616 0.56415 0.0736252 4 -4 3 
8804 6 0.563812 0.610642 0.083213 -4 2 0 
5538 5 0.654076 0.626311 0.0695028 -5 5 1 
6216 6 0.801634 0.6156 0.0721426 2 7 -4 
7610 6 0.95754 0.636783 0.0793254 -3 0 3 
7159 5 0.186737 0.640774 0.0360181 -4 -4 5 
6500 6 0.518129 0.639913 0.0694527 0 -6 3 
7125 5 0.586372 0.658534 0.0470562 -8 0 -1 
7948 5 0.962036 0.66374 0.0886218 -2 2 0 
5363 6 0.0760891 0.67445 0.0655988 0 5 1 
7001 5 0.502863 0.716908 0.109191 2 2 3 
7756 5 0.923431 0.682842 0.0463467 2 -1 6 
5239 5 0.363885 0.694681 0.103163 5 0 -1 
8365 6 0.693366 0.690343 0.0828969 -2 -6 -2 
6200 6 0.832245 0.69303 0.117371 -4 0 1 
6707 6 0.650273 0.712199 0.12431 5 1 0 
5104 6 0.392829 0.817683 0.0618055 3 -3 1 
6347 6 0.158307 0.802511 0.0916768 2 -4 -1 
8495 6 0.121795 0.80606 0.0651046 -2 -3 -5 
8356 6 0.35052 0.819347 0.0677761 0 -3 -2 
5503 5 0.775491 0.831187 0.0929081 -3 -4 3 
5106 6 0.366269 0.809826 0.0648595 -1 1 3 
6727 6 0.504063 0.86804 0.0588907 -1 -2 0 
5237 6 0.986218 0.863519 0.0609505 0 -5 1 
6994 6 -0.000436491 0.870365 0.10534 -2 4 2 
5359 5 0.349282 0.877233 0.0443321 -1 4 1 
8296 6 0.794519 0.880498 0.091527 2 4 3 
8685 6 0.572012 0.868742 0.0626665 3 1 -1 
7508 6 0.694387 0.928922 0.0626151 -1 1 0 
7489 6 0.383748 0.9343 0.109789 -1 -3 -1 
5304 5 0.414607 0.984682 0.116341 3 6 2 
5489 6 0.716404 0.978012 0.0966892 2 -4 2 
5381 6 0.94335 0.903766 0.0874878 -2 0 2 
6595 5 0.0421117 0.936222 0.0761419 3 2 1 
7265 5 0.241092 0.968673 0.0613061 1 3 -2 
5667 6 0.408127 0.970684 0.0692547 2 -3 1 
8179 6 0.484592 0.988992 0.0859336 -1 2 4 
8222 6 0.943766 0.989893 0.0556189 -1 -5 -2 
7683 5 0.312189 0.984599 0.140519 2 1 2 
6285 5 0.716051 0.021271 0.0926952 0 2 -6 
7598 5 0.665547 0.0100066 0.127607 -4 2 2 
5301 6 0.758432 0.9527 0.123583 -4 1 3 
8723 5 0.114576 0.00507446 0.0405564 -2 0 2 
6072 6 0.47909 0.0460057 0.141 -1 1 0 
5043 6 0.716671 0.0265652 0.127792 -2 -4 3 
8240 5 0.732989 0.0335741 0.151553 -4 1 1 
8117 5 0.552724 0.0552553 0.103115 -1 -2 2 
8413 6 0.252377 0.102728 0.108113 7 0 3 
7979 6 0.823157 0.0684308 0.0796529 1 -5 -5 
5171 5 0.982313 0.0528144 0.131682 0 2 -2 
8257 5 0.83422 0.1079 0.108018 -6 -3 3 
8811 6 0.388025 0.137985 0.119628 1 2 3 
6844 5 0.501359 0.112556 0.104776 0 -1 -6 
6723 6 0.646871 0.136453 0.0952011 -1 3 1 
6016 6 0.842509 0.128005 0.079001 4 -2 5 
5756 6 0.115924 0.190238 0.076609 -2 -2 4 
6393 5 0.727241 0.16622 0.0998306 2 0 -1 
8959 5 1.00222 0.206631 0.0736853 1 0 1 
5386 6 0.0724979 0.199381 0.0956219 3 -3 0 
6837 5 0.258693 0.169628 0.0974858 -3 1 4 
6195 6 0.69315 0.208066 0.103924 -1 -5 0 
8460 6 0.599695 0.316663 0.092668 0 1 2 
7319 6 0.688742 0.223559 0.125781 -3 2 3 
6432 6 0.327019 0.271487 0.0650562 1 2 -1 
8199 5 0.740425 0.421565 0.119644 -1 2 3 
8313 5 0.800653 0.434685 0.133389 6 -3 -5 
7887 6 0.942055 0.398292 0.129623 0 0 1 
8057 5 0.398188 0.41681 0.110957 -4 2 0 
5123 5 0.354413 0.45214 0.135996 3 -5 -2 
5898 5 0.499862 0.450392 0.121576 -3 3 0 
6535 6 0.615839 0.451765 0.093038 -2 3 1 
7830 6 0.576857 0.454415 0.0909316 3 -2 -7 
8386 6 0.681907 0.439488 0.0878664 -3 -4 0 
7771 6 0.769794 0.42064 0.0778972 4 3 2 
5554 6 0.885554 0.474483 0.123748 5 0 1 
5707 5 0.139027 0.453152 0.069154 7 1 -3 
7739 5 0.482718 0.45577 0.117068 -4 -2 3 
7795 5 0.568787 0.474831 0.0848806 0 -3 3 
7696 6 0.699323 0.422097 0.0984225 -4 2 -1 
8260 5 0.335614 0.466554 0.0883471 -6 -1 -2 
5849 5 0.35075 0.460582 0.103068 -2 0 2 
7991 6 0.767434 0.485748 0.101361 -2 0 -1 
7525 6 0.102148 0.549136 0.131439 1 -2 2 
6890 5 0.984336 0.593457 0.126219 3 7 4 
5556 5 0.544783 0.547049 0.090018 -2 3 -1 
5305 6 0.951835 0.617963 0.106186 3 -6 -2 
8227 6 0.769679 0.595835 0.124973 -1 4 -2 
6590 6 0.471069 0.653964 0.0508518 -1 2 -2 
6094 5 0.625516 0.679895 0.102195 0 1 -1 
8797 5 0.906394 0.627901 0.0720633 1 -1 -1 
7409 5 0.427028 0.634341 0.0641912 -2 3 0 
5727 5 0.601701 0.690084 0.115006 3 0 1 
7847 5 0.0692545 0.725301 0.11074 -3 -2 3 
8672 6 0.770574 0.72805 0.132923 0 -3 -4 
5189 5 0.170869 0.780199 0.0983643 1 -5 -4 
8740 6 0.748202 0.77399 0.119751 3 -1 -1 
7910 5 0.649858 0.882738 0.10673 0 -3 4 
7443 6 0.0662507 0.86484 0.117557 6 2 0 
7031 5 0.331556 0.866804 0.101974 -3 0 6 
6581 5 0.336913 0.87403 0.163296 6 -4 -4 
7390 6 0.866162 0.848829 0.107625 -4 0 2 
5814 6 0.563301 0.859952 0.0858455 -1 0 6 
5728 6 0.424218 0.87318 0.110665 0 5 0 
8248 6 0.97092 0.885465 0.112598 -5 -3 -5 
6980 5 0.151994 0.927879 0.0931786 -1 1 -1 
5059 6 0.285306 0.908697 0.0698465 3 -3 -3 
8652 5 0.417867 0.938298 0.0776999 1 2 2 
8547 6 0.342193 0.92153 0.0975453 1 -1 -1 
8671 5 0.708122 0.997954 0.112962 2 3 1 
6325 6 0.434111 0.995943 0.110969 0 -5 0 
5817 5 0.254829 0.0277302 0.152531 3 6 1 
5108 5 0.134073 0.0170448 0.131385 -1 1 1 
8285 5 0.56256 0.0633486 0.135375 0 2 6 
7784 6 0.945923 0.0196171 0.138019 -2 -2 0 
8730 6 0.339741 0.0509159 0.123356 0 0 0 
5502 5 0.898471 0.0130172 0.123092 -3 2 -1 
6977 6 0.192186 0.0560468 0.120856 0 5 -3 
8387 6 0.099862 0.0687612 0.148369 -6 6 3 
6654 6 0.0126666 0.082208 0.117643 2 4 -1 
7731 5 0.0250365 0.150233 0.125222 -4 3 0 
5452 6 0.111959 0.132259 0.134107 1 -3 2 
6600 6 0.170841 0.111114 0.113461 1 3 2 
6785 5 0.604739 0.166084 0.113896 4 -3 3 
5611 5 0.0439149 0.191419 0.14253 3 1 -1 
6497 6 0.425276 0.157995 0.135037 -1 0 2 
8184 6 0.612193 0.180293 0.10668 3 -1 -1 
8614 5 0.814173 0.14684 0.135564 0 2 -1 
8824 5 0.069587 0.162605 0.125072 2 -2 2 
6739 5 0.847157 0.197672 0.142983 2 2 5 
8638 5 0.836365 0.179324 0.0654519 0 1 0 
6187 6 0.455481 0.238273 0.117707 -3 4 3 
6999 5 0.575022 0.227262 0.103166 1 -3 2 
8806 6 0.68592 0.217354 0.131336 -4 2 5 
6235 5 0.219314 0.242708 0.0900085 -1 4 0 
8865 6 0.783382 0.277543 0.11733 -3 -2 -4 
7362 5 0.297412 0.268795 0.115561 2 1 -1 
6924 5 0.88689 0.308251 0.0974752 -2 -1 5 
5530 6 0.97171 0.283674 0.149194 5 0 -1 
5254 5 0.0784299 0.325025 0.150156 -1 -3 1 
5063 6 0.248701 0.310084 0.154738 0 2 0 
5064 6 0.679301 0.317525 0.145453 0 -2 -1 
8999 6 0.15587 0.355341 0.0777246 1 -1 -5 
7942 6 0.300245 0.307558 0.127406 -1 3 -2 
8942 5 0.336187 0.309537 0.138928 4 -1 -3 
5461 6 0.781148 0.361472 0.150578 -2 0 1 
5940 5 0.840288 0.368581 0.106831 1 1 5 
5512 6 0.0366842 0.359235 0.119724 5 -1 0 
8367 5 0.156052 0.387584 0.137936 -1 3 1 
5227 6 0.298524 0.382809 0.105282 -1 -5 1 
8151 6 0.38189 0.393453 0.127974 -2 6 5 
6131 6 0.982573 0.340027 0.121363 1 2 1 
8038 6 0.981907 0.399528 0.125446 1 -2 0 
5485 6 0.694689 0.369514 0.127455 4 2 0 
7984 6 0.761708 0.435278 0.12856 1 -3 3 
7904 5 0.866041 0.403087 0.0942992 4 5 -1 
7860 6 0.216323 0.441029 0.104491 -2 -3 -2 
8030 6 0.710252 0.417418 0.121012 -1 -2 8 
5062 6 0.801216 0.449641 0.177374 -1 2 4 
5845 6 0.0454122 0.487686 0.070283 -2 5 2 
8973 5 0.0640731 0.523892 0.108132 -3 -3 -1 
6014 6 0.115917 0.498381 0.100716 3 0 -3 
6954 6 0.260677 0.472536 0.125367 -4 -4 1 
8265 5 0.11061 0.494556 0.0843625 2 -1 1 
7943 5 0.864611 0.523833 0.128063 2 -3 0 
5694 5 0.523349 0.500401 0.0982361 0 6 -1 
8704 5 0.633873 0.532376 0.130234 0 -1 5 
6063 6 0.55622 0.567193 0.125985 -1 -1 2 
8027 6 0.636621 0.595402 0.127516 0 -2 0 
5041 6 0.218783 0.561125 0.134141 0 -3 -2 
8522 5 0.607688 0.59077 0.119217 0 -4 2 
8818 6 0.330306 0.61672 0.13397 -4 -2 2 
5588 6 0.777284 0.616068 0.120456 1 1 -3 
8136 6 0.432687 0.645976 0.160613 3 0 -3 
8454 5 0.0188203 0.663153 0.129494 -4 2 1 
7488 6 0.0400302 0.644139 0.133743 0 1 -6 
7719 6 0.22211 0.667551 0.136527 -1 -1 1 
8908 6 0.536182 0.679696 0.0889954 2 1 1 
7396 6 0.181583 0.701536 0.09132 -3 -5 -5 
6594 5 0.318197 0.719034 0.146064 -5 0 1 
6880 6 0.8441 0.699023 0.164052 -2 -5 -4 
5366 6 0.722451 0.795683 0.128088 -1 -1 -3 
8173 6 0.816691 0.821352 0.0996547 0 1 2 
8449 5 0.184714 0.814811 0.113532 0 0 -3 
8274 5 0.417351 0.791449 0.127844 5 0 0 
7808 6 0.862272 0.792643 0.103635 -4 -1 0 
6261 5 0.923724 0.780969 0.118151 -2 -3 3 
5148 5 0.986087 0.843086 0.14588 0 -2 -2 
7826 5 0.425245 0.82987 0.125372 -1 -5 1 
7333 6 0.527602 0.844944 0.0977125 -1 -1 3 
6234 5 0.12204 0.815939 0.128507 -2 0 1 
6318 6 0.411443 0.882726 0.112293 -1 2 -2 
7996 6 0.766448 0.86959 0.138679 2 4 -1 
7145 5 0.794134 0.891456 0.114388 4 -3 -2 
8111 6 0.33548 0.909468 0.122899 -1 2 2 
6647 6 0.161026 0.958383 0.112264 -7 0 -3 
8793 6 0.291399 0.933879 0.125265 -6 1 -2 
5840 6 0.698036 0.958718 0.0875623 -3 3 -2 
8765 5 0.105166 0.952171 0.133975 1 4 -2 
8148 5 0.798633 0.966604 0.084775 0 -2 6 
8739 5 0.229679 0.983488 0.13514 3 0 2 
6920 6 0.519854 0.977561 0.132382 3 0 2 
7429 6 0.23788 0.0333309 0.16629 2 0 9 
5181 6 0.65058 0.00914609 0.130509 4 -3 -1 
6984 5 0.876305 0.0978848 0.141247 2 -4 -1 
5589 5 0.228677 0.0793244 0.119891 -2 7 -3 
5507 5 0.583186 0.116834 0.111907 1 -3 2 
6743 5 0.887514 0.109457 0.145266 2 2 -4 
6075 6 0.277406 0.190706 0.122756 1 0 2 
5654 6 0.89461 0.164615 0.136006 -4 2 -2 
6221 6 0.286592 0.150448 0.164086 3 -2 1 
5178 5 0.589695 0.196887 0.19332 2 0 0 
7330 5 0.223488 0.179001 0.129195 3 3 -1 
7375 5 0.493065 0.192389 0.127259 6 2 -3 
6803 6 0.546676 0.231001 0.14691 0 4 -1 
7584 5 0.846031 0.26637 0.152879 1 4 -1 
6085 5 0.3879 0.268313 0.146233 0 -2 -6 
8980 5 0.466215 0.28051 0.147775 -1 -2 1 
6543 6 0.810153 0.275665 0.158516 -1 4 -1 
5038 5 0.838589 0.276898 0.158521 1 -3 0 
7581 5 0.227502 0.272109 0.12831 1 -2 3 
5574 6 0.669769 0.27677 0.144259 1 -1 -3 
6571 5 0.416777 0.386216 0.148774 6 -2 2 
7899 6 0.627409 0.388507 0.161106 6 0 4 
7601 6 0.749954 0.346228 0.136779 -1 0 5 
8032 6 0.901238 0.321892 0.133167 -1 0 -3 
8455 6 0.927081 0.336015 0.137731 4 -2 -1 
6466 6 0.422651 0.397248 0.17645 2 6 4 
7175 5 0.643785 0.402551 0.156121 1 -1 -1 
5228 5 0.767694 0.365034 0.152619 -1 -6 -3 
6663 6 0.794865 0.382749 0.154768 7 0 0 
7196 6 0.224672 0.440892 0.18346 3 2 0 
6881 6 0.400474 0.373878 0.131353 -3 -5 4 
8957 6 0.452154 0.422311 0.143447 -2 -7 0 
8300 6 0.782361 0.411679 0.137389 -1 4 -5 
7469 5 0.0794662 0.460934 0.162035 5 7 -2 
6065 6 0.429958 0.466995 0.143945 -3 -4 10 
6989 6 0.738746 0.47858 0.147824 0 4 4 
6108 6 0.166526 0.480105 0.139187 4 0 4 
7980 6 0.92453 0.462013 0.105724 6 -8 2 
6974 6 0.58584 0.534345 0.16429 3 0 1 
6944 6 0.813541 0.527787 0.114029 0 -3 1 
5915 6 0.958905 0.543524 0.149001 2 -4 -1 
5100 6 0.834616 0.478538 0.134287 -3 -3 0 
6420 5 0.261169 0.583698 0.164912 -3 4 0 
6511 5 0.132864 0.562706 0.111702 -3 1 -2 
6509 5 0.153821 0.584243 0.145394 2 3 -1 
7262 6 0.417983 0.575352 0.125544 -2 -5 3 
6038 5 0.984435 0.610673 0.159034 -1 -1 -4 
7563 5 0.626136 0.609767 0.133969 -3 -1 -7 
5399 6 0.90863 0.661346 0.171734 -9 8 0 
5504 6 0.200828 0.644044 0.151007 0 -3 3 
7336 6 0.848105 0.680876 0.160892 6 2 0 
6372 6 0.603014 0.669327 0.151076 -3 -1 4 
7585 6 0.720613 0.680613 0.138144 0 1 4 
7761 6 0.0735022 0.648688 0.150247 -3 0 -1 
5618 5 0.0771517 0.729739 0.166692 2 1 -4 
6619 6 0.21662 0.637245 0.177257 0 -4 -1 
6453 6 0.222316 0.680625 0.126385 -3 3 -6 
6877 6 0.428197 0.723515 0.160404 1 8 1 
6673 6 0.674365 0.727442 0.166039 -5 -3 3 
8218 6 0.372637 0.74866 0.143779 -4 -2 0 
5427 6 0.777953 0.727269 0.164157 3 -2 -3 
8694 5 0.157928 0.745893 0.163896 1 -1 -1 
6114 6 0.13673 0.827661 0.148485 -3 -4 1 
8875 5 0.241841 0.796544 0.138282 -1 2 1 
8066 6 0.935477 0.79676 0.11523 -5 5 -3 
6317 6 0.0531904 0.805804 0.147703 0 -1 0 
7687 6 0.814559 0.807353 0.132212 -2 0 -2 
6680 5 0.510726 0.843401 0.162285 6 -1 -1 
6872 6 0.600304 0.821217 0.155018 -2 8 0 
8584 5 0.871983 0.846379 0.163689 -2 -5 -2 
7182 5 0.908972 0.830526 0.134261 -1 -1 4 
5457 6 0.441264 0.837574 0.176885 -5 1 0 
7883 6 0.479798 0.872733 0.158458 -3 -1 2 
5238 5 0.600372 0.863909 0.118986 4 -2 2 
7876 5 0.297791 0.917316 0.156755 -4 3 8 
8619 6 0.0931951 0.923302 0.138305 4 -1 6 
8050 5 0.634899 0.954858 0.154905 -2 -2 -1 
5837 6 0.8535 0.895547 0.124218 1 -4 2 
7543 5 0.208628 0.958318 0.182075 5 4 -1 
6024 5 0.373556 0.995003 0.137654 5 0 3 
8206 6 0.889563 0.970747 0.116065 0 -2 0 
7422 6 0.210734 0.0493077 0.171644 -1 4 4 
5762 6 0.340559 0.055752 0.175018 5 4 -2 
7094 5 0.402606 0.0224703 0.166027 6 3 -3 
5673 6 0.61459 0.016319 0.171975 -4 3 4 
6230 6 0.692196 0.0636409 0.166349 0 5 3 
6081 6 0.0088028 0.0601503 0.187344 2 -2 1 
7685 6 0.24109 0.119197 0.206496 0 -3 2 
6645 6 0.29142 0.0937232 0.172659 0 1 3 
6846 6 0.230837 0.0847977 0.140579 4 -1 -2 
8233 5 0.729974 0.115872 0.204335 -2 1 3 
5890 6 0.8626 0.127503 0.178674 -5 6 4 
7100 5 0.831667 0.202439 0.210934 -1 -1 -3 
5553 5 0.0632321 0.21656 0.216541 -1 4 5 
7349 5 0.232446 0.229623 0.131727 -1 1 -2 
8397 5 0.925048 0.161469 0.181635 -4 -3 4 
7205 6 0.108069 0.261422 0.177568 -3 -2 -4 
6891 5 0.103152 0.23869 0.214324 -1 0 0 
5650 6 0.609873 0.22299 0.167252 0 3 1 
6364 6 0.0375108 0.239108 0.193942 2 1 -4 
7792 6 0.901681 0.273171 0.156118 0 -2 -1 
7723 6 0.710525 0.28913 0.162888 0 -4 0 
8889 6 0.773864 0.27079 0.156358 2 2 1 
8011 5 0.162264 0.347753 0.140534 2 1 -6 
8479 6 0.504589 0.319085 0.150487 2 0 9 
6165 5 0.0676372 0.34112 0.174049 4 2 0 
7321 6 0.898687 0.354603 0.130406 -1 0 2 
7740 6 0.456449 0.319012 0.178249 -5 4 2 
7963 5 0.781244 0.398007 0.138765 -1 0 1 
6958 5 0.989982 0.404476 0.19921 -3 -2 4 
5783 5 0.665321 0.407286 0.12964 1 0 2 
7586 6 0.893957 0.412092 0.155357 2 2 1 
8698 6 0.23518 0.442396 0.176187 3 -1 2 
8771 6 0.9286 0.388063 0.170602 0 -1 5 
7824 5 0.926255 0.411754 0.15544 0 3 3 
8683 6 0.944804 0.422939 0.182935 -1 -4 -6 
6295 6 0.341012 0.432653 0.158953 1 -1 2 
5446 6 0.446716 0.437042 0.179672 -1 -1 1 
5243 5 0.672314 0.467354 0.180455 5 -2 -1 
5682 6 0.193047 0.511836 0.140606 4 3 5 
6892 6 0.516959 0.513679 0.144689 -1 1 0 
6860 6 0.182154 0.548774 0.176681 -3 1 0 
6948 5 0.520905 0.520927 0.162797 -3 -2 -2 
6292 6 0.56127 0.53702 0.148136 -2 -1 2 
7187 6 0.440557 0.582008 0.179063 -1 -5 -2 
6074 6 0.604289 0.562125 0.188149 -4 0 4 
8286 5 0.199991 0.611443 0.138513 -5 4 8 
6144 6 0.333677 0.616709 0.165876 0 -7 1 
6479 5 0.614846 0.606658 0.128973 2 -3 -6 
8103 6 0.801451 0.60873 0.156105 1 0 -1 
6973 5 0.822447 0.626772 0.181285 2 2 1 
8976 6 0.744783 0.692647 0.168088 -1 -1 -2 
5730 5 0.668952 0.702515 0.223623 -1 3 -2 
7730 5 0.814966 0.672579 0.154705 -1 2 0 
5158 5 0.924733 0.721558 0.124002 1 -1 -4 
7922 6 0.959177 0.709983 0.153338 -4 4 3 
5159 6 0.902402 0.700825 0.16656 2 -2 3 
8658 5 0.971092 0.694861 0.185743 -1 2 -2 
5923 5 0.559899 0.772461 0.157726 5 -1 1 
8954 5 0.577537 0.735896 0.191856 1 -2 2 
7257 6 0.592165 0.816663 0.169403 0 -3 -2 
8609 5 0.151837 0.764648 0.145634 4 -3 -2 
8231 6 0.599499 0.808587 0.171432 -5 1 5 
5081 5 0.162595 0.822295 0.174677 4 4 1 
7669 5 0.277443 0.839338 0.159416 0 3 -1 
7769 5 0.387475 0.799687 0.164823 4 -7 6 
7397 5 0.113103 0.86652 0.175737 2 -1 0 
7177 6 0.289505 0.851194 0.153521 -1 0 3 
5032 5 0.593476 0.864211 0.195469 1 1 -2 
5685 6 0.0342938 0.927039 0.20493 1 0 0 
5564 6 0.142127 0.882811 0.148857 2 1 2 
7320 5 0.289311 0.925728 0.198612 3 3 3 
7274 6 0.341367 0.909853 0.16607 6 -1 1 
6358 6 0.834685 0.907293 0.169436 -5 6 0 
7295 6 0.27283 0.977407 0.177671 -3 -4 -3 
5314 5 0.523607 0.972716 0.209051 1 2 -1 
6808 5 0.576898 0.9272 0.191505 -1 1 4 
8004 6 0.687815 0.918648 0.175532 -4 2 -1 
6526 6 0.76425 0.977866 0.155286 0 3 4 
6402 5 0.650013 0.983676 0.167595 -1 -3 4 
8431 5 0.867952 0.989011 0.152578 0 -1 2 
8273 6 0.676396 0.09265 0.196439 3 3 -1 
6236 5 0.773816 0.00330357 0.151147 0 -4 1 
7376 5 0.0838844 0.0997007 0.217842 -1 2 0 
5442 5 0.542207 0.125181 0.196861 -4 1 -5 
8769 6 0.830596 0.0564693 0.204548 1 0 7 
5627 6 0.0438931 0.147851 0.213258 6 4 0 
7639 6 0.243224 0.116933 0.213171 0 1 0 
7881 6 0.326307 0.0996978 0.208192 0 4 0 
6421 5 0.704187 0.124183 0.200191 0 4 1 
7531 6 0.769669 0.122482 0.238877 0 1 -4 
7137 6 0.925669 0.119611 0.225483 0 0 -1 
6866 5 0.862771 0.175671 0.181015 -3 0 2 
7491 6 0.262094 0.15727 0.18648 0 1 -2 
8005 6 0.557266 0.164542 0.230834 1 3 5 
6791 6 0.970941 0.132959 0.211227 -2 0 3 
8465 5 0.361415 0.165215 0.229219 -2 -1 0 
7264 5 0.881309 0.238011 0.206469 -5 0 2 
8119 6 0.312935 0.194477 0.184262 1 3 -2 
8615 5 0.377067 0.244614 0.217312 2 2 -1 
7243 6 0.549752 0.234642 0.165615 -5 4 -2 
8331 6 0.611958 0.209528 0.200868 -7 -5 -1 
8216 6 0.24158 0.219597 0.205344 3 -1 0 
5688 5 0.7775 0.273831 0.191266 -5 6 1 
5216 5 0.800485 0.235767 0.19943 3 0 -1 
6388 6 0.650423 0.242809 0.204677 -6 1 5 
7934 6 0.264001 0.311828 0.208827 0 -3 2 
7476 6 0.411465 0.312565 0.203819 -2 0 -1 
5570 6 0.723215 0.317571 0.177239 5 3 0 