ITEM: TIMESTEP
20000000
ITEM: NUMBER OF ATOMS
9000
ITEM: BOX BOUNDS pp pp pp
-75 75
-75 75
-75 75
ITEM: ATOMS id type xs ys zs ix iy iz 
6964 6 0.129249 0.0414309 0.00868057 0 3 2 
7052 6 0.772885 0.0222567 0.00988226 -3 -5 -3 
5678 6 0.0694881 0.0179473 0.998012 1 -5 -7 
6559 5 0.245993 0.00965283 0.0251821 3 -3 0 
8828 6 0.89909 0.0164122 0.972867 2 -1 5 
7272 6 0.103912 0.0683795 1.00142 2 0 -2 
8088 6 0.197345 0.0723753 0.00605564 4 -2 2 
6317 6 0.0549703 0.0344762 0.037507 3 -4 0 
6526 5 0.114704 0.0992286 0.975358 3 -2 3 
8023 6 0.028655 0.157854 0.0329579 -7 0 -1 
7253 6 0.433859 0.143233 0.042826 1 0 -2 
6013 5 0.607073 0.142217 0.985325 3 -4 -2 
8515 5 0.529281 0.156492 0.982719 0 3 -3 
6360 6 0.441966 0.15719 0.00315688 -4 -4 2 
8555 5 0.523332 0.22072 0.97818 4 -1 -2 
7646 6 0.00037837 0.197851 0.00912907 -2 -2 1 
5860 6 0.207863 0.254879 0.00626054 -5 -2 2 
6170 5 0.300974 0.190215 0.984222 0 -2 -1 
8233 6 0.674163 0.23713 0.95584 -6 1 -6 
5038 5 0.761748 0.237815 1.00054 1 -1 -1 
8347 5 0.154217 0.244693 0.978951 3 -1 1 
6014 6 0.228464 0.297466 0.975048 0 -1 1 
5619 5 0.635421 0.343866 0.000752138 -6 -2 4 
8460 6 0.700885 0.305326 0.994619 -4 3 2 
5645 5 0.741907 0.309805 0.988275 -2 0 -5 
5606 5 0.63406 0.345421 0.013415 -4 -1 2 
7004 6 0.779272 0.348518 0.99048 4 -3 -2 
6473 5 0.0483467 0.367083 0.0212869 1 -6 4 
6337 5 0.163712 0.33791 0.983485 3 2 -1 
8600 5 0.529775 0.366449 0.01462 1 -2 0 
8149 6 0.808957 0.329227 0.996429 -5 2 0 
7795 5 0.133614 0.371426 0.977379 1 4 -2 
6999 5 0.188165 0.40698 0.0464258 2 4 0 
5139 5 0.907283 0.367908 0.0272164 -3 3 -2 
7603 6 0.208739 0.445483 0.044995 3 2 1 
6948 5 0.260846 0.412182 0.985429 -2 -3 0 
7968 5 0.0994036 0.468063 0.0162827 -1 0 -1 
8429 5 0.344585 0.466596 0.00713942 1 -1 0 
5906 5 0.120865 0.434745 0.977849 2 1 -1 
5321 6 0.140546 0.466008 0.0256901 3 0 3 
8755 6 0.253042 0.429277 0.984977 -1 -2 -5 
7395 6 0.292118 0.484939 0.0172695 0 0 0 
6536 5 0.41077 0.432609 0.00162272 -2 -3 3 
5167 6 0.213529 0.478505 0.992524 5 1 1 
8016 6 0.60803 0.49533 0.0322734 2 4 -3 
7125 6 0.392173 0.470441 0.00155984 0 1 0 
6539 6 0.401188 0.54588 0.981308 1 4 0 
7996 5 0.651458 0.517612 0.971603 -2 1 0 
6857 5 0.956717 0.525177 0.00882006 -1 -1 3 
6961 5 0.980269 0.54489 0.0432465 -1 3 -3 
8773 6 0.463137 0.55599 0.0101887 3 8 0 
6101 6 0.718728 0.535885 0.0105429 1 1 -6 
5044 6 0.630508 0.57289 0.00529278 -5 3 1 
5769 5 0.0665158 0.651077 0.99059 2 1 -3 
7677 5 0.864263 0.606879 0.0276599 0 -2 5 
7762 6 0.189411 0.610254 0.017016 -1 4 1 
5608 5 0.319097 0.662852 0.00726488 3 -3 -3 
8933 6 0.398784 0.661466 0.0225857 7 -2 3 
7303 6 0.590066 0.682489 0.00955585 -4 -1 1 
7519 5 0.754128 0.693672 0.0424692 0 4 -1 
6154 6 0.832813 0.647359 0.970466 -4 -2 3 
5896 5 0.338543 0.703187 0.0162966 2 1 2 
8529 6 0.68287 0.704698 0.0381285 -1 -1 -5 
8991 6 0.996577 0.740212 0.00970235 0 0 -1 
5098 6 0.0605893 0.706658 0.983603 2 -5 3 
7235 6 0.142566 0.681131 -0.00289094 1 0 3 
7975 6 0.259681 0.74206 0.0297574 3 4 -1 
7563 6 0.385035 0.74567 0.973219 3 0 1 
6495 6 0.484096 0.774848 0.0211985 -1 -1 4 
5291 5 0.186251 0.797539 0.00579536 0 1 1 
7716 6 0.367882 0.786831 0.0281947 -2 -2 1 
5964 6 0.863006 0.794764 0.00191971 0 -1 -4 
7593 6 0.144626 0.82704 0.995707 6 0 -1 
7949 5 0.425416 0.852743 0.0170663 -2 5 -3 
7474 6 0.254949 0.843076 0.980044 -3 1 9 
5621 6 0.104825 0.864852 0.00442799 2 7 0 
5917 5 0.546459 0.862565 0.0325503 -3 1 1 
8435 5 0.117214 0.902275 0.975108 2 -1 -2 
7909 5 0.639913 0.878506 0.995671 -1 1 1 
5095 5 0.34845 0.880924 0.978049 2 -4 -4 
7160 5 0.427644 0.920411 0.0356502 -3 6 0 
5523 6 0.133705 0.95776 0.0167649 -2 1 2 
5876 6 0.374624 0.970719 0.00211777 -3 0 -4 
8451 5 0.391286 0.969567 0.0221278 0 1 5 
5836 5 0.672316 0.95456 0.0276479 -1 -2 1 
6092 6 0.725759 0.940693 0.0243805 2 4 2 
5175 5 0.417563 0.974065 0.991457 1 1 4 
5888 6 0.519362 0.0124229 0.985167 2 3 -3 
6098 5 0.603493 0.925367 0.997116 0 2 2 
8107 6 0.649052 0.969694 0.0195133 2 -2 -5 
5663 6 0.904806 0.986157 0.0895105 -1 -6 -1 
8742 5 0.146841 0.023077 0.0263894 4 2 8 
5677 5 0.480255 0.000687859 0.0476719 0 1 -2 
8452 5 0.493938 0.974485 0.0551501 1 1 5 
5440 6 0.620168 0.987608 0.0642217 -5 3 3 
6248 6 0.0526649 0.0515363 0.017946 0 4 -2 
8308 6 0.670628 0.0400374 0.0429325 1 -1 2 
5483 5 0.801179 0.0345434 0.0187508 -4 -3 -3 
5966 6 0.575131 0.0889246 0.00919085 -1 1 3 
7185 5 0.909132 0.0507409 0.0236467 3 1 -4 
8265 5 0.45575 0.101079 0.0806704 -1 -1 4 
7184 6 0.57178 0.068255 9.41582e-05 3 0 -1 
8493 6 0.669428 0.116913 0.0289102 -7 4 -4 
8260 6 0.780109 0.0664882 0.0774397 0 0 -1 
6291 6 0.857594 0.0978497 0.0624147 0 -1 -1 
7045 6 0.0580923 0.127095 0.00448645 -5 1 -1 
8217 6 0.346919 0.0454173 0.0126493 -1 0 -2 
7329 6 0.0325036 0.140284 0.977717 0 -1 3 
8326 5 0.571445 0.132195 0.0276165 4 4 -4 
8677 6 0.783734 0.142758 0.0105198 -6 2 -1 
5169 5 0.914881 0.169058 0.996198 0 -2 1 
5468 5 0.287128 0.152145 0.0569044 -3 -3 -2 
7100 5 0.348843 0.197922 0.0294783 -8 2 -2 
8533 5 0.956602 0.160188 0.981867 -3 -1 3 
8875 6 0.676397 0.143122 0.0310181 0 -2 2 
6206 6 0.30077 0.256254 0.0226516 6 1 1 
5526 6 0.891532 0.232018 0.027588 -2 4 4 
7530 5 0.0691576 0.214749 0.0574055 3 -1 -2 
7106 5 0.161374 0.237932 0.0328962 -2 -1 3 
6114 6 0.702909 0.22572 0.996288 -5 2 -4 
8870 6 0.0346097 0.303042 0.048715 2 -1 -4 
8155 6 0.156513 0.281996 0.0271893 -1 -3 4 
7623 6 0.419574 0.280918 0.0564883 1 -1 4 
7960 5 0.159264 0.335551 0.0232595 3 -7 -4 
7215 6 0.24638 0.337676 -0.00022845 8 2 6 
6035 5 0.774292 0.34325 0.0163657 -5 -1 -2 
6930 5 0.0364905 0.377249 0.0347553 -1 -4 0 
7151 5 0.574154 0.388521 0.0234057 -1 1 5 
7654 6 0.738259 0.361303 0.0371299 -2 1 4 
7918 6 0.739069 0.408704 0.0346358 -4 -1 2 
7116 6 0.0423994 0.433819 0.0143052 0 -4 1 
6370 5 0.270443 0.452931 0.991764 4 -4 2 
5213 5 0.5586 0.499115 0.0391869 -4 -2 0 
8453 6 0.116866 0.447255 0.0188386 -1 2 2 
6365 5 0.142404 0.468802 0.990005 0 0 -1 
6860 6 0.299362 0.50144 0.0328743 0 -5 3 
8967 6 0.572471 0.485367 0.0497465 2 4 4 
5969 6 0.173366 0.485535 0.00826678 0 1 -4 
6634 6 0.697329 0.464476 0.055557 1 5 2 
7597 5 0.087676 0.480005 0.016915 2 2 4 
8626 5 0.125502 0.542588 0.0284529 -2 0 3 
7531 5 0.108098 0.522454 0.0245301 1 0 3 
6778 6 0.34704 0.462957 0.0642906 0 -4 3 
6517 5 0.264109 0.56146 0.0753574 -4 -1 -3 
7488 5 0.439631 0.525725 0.0453964 4 5 -2 
6699 5 0.633268 0.53159 0.0742978 -1 -2 -2 
5732 5 0.679502 0.541764 0.0693345 0 -1 1 
5592 6 0.447469 0.54212 0.0136039 -1 -1 2 
6145 5 0.622144 0.579712 0.0147564 0 -5 -3 
5196 6 0.216178 0.560908 0.0348078 -1 -1 -2 
8789 6 0.348239 0.594987 0.0355064 5 2 -3 
7675 6 0.360832 0.615327 0.0315835 -3 0 -2 
7698 5 0.739865 0.663066 0.0114599 0 -2 3 
6833 5 0.439968 0.643284 0.0537897 1 -1 0 
8954 5 0.607446 0.675385 0.00511901 -1 0 3 
5407 6 0.662764 0.670627 0.998353 4 -4 -1 
6731 6 0.174259 0.683355 0.00103003 4 -1 0 
8319 6 0.389899 0.730192 0.042093 -1 4 -5 
8722 6 0.979571 0.750797 0.00967214 -5 3 -1 
5950 5 0.225283 0.732076 0.0624892 2 0 4 
5214 5 0.645274 0.743533 0.073421 5 0 -2 
6037 6 0.68931 0.802587 0.0141682 3 -3 -3 
8827 5 0.951954 0.798188 0.0481087 -2 -5 2 
7387 6 0.142414 0.783406 0.037883 -4 1 1 
5172 6 0.994461 0.80788 0.0369484 -1 -2 -1 
7311 6 0.323398 0.782067 0.0193504 1 0 -1 
5648 5 0.412446 0.832235 0.0431204 3 -2 -4 
5914 5 0.0198457 0.832004 0.0540476 2 1 -3 
8014 5 0.0937125 0.830934 0.985005 5 -3 3 
9000 5 0.50698 0.812493 0.074598 2 -5 0 
8095 6 0.276213 0.832174 0.0394003 -2 4 0 
8676 6 0.41271 0.879468 0.0260149 1 0 1 
7579 6 0.0458753 0.904855 0.0563357 -2 4 3 
8862 6 0.995923 0.883559 0.99266 0 3 -2 
5445 5 0.264357 0.895377 0.0219109 1 -6 4 
6939 6 0.574984 0.912102 0.0167791 0 1 -1 
7526 6 0.752265 0.8967 0.0646521 4 3 -1 
6350 6 0.378522 0.953388 0.00319494 -2 -3 -2 
7291 6 0.294659 0.925524 0.0194727 0 -5 3 
8229 5 0.325417 0.985608 0.0371461 2 1 1 
8670 5 0.212084 0.979105 0.0433823 -7 -4 2 
7905 5 0.396996 0.00603967 0.04317 1 0 0 
8942 5 0.407793 0.0147663 0.050661 4 -3 3 
7793 6 0.966609 0.0373386 0.0380236 0 -1 2 
7461 5 0.656566 0.0719163 0.080693 -2 1 5 
6674 6 0.343552 0.105968 0.0709639 1 4 1 
8756 5 0.338962 0.0724718 0.0614298 0 -3 0 
7724 6 0.488654 0.0631047 0.0341284 -4 -1 2 
7498 6 0.524069 0.108156 0.0673491 4 3 2 
8662 6 0.793701 0.104124 0.029078 3 -4 3 
5682 5 0.15466 0.111953 0.0597837 3 1 1 
5586 6 0.809156 0.0995906 0.0577575 1 1 -2 
8465 5 0.530143 0.100174 0.0883239 1 -1 1 
6786 5 0.0583313 0.142307 0.0808171 1 -1 6 
6584 5 0.332076 0.148972 0.0672865 -1 0 4 
8712 5 0.356914 0.158753 0.0521834 5 6 -1 
7611 5 0.1888 0.123426 0.0736456 0 -1 3 
7720 5 0.807532 0.169995 0.0724022 -1 -2 -4 
6771 5 0.857421 0.200584 0.0588899 -3 -4 0 
7657 6 0.909284 0.182494 0.0632873 2 2 3 
6625 6 0.201196 0.209114 0.0622318 -2 1 1 
5429 5 0.381612 0.198273 0.0569804 3 0 2 
5241 6 0.777498 0.18835 0.0757213 -1 -4 2 
8375 6 0.424559 0.209153 0.0304381 -4 2 -1 
8990 5 0.903201 0.21115 0.0620008 2 2 -1 
6845 6 0.625475 0.240827 0.0779182 2 -1 1 
8092 6 0.180988 0.273417 0.043567 2 1 1 
8211 6 0.256676 0.227842 0.0116678 2 0 -3 
6632 6 0.922851 0.287573 0.0341223 0 1 -2 
7787 6 0.0165588 0.277753 0.0514641 -5 -2 -1 
6984 6 0.629643 0.351961 0.0792832 1 -2 -5 
6104 5 0.825294 0.33997 0.0305883 1 -2 1 
8636 6 0.243271 0.382335 0.097107 1 1 1 
8116 5 0.780631 0.378313 0.0795353 -2 3 7 
8522 5 0.947598 0.374196 0.0773444 -1 0 3 
7950 5 0.201674 0.399061 0.101425 -1 0 -1 
5800 6 0.535015 0.37071 0.0756537 -1 2 2 
6366 5 0.29544 0.443533 0.0686452 1 -1 4 
6666 6 0.789907 0.43008 0.0465044 -1 -3 4 
6237 5 0.410791 0.449306 0.114612 2 3 0 
5997 5 0.850219 0.446465 0.0387626 -1 -2 -1 
7296 5 0.207383 0.462556 0.0428823 -4 2 3 
8449 5 0.971186 0.464686 0.0623081 -2 2 1 
5085 6 0.461924 0.478884 0.0428546 0 5 -1 
8364 6 0.536303 0.497157 0.047337 2 1 -2 
5793 6 0.0391041 0.542143 0.0538749 -2 4 -4 
7626 5 0.640274 0.556239 0.0751547 -1 3 -1 
6304 6 0.695249 0.591429 0.0347313 3 -5 1 
7816 6 0.841245 0.600895 0.0958856 -6 -7 2 
6637 5 0.424632 0.594253 0.0563333 -1 0 -3 
7057 5 0.6198 0.575518 0.0562329 2 -1 3 
6132 6 0.119755 0.620546 0.0588889 3 -2 -1 
6005 6 0.476559 0.625899 0.0645148 1 -2 0 
6160 6 0.801821 0.64794 0.0567055 -5 2 2 
8663 5 0.878589 0.608633 0.0992888 -2 0 -3 
7117 6 0.99825 0.578244 0.0351369 -2 3 1 
7085 5 0.673192 0.673963 0.0392886 -4 -2 -2 
7912 5 0.295062 0.679279 0.0256309 2 -3 2 
6472 6 0.342841 0.706861 0.0232899 2 4 -2 
7346 6 0.458045 0.656937 0.0814361 3 -2 -2 
5278 6 0.798446 0.698636 0.0598504 3 -1 -2 
6008 6 0.898351 0.698682 0.0226149 0 -5 -1 
7121 6 0.0397634 0.691131 0.0879075 1 -6 0 
5729 6 0.148773 0.729092 0.0492941 -2 0 4 
5798 6 0.671144 0.73016 0.0498702 -1 -4 3 
6415 6 0.725919 0.756657 0.0702365 -6 -2 3 
8507 6 0.183496 0.766503 0.0305353 2 -4 -3 
8748 6 0.518767 0.782265 0.0283044 0 -2 -3 
6250 5 0.0261735 0.804813 0.0472432 5 2 -2 
5763 6 0.053475 0.787159 0.0605455 -2 -4 -1 
6404 5 0.290316 0.841662 0.0404282 -2 2 -6 
6579 6 0.401051 0.834103 0.0701541 -1 0 1 
6957 6 0.511831 0.835599 0.0574383 0 -1 -1 
8568 6 0.883398 0.846432 0.000602236 -3 0 3 
5090 5 0.250844 0.802648 0.0621004 -1 -3 -6 
6830 5 0.323534 0.857232 0.0649518 0 1 -2 
7181 5 0.45459 0.872549 0.0355064 1 -3 2 
8413 5 0.488948 0.837963 0.0735556 -3 -3 4 
8879 6 0.770888 0.848719 0.0559325 4 0 2 
6129 6 0.994228 0.884916 0.0704556 0 -2 0 
7362 5 0.394561 0.865594 0.0551395 4 -2 2 
7108 6 0.792181 0.877336 0.0681527 -5 -1 -6 
8609 5 0.802951 0.833998 0.0587493 0 -1 1 
8934 5 0.877152 0.925505 0.0615005 3 -1 -1 
7297 6 0.230228 0.935534 0.0411271 6 1 0 
8098 5 0.394851 0.951275 0.0185459 0 -1 7 
6311 6 0.825388 0.931627 0.0582009 -3 3 -6 
5823 5 0.86899 0.897114 0.0701703 -1 -5 -3 
8294 6 0.00711911 0.974038 0.0277009 0 1 3 
5066 6 0.785481 0.00667522 0.0873284 4 4 -3 
8430 6 0.200899 0.0148164 0.0791263 0 -2 -6 
6710 6 0.242435 0.0417498 0.0922333 2 0 7 
5138 5 0.45393 0.0300471 0.0897369 1 -5 -1 
6669 5 0.82379 0.963168 0.0885935 -1 0 -1 
5719 6 0.87983 0.031027 0.0665955 -7 -1 -1 
7030 6 0.171101 0.0370183 0.0417721 0 0 2 
7953 6 0.508062 0.067296 0.103094 2 0 -4 
6645 5 0.595113 0.0514747 0.0976077 -1 0 0 
6325 6 0.107962 0.0701039 0.0799197 -3 -1 2 
5218 6 0.594359 0.0613818 0.0548596 3 -1 2 
6181 6 0.517132 0.104516 0.0955131 0 -1 3 
8087 5 0.610604 0.15137 0.0966028 -1 4 -3 
6128 6 0.289832 0.158048 0.101753 0 0 2 
6569 5 -0.000731928 0.192973 0.104223 3 3 4 
5671 6 0.786334 0.181257 0.062655 3 2 -1 
6411 6 0.816328 0.15939 0.0977542 0 -4 -3 
7568 5 0.833774 0.184084 0.0749961 -2 2 -2 
6209 6 0.0604578 0.292708 0.0811935 1 4 3 
7914 6 0.139802 0.210726 0.081532 0 2 4 
5909 6 0.334897 0.255744 0.0803676 -3 3 3 
5961 5 0.28807 0.264818 0.098271 -4 -1 -1 
6635 5 0.378469 0.251561 0.111879 -1 3 5 
5379 5 0.741911 0.242783 0.0964925 0 -3 4 
7668 6 0.396716 0.296411 0.0637865 2 5 0 
8831 6 0.389837 0.277018 0.0783068 -1 -4 3 
7161 5 0.437406 0.297059 0.0644042 4 4 -2 
5389 5 0.457868 0.296744 0.0411178 -3 1 -1 
7898 6 0.697741 0.337233 0.0841614 4 2 -4 
7551 5 0.0210104 0.290354 0.0739386 -4 -4 -1 
6243 5 0.262969 0.32039 0.110649 1 2 -4 
5907 5 0.465973 0.344965 0.0505088 1 2 -2 
5631 6 0.798438 0.36204 0.0909516 5 2 0 
7904 6 0.812507 0.323588 0.0899273 0 3 -2 
5370 6 0.226415 0.371121 0.0707679 -1 6 3 
8266 5 0.288761 0.337328 0.0686134 -2 -2 5 
8866 6 0.583737 0.348587 0.0616141 6 2 2 
7051 5 0.988975 0.412664 0.0753473 5 -3 2 
6119 5 0.20642 0.392584 0.0703925 2 0 3 
5311 5 0.28122 0.396519 0.0618367 2 -4 -2 
6289 5 0.958102 0.384995 0.0738837 5 -1 0 
7437 6 0.759472 0.371715 0.0287312 2 4 -3 
7897 6 0.826483 0.426983 0.0421245 1 -3 -1 
6650 5 0.673168 0.427944 0.123831 0 2 1 
8735 6 0.768022 0.455904 0.0515174 2 5 4 
8299 5 0.891191 0.446725 0.0885101 2 1 -1 
7283 6 0.679149 0.432797 0.0923314 0 2 0 
5826 6 0.832707 0.484551 0.0587761 -1 -3 5 
6186 6 0.866872 0.495036 0.0857954 0 0 1 
8480 5 0.408874 0.444339 0.0847025 0 -1 1 
5604 6 0.602575 0.52811 0.0825051 -1 3 -1 
8596 5 0.748887 0.489315 0.0697382 -3 -1 3 
5940 6 0.186221 0.504294 0.0816314 6 1 0 
6755 6 0.226308 0.514041 0.117891 0 -1 0 
7959 5 0.86952 0.54343 0.0828161 2 1 -4 
5568 6 0.179335 0.546845 0.12596 4 -5 0 
7740 6 0.370553 0.557656 0.0767291 3 -2 6 
5209 6 0.750223 0.557195 0.0602371 -7 1 6 
5165 6 0.661674 0.561201 0.0835298 -2 4 -2 
7193 5 0.174433 0.5799 0.0656297 -3 -1 3 
5852 6 0.320552 0.592108 0.0590721 -2 -1 -3 
7858 5 0.997199 0.530007 0.084346 -3 2 1 
8115 6 0.161184 0.592152 0.0825964 -1 0 0 
5849 6 0.254296 0.642724 0.0843476 3 1 -6 
7146 5 0.780915 0.601455 0.103048 -2 6 5 
7090 6 0.819068 0.586698 0.0599093 0 -3 -2 
6264 5 0.115087 0.647068 0.0950776 -4 0 -4 
5919 5 0.63939 0.629099 0.122296 4 -1 0 
8958 5 0.403959 0.663721 0.0390602 -3 2 -3 
8745 6 0.617689 0.66398 0.0656208 2 0 -2 
8327 5 0.425445 0.704044 0.0784988 2 1 -4 
5021 5 0.692088 0.640997 0.106974 -3 2 -4 
5454 6 0.313527 0.7347 0.0734975 -2 5 0 
8647 6 0.832239 0.737296 0.0826241 -1 -3 -2 
7122 5 0.0817255 0.760911 0.0814244 -4 -7 -4 
8844 6 0.864233 0.755925 0.0903039 -5 0 -4 
6675 5 0.945899 0.762205 0.0780218 0 0 0 
6510 6 0.485036 0.784597 0.0893054 1 -1 -2 
6442 5 0.685495 0.765649 0.0591284 -2 -1 7 
6878 6 0.112488 0.812999 0.0722212 -2 -1 2 
6461 6 0.799754 0.781233 0.0705866 -3 5 2 
8268 5 0.330954 0.824793 0.0872625 6 3 2 
6954 6 0.536031 0.820535 0.08199 -4 -5 0 
8652 5 0.871247 0.813985 0.0819289 -7 1 -5 
7168 5 0.321871 0.858097 0.0731515 -5 -1 -2 
7003 5 0.393482 0.856544 0.0977324 2 -4 1 
7745 5 0.805687 0.875892 0.0783078 -2 0 8 
7592 6 0.120942 0.854189 0.078945 0 0 1 
5804 5 0.335041 0.863731 0.0841305 3 0 -3 
7288 5 0.898122 0.881132 0.0618498 3 0 1 
6842 5 0.89249 0.897969 0.0636919 4 -1 1 
7612 5 0.231159 0.885383 0.0719813 3 -5 0 
5625 6 0.232681 0.904733 0.0636915 9 -2 0 
6869 6 0.466656 0.901391 0.0359276 1 0 1 
5475 5 0.522191 0.893142 0.0788962 0 1 2 
5262 6 0.558189 0.904834 0.105259 -1 -2 4 
6624 5 0.866613 0.915377 0.105741 -4 -3 2 
5956 6 0.569288 0.927644 0.0772099 -2 -3 2 
7583 6 0.516039 0.953812 0.0760991 -5 -6 1 
5186 5 0.669686 0.955058 0.136024 0 -2 1 
5784 5 0.0661934 0.00602971 0.0536744 1 -2 -1 
5958 5 0.20457 0.0456097 0.109944 -1 -5 1 
7689 6 0.43766 0.999766 0.101746 -2 1 3 
5224 5 0.664384 0.0292668 0.0915464 1 3 4 
7655 5 0.747433 0.0425112 0.104797 3 3 9 
5541 6 0.339451 0.0790164 0.112407 -1 0 -4 
5050 6 0.133804 0.0747063 0.133482 4 -1 2 
8491 6 0.578991 0.0910203 0.117041 0 1 5 
8502 5 0.57025 0.0755946 0.0906904 0 -2 1 
7061 6 0.569829 0.0727181 0.0968187 -2 0 4 
5488 5 0.0541288 0.122328 0.0870116 -1 -2 -1 
8145 5 0.223515 0.0992619 0.115862 -3 -1 -1 
6550 5 0.602396 0.0856209 0.0978177 1 -4 -2 
5831 5 0.736202 0.0661611 0.114075 -6 -2 6 
5065 6 0.97093 0.10208 0.101673 -6 0 2 
5520 6 0.78299 0.128485 0.119052 0 3 -2 
7332 6 0.621323 0.166018 0.0850624 2 0 -3 
7203 5 0.719325 0.13695 0.111315 1 -3 -1 
7844 5 0.720762 0.16872 0.0632049 0 4 1 
5550 5 0.943557 0.12327 0.0995071 0 -2 0 
5749 6 0.860677 0.152043 0.0784637 -6 1 -2 
6638 5 0.341069 0.195979 0.0711151 0 -1 2 
5457 6 0.469509 0.194204 0.0880684 1 2 -2 
7353 6 0.826404 0.209965 0.114052 3 -2 -3 
5879 5 0.566659 0.221493 0.112482 4 3 1 
5711 6 0.673974 0.208151 0.11574 0 0 3 
6693 5 0.493054 0.251618 0.0977667 3 4 -1 
8726 6 0.634015 0.245612 0.123063 -1 3 0 
5524 5 0.510491 0.294242 0.106482 1 4 0 
7581 5 0.61263 0.257323 0.130652 -1 -1 9 
7480 6 0.631226 0.320804 0.114638 -6 3 -1 
6594 6 0.754571 0.328094 0.114492 -1 -4 1 
7540 6 0.939258 0.336696 0.100264 0 3 -1 
8335 6 0.0751222 0.304985 0.0842075 -2 -5 0 
8695 6 0.243455 0.339854 0.108194 2 -2 3 
6735 6 0.419832 0.307316 0.0808811 -1 4 -2 
8170 5 0.128471 0.329383 0.145304 3 2 -3 
6346 6 0.447344 0.396088 0.10993 3 2 0 
8264 6 0.52098 0.361583 0.12177 0 2 -1 
5248 6 0.696635 0.397785 0.0991417 4 0 0 
7845 5 0.140053 0.454557 0.0702998 1 0 3 
7651 6 0.717527 0.422404 0.0928695 -2 4 2 
5396 6 0.781046 0.447314 0.10908 -3 0 -3 
7776 6 0.948114 0.488412 0.0896464 0 3 0 
5394 6 0.305271 0.505165 0.103793 4 -1 5 
5622 5 0.511332 0.464466 0.104224 4 -1 -3 
6787 6 0.19496 0.48461 0.134604 0 5 -4 
6828 6 0.906927 0.49944 0.0934105 0 -3 0 
6090 6 0.972242 0.496607 0.098292 -4 -3 -2 
5084 6 0.806952 0.544181 0.084528 1 -4 1 
7585 6 0.924252 0.516917 0.112903 -4 -1 2 
5435 5 0.0509743 0.558786 0.094711 -2 -2 4 
7197 6 0.129531 0.609001 0.0764051 -5 -6 0 
8998 5 0.521237 0.555799 0.106064 -4 3 0 
6266 5 0.149145 0.595021 0.0630643 2 2 -2 
7835 6 0.507255 0.595956 0.0854181 5 0 -1 
8675 5 0.575145 0.571562 0.0941416 -7 1 -2 
6488 6 0.709968 0.594356 0.0803497 -1 -3 -5 
5870 6 0.655222 0.614526 0.0747002 2 9 -2 
5447 5 0.97073 0.640074 0.135046 -1 -5 1 
5301 6 0.40128 0.656989 0.111891 2 7 -1 
6477 6 0.779918 0.649124 0.0866619 3 0 1 
6258 5 0.429303 0.701645 0.149936 -4 3 0 
7728 6 0.676157 0.674563 0.105419 2 0 -1 
6576 6 0.779052 0.691249 0.133549 0 0 -6 
5635 6 0.206921 0.70785 0.120757 3 5 -1 
5503 5 0.754131 0.691389 0.151801 -1 1 -1 
7541 5 0.82224 0.681525 0.110055 -4 -3 -1 
5202 6 0.0513263 0.738464 0.124394 5 -3 1 
5923 5 0.99837 0.747741 0.133612 4 2 -2 
8443 6 0.876567 0.78606 0.0818533 -4 1 3 
7868 6 0.297965 0.775568 0.1035 -2 0 0 
7538 6 0.131795 0.808616 0.127905 -1 0 0 
5414 6 0.245304 0.853571 0.126851 3 -3 2 
8916 6 0.870974 0.828309 0.0708225 -3 -2 2 
7033 5 0.854779 0.840245 0.0828253 -1 -5 7 
6605 6 0.451091 0.90852 0.0821677 7 0 -3 
5948 5 0.880314 0.894862 0.0808715 1 -1 -1 
7561 5 0.064168 0.869957 0.132308 1 2 0 
6855 5 0.361395 0.885586 0.125213 -1 2 0 
8987 6 0.477483 0.931811 0.117834 1 1 6 
5761 6 0.23298 0.912685 0.0895216 3 -4 4 
6410 6 0.373685 0.916039 0.138923 -4 2 -6 
6568 5 0.980821 0.940365 0.0547473 0 -5 3 
7544 6 0.993895 0.987158 0.162061 2 -2 -1 
8751 6 0.250745 0.971882 0.113831 -1 4 1 
5135 5 0.315888 0.994352 0.0986978 2 -5 0 
8743 5 0.39972 0.0138299 0.0775418 1 -2 2 
8776 5 0.481918 0.0121214 0.0765114 4 0 3 
5941 5 0.382612 0.0216492 0.118381 4 3 0 
6688 6 0.435776 0.0300045 0.104287 -1 2 1 
6479 5 0.815018 0.00793346 0.138535 5 2 3 
6142 6 0.568899 0.0391984 0.152387 1 -2 4 
6047 5 0.549068 0.0247653 0.109935 0 1 2 
8723 6 0.752734 0.0572671 0.121917 3 2 1 
8587 6 0.93155 0.0313411 0.113975 -7 -2 -1 
5511 6 0.248332 0.0666001 0.153404 -3 0 4 
7348 6 0.661648 0.0945786 0.095379 4 -1 -4 
8936 5 0.410836 0.0974985 0.104011 -3 -3 -2 
7436 6 0.0719288 0.128393 0.145826 5 2 2 
7055 6 0.50708 0.199826 0.157144 2 1 2 
5118 6 0.114414 0.119922 0.138034 -6 4 2 
5756 5 0.214636 0.210661 0.134749 3 4 2 
7032 6 0.510189 0.15486 0.144459 -1 -1 5 
7167 5 0.770022 0.253358 0.151607 -1 1 -2 
5474 5 0.70398 0.237443 0.143841 -5 0 1 
6113 5 0.0468963 0.244465 0.112027 -2 1 -1 
5664 5 0.191065 0.260955 0.116882 -1 2 0 
8162 6 0.14111 0.247475 0.167539 2 6 5 
8642 6 0.290036 0.274127 0.0897782 -2 2 -1 
7209 5 0.414994 0.252262 0.163578 -2 3 -1 
7850 6 0.738132 0.232676 0.126372 1 3 2 
6598 5 0.794341 0.263509 0.134732 -3 4 0 
6471 5 0.84133 0.276513 0.148426 3 -1 1 
7618 6 0.942464 0.28763 0.120092 1 -4 1 
8858 6 0.547075 0.277759 0.152863 0 3 1 
5943 6 0.152386 0.334269 0.108798 2 -3 3 
7469 5 0.356158 0.326975 0.138619 0 1 7 
7065 6 0.591082 0.348782 0.126141 -4 -5 -2 
8824 5 0.948744 0.387327 0.133777 3 5 1 
7233 6 0.392507 0.37279 0.103208 1 1 2 
8386 6 0.847713 0.410278 0.147274 -6 -6 -1 
5400 5 0.439785 0.443582 0.150162 -3 7 -2 
8645 6 0.328809 0.448406 0.125445 2 -2 3 
6825 6 0.614692 0.409158 0.126857 2 -5 -1 
8747 5 0.854292 0.414783 0.113559 -5 -3 0 
7448 5 0.900373 0.425048 0.137959 -1 -6 0 
5795 6 0.0546152 0.462843 0.105823 1 -3 -4 
6377 6 0.195176 0.47786 0.14449 3 4 0 
6935 5 0.912097 0.514627 0.11185 4 0 2 
7175 5 0.331912 0.467539 0.139053 -4 -1 1 
8588 6 0.512482 0.507312 0.0938623 5 1 0 
5507 6 0.628309 0.496046 0.142323 -2 2 3 
6358 6 0.347345 0.54338 0.103796 4 -2 -2 
8142 6 0.783948 0.532434 0.148638 2 0 -1 
5111 6 0.845277 0.560415 0.097145 0 1 -1 
5694 5 0.911073 0.593019 0.141675 -6 -4 0 
5508 6 0.473657 0.565352 0.118962 -7 -1 0 
5236 6 0.634585 0.628589 0.129138 -2 6 0 
5597 5 0.893559 0.620099 0.112002 -3 1 2 
7425 6 0.61701 0.654483 0.148655 -4 3 -3 
7143 6 0.199937 0.67743 0.108173 6 2 3 
5124 5 0.58357 0.683937 0.157028 0 1 0 
7028 6 0.721937 0.650761 0.0951962 3 0 0 
7508 5 0.0540438 0.725523 0.13704 -1 -2 5 
8924 6 0.212461 0.716897 0.120146 -2 -1 -1 
7916 5 0.917707 0.725571 0.12941 -6 -2 -4 
8006 5 0.39562 0.734664 0.115461 -2 2 2 
6387 6 0.207847 0.743697 0.110171 2 2 0 
7822 6 0.262157 0.739005 0.101569 1 -2 -1 
7805 6 0.453003 0.742242 0.167687 1 -5 4 
5540 6 0.678486 0.799827 0.0929441 0 1 1 
7711 5 0.238917 0.810897 0.145649 1 2 4 
8152 5 0.240539 0.790766 0.0940025 2 -3 -2 
5110 6 0.469425 0.840888 0.119924 2 0 4 
6806 6 0.505473 0.804611 0.126975 3 -3 4 
5116 5 0.666705 0.810678 0.125578 1 -2 -3 
5244 6 0.35986 0.832839 0.132611 2 -1 0 
7921 6 0.865557 0.856362 0.130366 2 4 5 
8151 6 0.501059 0.84068 0.16917 -3 2 -2 
6850 6 0.706486 0.865681 0.121354 1 -4 -2 
5786 5 0.0292945 0.901793 0.156909 0 -1 8 
7213 6 0.337754 0.897935 0.139684 3 -1 -6 
6592 5 0.905326 0.895272 0.121336 1 3 4 
7708 5 0.66625 0.920138 0.10677 3 4 -1 
7361 5 0.779305 0.926539 0.109775 -3 -1 0 
8120 6 0.927074 0.912181 0.0969589 0 1 3 
6844 5 0.913378 0.983288 0.155894 0 -4 1 
7431 5 0.162145 0.958094 0.126354 -4 0 5 
5043 6 0.200794 0.967966 0.129155 1 1 -1 
5891 6 0.117255 0.994682 0.112879 -2 2 0 
5238 6 0.791818 0.993124 0.152503 1 0 -2 
6453 6 0.822843 0.998324 0.143669 2 -3 -7 
7637 5 0.528804 0.0635258 0.12114 2 -1 -2 
6385 6 0.383774 0.0565667 0.127755 -3 1 -1 
5602 6 0.771029 0.0993015 0.142567 2 1 6 
8459 6 0.674879 0.173303 0.161574 4 2 3 
5329 5 0.0331038 0.155077 0.124251 5 6 0 
7780 5 0.14596 0.149496 0.16814 -2 0 -2 
8877 6 0.668181 0.1462 0.123859 2 1 0 
5153 6 0.78251 0.139174 0.189577 2 -4 1 
7576 5 0.799712 0.197952 0.148528 -3 -3 1 
8278 6 0.109064 0.163679 0.193715 1 -2 1 
5698 5 0.265991 0.254473 0.161308 -8 3 -2 
8096 5 0.504576 0.194067 0.130515 -2 5 -2 
7894 6 0.449232 0.260473 0.170312 0 1 2 
6622 6 0.875927 0.271772 0.162567 1 2 3 
8167 5 0.0906004 0.287683 0.17536 -1 -1 -2 
7377 6 0.566152 0.280927 0.135199 -2 0 1 
5579 6 0.87812 0.309872 0.173737 4 -1 0 
5585 6 0.936927 0.272643 0.14517 -1 -2 -1 
7998 6 0.297782 0.315974 0.119242 -4 -2 1 
5076 6 0.495472 0.363233 0.187268 -1 -4 -2 
6783 6 0.621379 0.315493 0.160958 5 -1 4 
5960 5 0.0338941 0.385371 0.157264 6 0 -1 
7472 5 0.0541839 0.32854 0.176654 8 -3 1 
5494 5 0.261524 0.410574 0.102988 3 2 3 
5959 6 0.356737 0.347442 0.147064 1 3 3 
5640 5 1.00149 0.434278 0.165503 -2 -1 2 
5830 5 0.338743 0.422927 0.103631 -1 6 -4 
5192 5 0.611237 0.446995 0.118546 -1 -1 0 
8910 6 0.489316 0.447916 0.152408 -2 -2 1 
8714 5 0.866643 0.461695 0.126495 -2 0 3 
8764 6 0.404206 0.441748 0.145893 1 0 4 
7145 5 0.614781 0.495197 0.118057 3 0 2 
5673 6 0.908564 0.456072 0.120763 2 3 3 
5119 6 0.0833019 0.480583 0.172864 0 -1 3 
7432 5 0.312151 0.494867 0.158996 -2 -4 0 
6810 6 0.320586 0.514698 0.131639 3 -4 0 
5133 6 0.208828 0.548007 0.137802 -6 6 0 
6484 6 0.738266 0.539084 0.116976 -3 -1 3 
5822 6 0.938158 0.583894 0.14235 -1 -1 -1 
7206 5 0.985314 0.509551 0.121719 5 -3 2 
7550 5 0.280403 0.566156 0.147078 -3 -6 1 
5261 5 0.409128 0.562676 0.171772 -1 -5 0 
8034 6 0.400074 0.531732 0.166668 6 0 1 
7493 6 0.911379 0.596807 0.161344 5 4 -3 
8207 6 0.4387 0.585599 0.1168 -4 -2 1 
5681 6 0.764295 0.615448 0.165992 -1 1 0 
5014 5 0.962535 0.571704 0.173907 6 1 -4 
6565 5 0.576655 0.613852 0.168664 0 0 0 
8720 6 0.00477243 0.626647 0.142581 2 -1 1 
5516 6 0.115948 0.672291 0.157582 1 -4 -1 
5825 5 0.53479 0.645222 0.175266 -2 -3 4 
6265 5 0.707787 0.637117 0.14543 3 2 0 
8189 6 0.766729 0.599433 0.170457 -3 -2 3 
5106 6 0.0372749 0.636981 0.155622 4 -2 -2 
7316 5 0.661035 0.707823 0.126998 -1 -3 -5 
8851 6 0.805372 0.656993 0.146085 2 -2 1 
7910 5 0.46638 0.71908 0.159993 6 -2 -2 
8418 5 0.392844 0.757541 0.147848 -1 -2 1 
6686 5 0.780893 0.692115 0.176459 2 0 2 
5630 6 0.977729 0.688382 0.12428 3 -1 0 
5155 5 0.931921 0.744403 0.131387 3 0 -2 
8397 6 0.617914 0.769483 0.136027 0 5 3 
5772 6 0.00503319 0.836376 0.128907 -1 -2 -1 
6498 6 0.128124 0.789992 0.134272 1 4 -4 
8129 6 0.447774 0.807458 0.151411 -1 1 3 
5990 5 0.52213 0.812856 0.14715 0 -3 0 
5162 6 0.795149 0.858777 0.170172 3 -1 1 
5856 6 0.0482434 0.833241 0.147417 -3 1 1 
7450 6 0.982161 0.830602 0.143485 -1 0 0 
6649 6 0.0990311 0.879231 0.130579 4 -2 -2 
8944 6 0.557737 0.899205 0.150773 -2 2 3 
8231 6 0.916766 0.920322 0.193289 0 4 -1 
5096 5 0.111872 0.926791 0.120086 2 0 0 
5936 5 0.331788 0.951354 0.13651 4 0 1 
6826 6 0.389976 0.911926 0.155392 7 -5 -2 
8276 5 0.732759 0.932923 0.165441 -4 -3 2 
6202 5 0.131999 0.947647 0.132954 4 3 2 
5842 6 0.501433 0.97788 0.187947 0 -1 -1 
5290 5 0.199984 0.947787 0.110065 0 -8 2 
7578 6 0.148498 0.987795 0.15391 0 -6 -3 
8603 6 0.519338 0.956335 0.163283 5 -4 -1 
6894 6 0.129214 0.0405614 0.198625 -4 -3 0 
6324 5 0.868814 0.0511782 0.144967 3 -5 -1 
6375 6 0.649566 0.0370965 0.183073 2 -4 4 
8191 6 0.253394 0.0942473 0.186773 0 2 -1 
8312 6 0.144422 0.132734 0.141717 1 -4 3 
7478 5 0.298243 0.106464 0.176422 0 3 -3 
7220 6 0.725167 0.128805 0.166786 6 -1 2 
5992 6 0.106843 0.0936418 0.185601 7 0 -3 
8690 5 0.0786446 0.162172 0.174382 2 0 0 
6727 6 0.786539 0.0930955 0.188909 3 2 -1 
8627 5 0.0868164 0.174019 0.185903 -3 3 2 
6606 6 0.338734 0.186707 0.137941 -1 0 0 
6862 5 0.374001 0.152669 0.137269 0 7 1 
6733 5 0.622523 0.175474 0.150956 1 2 2 
6399 6 0.723729 0.149214 0.177794 1 3 4 
8753 6 0.778822 0.160085 0.175406 4 -1 3 
6203 6 0.16771 0.200892 0.212307 5 3 -2 
5191 5 0.291835 0.167493 0.159889 -7 1 0 
5195 5 0.810747 0.159241 0.149349 -1 2 -1 
8896 5 0.762341 0.186514 0.180606 0 9 4 
5469 5 0.441344 0.197151 0.149077 0 4 0 
6174 6 0.995852 0.307474 0.140858 -3 4 -1 
7681 5 0.498953 0.302224 0.125785 2 4 2 
6713 5 0.778671 0.331392 0.208561 -2 -3 -2 
5122 6 0.699666 0.329213 0.149883 5 1 -3 
7941 5 0.700753 0.318629 0.207292 -2 -2 2 
6168 6 0.341305 0.345968 0.161078 -2 -4 4 
5850 5 0.934054 0.344245 0.190362 -2 -4 2 
8404 5 0.39022 0.380302 0.189885 -2 -4 0 
5603 5 0.201904 0.451336 0.178873 1 0 -3 
6782 6 0.822792 0.471516 0.173796 -1 -4 0 
5549 5 0.076164 0.466945 0.152865 2 -1 -4 
6612 5 0.80566 0.443379 0.179343 -4 1 -1 
8999 6 0.924387 0.508367 0.151827 2 -1 -2 
8424 6 0.343544 0.458648 0.156771 4 1 -2 
6229 6 0.480678 0.540798 0.188718 -1 1 1 
8068 6 0.359502 0.500092 0.161153 -5 -3 4 
8052 6 0.509102 0.554612 0.157801 -5 2 2 
7234 6 0.622777 0.530869 0.215167 1 1 1 
8679 5 0.967432 0.570632 0.141123 -2 0 -2 
5287 5 0.470311 0.553983 0.186854 -1 2 5 
5484 6 0.259372 0.532147 0.146513 3 6 2 
7340 6 0.308888 0.599332 0.169066 0 -1 -1 
8164 6 0.455048 0.594971 0.206865 -4 -1 -1 
5877 6 0.871949 0.568523 0.189028 -1 6 2 
7368 5 0.203214 0.629561 0.184065 5 5 5 
6079 6 0.514698 0.612789 0.150726 3 -2 -3 
7285 6 0.518054 0.621287 0.166169 -2 3 -3 
7572 6 0.532183 0.635046 0.191153 3 -6 6 
7216 6 0.911757 0.616154 0.203425 5 -1 1 
8911 6 0.155503 0.645762 0.194195 -5 -3 -4 
5491 5 0.199809 0.636919 0.179594 -3 -1 -7 
5223 6 0.771549 0.672436 0.148338 2 4 6 
6361 6 0.131165 0.723947 0.151083 -4 -3 -3 
6714 6 0.149232 0.721262 0.1672 -3 0 -2 
7352 6 0.0811529 0.713779 0.166865 6 -1 4 
6184 5 0.149019 0.770436 0.165281 1 -3 0 
7630 5 0.270378 0.69837 0.148049 3 0 -3 
7613 6 0.717144 0.680216 0.223045 3 0 8 
8584 6 0.924512 0.693507 0.134854 2 -1 2 
5973 5 0.01908 0.720421 0.165188 -3 0 4 
5316 6 0.385409 0.727729 0.189656 4 -6 1 
5446 5 0.97426 0.779381 0.161694 -1 -1 -1 
8634 6 0.577879 0.736838 0.159398 3 2 -3 
5809 5 0.00539059 0.802862 0.160746 -5 0 -4 
7669 6 0.524466 0.764127 0.19059 3 -1 0 
8525 6 0.552417 0.789353 0.116458 -1 -4 -4 
8654 5 0.623433 0.787164 0.180049 -3 2 7 
5686 6 0.292606 0.842469 0.135678 1 0 3 
5308 5 0.788136 0.796487 0.157259 1 0 -2 
8104 6 0.886983 0.842839 0.144669 0 1 2 
8359 6 0.918469 0.790925 0.172856 -2 -4 -2 
5789 5 0.597782 0.829986 0.132875 -1 3 -3 
8737 6 0.342712 0.87018 0.200153 0 -1 2 
6817 5 0.279331 0.944449 0.200577 -5 -1 4 
8786 6 0.373609 0.909085 0.18746 1 -2 -2 