ITEM: TIMESTEP
20000000
ITEM: NUMBER OF ATOMS
9000
ITEM: BOX BOUNDS pp pp pp
-75 75
-75 75
-75 75
ITEM: ATOMS id type xs ys zs ix iy iz 
6875 5 0.983431 0.99666 0.998949 4 -1 3 
5344 5 0.135987 0.996156 0.0188447 0 -5 5 
7117 6 0.526143 0.0385122 0.0265166 -1 -3 2 
8360 6 0.890019 0.0179448 0.000493237 2 -1 -3 
5203 5 0.040734 0.023173 0.987267 5 -3 0 
8698 5 0.932043 0.0799963 0.0266343 0 1 1 
8791 5 0.351637 0.119505 0.0267047 -2 3 0 
6329 6 0.788638 0.086546 0.0260015 -6 -2 -1 
5027 5 0.58952 0.100647 0.0215883 1 -3 0 
7416 6 0.677768 0.183709 0.0280519 1 3 0 
5905 6 0.727717 0.154165 0.0346965 7 -1 0 
7116 6 0.319007 0.140985 0.0205097 2 -2 -1 
7335 5 0.380771 0.153133 0.0325698 0 1 -2 
8459 6 0.774868 0.121317 0.991435 3 1 3 
7802 6 0.491061 0.142258 0.0245092 -3 2 3 
8511 6 0.721103 0.167171 0.0186442 3 3 6 
7914 5 0.790786 0.173992 0.996044 1 6 0 
7144 5 0.188407 0.216725 0.0016466 7 1 4 
6224 6 0.285198 0.174351 0.0190076 7 -2 -2 
5693 6 0.782348 0.151724 0.0220163 0 6 -1 
6215 6 0.569822 0.225376 0.0136297 -5 1 -1 
5982 6 0.701218 0.233196 0.0259558 1 -2 -4 
7955 6 0.182614 0.270729 0.0227539 -1 -2 0 
7859 6 0.659757 0.265877 0.00123598 0 -4 -4 
6933 6 0.290921 0.300507 0.963502 0 -6 4 
6303 6 0.115067 0.325282 0.0250107 3 5 -1 
7141 6 0.383961 0.285569 0.97915 1 3 -9 
6216 6 0.65923 0.331616 0.0269192 -2 3 4 
7168 5 0.772882 0.285779 0.986036 -1 2 2 
6018 5 0.148755 0.357637 0.0352807 -4 -1 1 
5958 6 0.208431 0.411845 0.0109244 2 1 -1 
5114 6 0.949199 0.365461 0.0150984 3 -4 5 
6275 6 0.564142 0.387967 0.0277484 0 -4 1 
7850 5 0.74461 0.371838 0.974261 0 2 -2 
5245 6 0.157733 0.443797 0.977599 0 4 0 
6647 6 0.927759 0.445702 0.991495 0 0 3 
6764 6 0.763593 0.502214 0.0489503 -3 -5 1 
8758 5 0.57015 0.535686 0.0331578 1 -2 2 
6405 6 0.75093 0.500468 0.0513401 3 -8 -3 
8336 6 0.855584 0.529329 0.0309099 1 2 5 
8741 5 0.761619 0.601098 0.999927 -1 -3 2 
5494 6 0.382839 0.627983 0.975532 0 -5 -4 
8924 5 0.541757 0.611996 0.0166839 1 3 -2 
6937 5 0.683925 0.616669 0.0182761 -2 6 2 
8149 6 0.933871 0.587547 0.0466622 -5 1 -2 
5446 5 0.0572639 0.637975 0.0162195 2 -3 -5 
8063 5 0.0908975 0.663581 0.0105441 4 -1 0 
5591 6 0.449672 0.594754 0.996783 -5 0 -3 
6664 6 0.422873 0.613629 0.015437 1 1 7 
8119 6 0.584469 0.640899 0.0231311 -2 -6 1 
7431 5 0.246006 0.652003 0.969123 -2 -2 -4 
8878 5 0.477316 0.674103 0.0156409 6 1 -2 
5371 6 0.503527 0.643339 0.044645 -2 3 2 
5798 5 0.832898 0.681459 0.990997 -1 1 -3 
6290 6 0.712212 0.678815 0.021883 4 0 -1 
6723 6 0.322148 0.68655 0.0253825 -2 -1 5 
5324 6 0.570512 0.782057 0.971341 -3 0 3 
6391 5 0.760777 0.764698 0.00932469 -1 3 2 
6305 5 0.974015 0.822609 0.0129008 -1 -1 -1 
5083 6 0.00659921 0.848232 0.0257508 3 -6 4 
8276 5 0.580466 0.826395 0.00463991 -3 11 -1 
7466 6 0.649856 0.885896 0.0235838 1 1 -2 
6241 6 0.671659 0.920697 0.991779 0 1 1 
5237 5 0.661288 0.911513 0.0448707 -5 -2 5 
8445 5 0.124095 0.90101 0.0205178 -1 4 -4 
6611 6 0.345911 0.932426 0.0223861 0 -2 -2 
7008 6 0.91606 0.937437 0.0148662 -2 -3 -5 
5443 6 0.277185 0.939824 0.0239126 -1 2 -2 
7239 6 0.577902 0.00937909 0.0495172 -2 -2 0 
8264 5 0.788339 0.930165 0.0345963 -1 0 3 
6190 6 0.823163 0.976054 0.0215252 2 2 4 
7445 5 0.967007 0.971475 0.0647991 0 2 1 
5521 6 0.145553 0.977977 0.985572 0 -4 1 
7894 6 0.179132 0.997174 0.00383339 1 -4 4 
5395 5 0.558607 0.930005 0.993117 -5 3 6 
5342 5 0.634002 0.0270331 0.0121371 -1 -3 -2 
6936 6 0.775659 0.993707 0.000121777 -3 5 -2 
5235 5 0.0322368 0.0559902 0.0347973 7 0 -1 
5218 6 0.238708 0.0314437 0.0111422 -2 -4 -1 
8153 5 0.894668 0.971456 0.0337872 -2 3 0 
8002 6 0.583543 0.0634053 0.0456406 4 -3 -1 
6477 5 0.707034 0.0477036 0.992941 4 2 2 
6701 6 0.97556 0.0338944 0.0491326 4 -7 0 
8909 5 0.320389 0.0679733 0.0754676 0 2 -3 
6823 6 0.856727 0.0907488 0.0165582 -1 2 5 
6017 6 0.852231 0.0987536 0.039679 4 -1 0 
6839 6 0.00724864 0.102009 0.0365836 2 1 -5 
7968 5 0.0626834 0.120523 0.0306887 -1 1 -4 
6438 6 0.813814 0.105048 0.0244561 2 2 2 
6560 5 0.962665 0.164193 0.0226613 -2 0 0 
6034 6 0.137454 0.181315 0.0274816 -1 -1 3 
8902 6 0.873143 0.152978 0.0161453 -4 0 5 
8592 6 0.343313 0.222766 0.0494155 3 -2 3 
5143 5 0.583419 0.163152 0.0415029 -2 0 0 
7485 6 0.447616 0.201347 0.0213637 6 2 1 
7840 6 0.841133 0.168378 0.0232847 0 -1 -1 
5482 6 0.400798 0.221155 0.0534946 0 -2 4 
5577 6 0.79356 0.270066 0.0139618 -1 -3 4 
5566 6 0.862942 0.245729 0.0484965 0 1 1 
7583 5 0.594524 0.225961 0.0372988 1 -1 6 
8722 6 0.0803499 0.274375 0.0425828 0 -1 -5 
6606 6 0.122953 0.330577 0.0402603 1 -1 1 
8181 5 0.0117794 0.379829 0.00781062 3 -1 0 
7249 5 0.0227873 0.405495 0.00634393 -2 1 4 
8588 6 0.113376 0.378695 0.0446953 0 -4 -3 
6733 6 0.747255 0.408094 0.0176244 -3 2 -1 
8117 6 0.471779 0.373881 0.0236271 4 0 2 
5935 5 0.828747 0.378223 0.0267925 -1 0 2 
7179 5 0.0924347 0.470195 0.025032 2 -2 3 
8024 6 0.37664 0.426971 0.0674395 -2 1 -3 
8802 6 0.582675 0.440009 0.031259 -4 -5 2 
8481 5 0.0726667 0.431977 0.00219374 2 -2 1 
5731 6 0.707095 0.456381 0.0326424 0 3 2 
6197 5 0.187758 0.476205 0.0617685 -2 4 8 
8714 6 0.222516 0.48179 0.997793 0 -1 -2 
7197 5 0.456369 0.528008 0.0764662 0 10 -3 
8484 5 0.646017 0.528453 0.0325576 2 2 1 
5807 6 0.821512 0.501925 0.00950365 -4 -5 6 
5253 6 0.511192 0.542221 0.0578383 -3 5 0 
8720 5 0.778678 0.554701 0.0502755 -1 -1 -5 
5465 5 0.806859 0.582983 0.0108631 0 1 2 
8060 5 0.974644 0.595307 0.00615879 -4 -2 -5 
8465 6 0.446081 0.626735 0.00797552 1 -6 -1 
7533 6 0.0622636 0.677416 0.0115474 -1 1 9 
7362 6 0.0883035 0.626356 0.00442615 0 2 2 
5336 6 0.261396 0.681325 0.00636766 4 -3 3 
7833 5 0.0391502 0.681908 0.0609468 -1 -4 0 
6352 5 0.155008 0.689255 0.0310939 -1 1 4 
5742 5 0.419261 0.717588 0.0251375 1 0 1 
8048 6 0.381815 0.723466 0.0416562 7 -3 -4 
6863 5 0.472993 0.745071 0.983578 -2 4 0 
5754 5 0.68913 0.744941 0.984305 0 -2 3 
6323 5 0.820157 0.729517 0.991903 0 -2 1 
5730 6 0.00109913 0.774506 0.0571229 -1 2 0 
5390 5 0.358382 0.781806 0.0176056 -4 -1 2 
8232 5 0.351595 0.705364 0.0496844 -2 1 4 
7303 6 0.0168519 0.800849 0.00611802 -1 1 -1 
7886 6 0.246624 0.789173 0.0329228 -4 -2 0 
7643 5 0.214668 0.769301 0.0191215 -3 -5 0 
5457 5 0.982053 0.792733 0.042117 3 4 3 
6903 5 0.0787279 0.826065 0.0391825 0 1 2 
5153 6 0.489773 0.87205 0.00364689 -2 -2 1 
7378 6 0.944927 0.821195 0.0169637 -1 2 -5 
8934 6 0.324222 0.830255 0.020684 3 5 -1 
7255 6 0.398795 0.830718 0.0524186 3 -1 4 
6729 6 0.310673 0.903037 0.0344685 1 -2 2 
6599 5 0.669994 0.843235 0.0727133 3 -6 -2 
7916 6 0.0434513 0.903808 0.0567283 1 2 -1 
6835 6 0.436756 0.88484 0.0241849 2 -2 2 
8319 6 0.377896 0.903608 0.0181784 -3 -4 2 
7571 5 0.578742 0.915806 0.0332196 3 6 -4 
6780 6 0.573267 0.92015 0.0433304 -1 -3 -1 
8535 5 0.966202 0.9351 0.0240573 2 4 1 
5200 6 0.45604 0.907786 0.0107036 0 -1 1 
8687 5 0.59876 0.974593 0.0657825 -4 0 -5 
5272 6 0.986803 0.955372 0.0183207 0 3 6 
7624 5 0.253372 0.968663 0.089973 0 2 -1 
5562 6 0.545152 0.943887 0.0520056 -8 1 5 
8685 6 0.580224 0.970541 0.0385154 -1 6 2 
8516 5 0.941378 0.00468226 0.06454 1 1 0 
5252 6 0.387409 0.97664 0.0457347 1 1 2 
5919 5 0.673901 0.0280723 0.0352775 -3 -4 2 
7284 5 0.734736 0.0184972 0.0806114 1 2 0 
6523 5 0.946371 0.0741184 0.055069 1 -2 1 
5172 6 0.617347 0.0398672 0.09436 2 0 3 
6236 6 0.451309 0.158689 0.03369 -1 2 -4 
6947 6 0.704348 0.151551 0.084851 2 0 -3 
8158 6 0.776071 0.17504 0.0468752 -6 -3 5 
7517 5 0.384232 0.195841 0.0411378 2 2 -4 
5148 5 0.995903 0.217717 0.0301748 -2 1 -3 
6019 5 0.884817 0.242088 0.0374859 0 2 -3 
5940 5 0.107751 0.28571 0.0972672 0 1 2 
5255 5 0.45062 0.253579 0.0729152 -5 -1 2 
5653 5 0.619002 0.203901 0.0890106 -1 0 -1 
6020 5 0.676113 0.276297 0.058691 4 1 -5 
5279 6 0.754879 0.257528 0.0476486 1 3 -1 
8644 6 0.891214 0.289773 0.0555006 4 -2 4 
5540 5 0.278088 0.285736 0.00224026 1 -1 3 
6022 5 0.364104 0.266362 0.0251367 -1 1 4 
5291 5 0.464263 0.280804 0.0635942 -1 -3 -3 
4090 1 0.502442 0.285172 0.0647807 0 0 0 
5093 5 0.704796 0.275811 0.0105307 5 0 -1 
5508 5 0.157727 0.291962 0.058118 1 7 1 
8030 6 0.982444 0.305089 0.0929152 0 -6 -1 
6032 6 0.625037 0.322219 0.0159802 1 -6 0 
5157 6 0.169421 0.339823 0.0813122 1 -2 -3 
7715 6 0.379825 0.365836 0.0798452 -2 6 -5 
5323 5 0.556172 0.359115 0.0621368 -7 -2 3 
5850 6 0.610725 0.386239 0.0579115 0 0 5 
7002 6 0.834873 0.430399 0.0540702 -5 -4 4 
8384 6 0.989584 0.427813 0.109705 1 0 -3 
7666 6 0.783241 0.474015 0.0397252 4 1 5 
5994 5 0.534202 0.495547 0.0540203 -1 2 -4 
8325 6 0.597403 0.485005 0.0733533 -1 0 1 
7861 6 0.942168 0.492203 0.0518609 1 -3 1 
7219 5 0.0651499 0.569437 0.0574998 8 1 2 
6860 5 0.326274 0.534714 0.0436831 0 0 -3 
5752 5 0.524552 0.543625 0.034022 1 0 0 
8755 6 0.565782 0.57453 0.0661473 2 6 -4 
8829 6 0.0972157 0.551735 0.0493022 -3 -1 0 
7347 5 0.240321 0.597042 0.0849068 -1 -4 -1 
5290 6 0.802597 0.587281 0.0810133 -2 2 -1 
5836 5 0.180118 0.626588 0.0421 0 -1 2 
8797 6 0.631005 0.640922 0.0721596 1 0 1 
5814 6 0.314336 0.660297 0.0656515 -3 5 1 
8223 5 0.439276 0.618891 0.0357849 -1 -2 6 
7528 6 0.233669 0.667517 0.000682907 1 -1 3 
8784 6 0.870573 0.663371 0.0646209 -3 -5 2 
6151 5 0.136591 0.693945 0.0295781 4 -2 2 
6948 6 0.648465 0.731839 0.105855 2 5 1 
8391 6 0.437458 0.712816 0.0453991 3 -1 3 
8224 5 0.503068 0.731349 0.0470413 -6 -1 0 
5633 6 0.543011 0.740923 0.0467476 -1 2 -2 
7350 5 0.704716 0.750216 0.0684251 2 -3 -1 
5645 5 0.940698 0.712594 0.0494709 -1 3 1 
6574 6 0.160686 0.794708 0.065267 3 6 7 
8779 6 0.201377 0.829775 0.0577908 -1 -2 -1 
6741 5 0.440207 0.81451 0.0547657 -1 3 1 
8515 6 0.788762 0.828089 0.0193834 0 -1 -1 
6638 6 0.778332 0.7877 0.00993643 0 -4 1 
6631 6 0.996004 0.764925 0.0642469 3 -3 1 
8491 6 0.246704 0.794108 0.0268347 1 4 0 
8267 5 0.436034 0.848346 0.0437022 -1 1 -3 
5462 5 0.530961 0.800346 0.073468 -2 1 -1 
8668 6 0.201204 0.830522 0.0669484 -2 1 -2 
6506 6 0.379487 0.870667 0.0378723 -2 3 1 
8288 5 0.573571 0.881161 0.0731931 0 1 4 
7821 6 0.662483 0.875438 0.061908 -2 1 4 
5052 5 0.862046 0.87035 0.0678226 8 0 -3 
5725 6 0.561755 0.8274 0.0596715 -3 0 -1 
6878 5 0.968671 0.916121 0.0860764 0 1 4 
7905 6 0.184057 0.889608 0.0952693 -2 1 1 
6842 6 0.616645 0.901681 0.0501106 -2 0 -4 
8567 6 0.643141 0.900271 0.0762194 4 -1 4 
5704 5 0.6793 0.90009 0.0422842 0 3 0 
6099 6 0.835709 0.895305 0.0968325 -3 3 7 
6953 5 0.953425 0.932428 0.0975179 -1 -1 4 
7581 5 0.13208 0.92935 0.0505488 2 1 -1 
8635 5 0.444727 0.951953 0.0801141 -4 -2 2 
8646 5 0.707245 0.911724 0.0623474 4 -1 1 
5269 6 0.746411 0.967762 0.0392334 6 3 -1 
5660 5 0.836403 0.94775 0.00800672 2 1 3 
6716 6 0.908811 0.926162 0.07492 0 -4 2 
7650 5 0.0493827 0.96071 0.0444168 1 -2 2 
6408 6 0.383762 0.93589 0.0498338 -1 -1 -4 
8960 5 0.359607 0.965288 0.060314 2 1 -1 
5503 5 0.566053 0.936176 0.0585598 -2 -4 0 
7055 5 0.973153 0.966515 0.0444602 -2 -2 -1 
5874 5 0.571377 0.0394066 0.100777 4 1 -2 
8101 5 0.928488 0.970306 0.063259 -3 0 0 
7806 6 0.234601 0.0599998 0.0496025 4 0 -4 
8872 5 0.324676 0.0246125 0.0815504 0 2 1 
5198 5 0.902543 0.0540859 0.0783323 -4 0 -4 
5396 6 0.429011 0.0612641 0.0839735 6 -1 -6 
7011 6 0.444161 0.037386 0.0798225 6 4 0 
6135 5 0.527201 0.0433453 0.0924249 1 -1 1 
6997 6 0.762626 0.0260783 0.116737 -6 2 1 
5440 6 0.330523 0.102221 0.0793491 -1 0 -3 
6544 6 0.447147 0.110534 0.103494 6 2 1 
5352 6 0.896282 0.0986898 0.0796702 1 0 -1 
7441 6 0.586825 0.160445 0.0947384 -2 -1 -1 
7032 5 0.713389 0.123522 0.0833226 4 -1 0 
6709 6 0.0640375 0.229902 0.0888221 0 -2 -3 
6228 6 0.189414 0.296037 0.0483793 -2 -2 1 
7323 6 0.0957007 0.244265 0.0876307 0 1 2 
4116 1 0.447937 0.254448 0.0848324 0 0 0 
4115 1 0.447046 0.250863 0.0798285 0 0 0 
4117 1 0.448357 0.248084 0.0868643 0 0 0 
4118 1 0.447075 0.251679 0.0920672 0 0 0 
5402 5 0.474397 0.268303 0.0808466 0 2 5 
4107 1 0.464745 0.269337 0.0746352 0 0 0 
4114 1 0.453554 0.253004 0.0798103 0 0 0 
4109 1 0.457476 0.269911 0.0756359 0 0 0 
4108 1 0.462026 0.271024 0.0800152 0 0 0 
4113 1 0.449331 0.257817 0.0781662 0 0 0 
4111 1 0.452659 0.264551 0.0780759 0 0 0 
8559 6 0.559952 0.26669 0.0638033 -5 -2 2 
5758 6 0.614957 0.232343 0.0284549 4 -2 0 
7029 6 0.256806 0.29503 0.0546339 -1 5 -4 
4105 1 0.471856 0.271272 0.0729151 0 0 0 
4104 1 0.475322 0.275719 0.0762208 0 0 0 
4103 1 0.475174 0.277472 0.0699838 0 0 0 
4102 1 0.478146 0.282065 0.0736188 0 0 0 
4106 1 0.46877 0.272797 0.0780572 0 0 0 
4101 1 0.480932 0.281257 0.0678052 0 0 0 
4100 1 0.48209 0.276388 0.0716505 0 0 0 
4097 1 0.488741 0.277196 0.0713713 0 0 0 
4099 1 0.484795 0.275578 0.0659756 0 0 0 
4098 1 0.487188 0.271252 0.070001 0 0 0 
4094 1 0.497809 0.273872 0.0638106 0 0 0 
4095 1 0.491911 0.276377 0.0645123 0 0 0 
4093 1 0.498083 0.279737 0.0662361 0 0 0 
4096 1 0.49396 0.273797 0.0700263 0 0 0 
4092 1 0.500509 0.279765 0.0606075 0 0 0 
4091 1 0.505087 0.279546 0.0660208 0 0 0 
4089 1 0.508048 0.285617 0.0680853 0 0 0 
4087 1 0.508424 0.286064 0.0749248 0 0 0 
4088 1 0.502549 0.287241 0.0717487 0 0 0 
5804 6 0.617558 0.291999 0.0897688 0 -2 3 
5599 5 0.627343 0.273886 0.0670746 3 0 3 
7701 6 0.991845 0.257185 0.0812266 -5 1 -4 
7104 5 0.319219 0.311636 0.0898015 3 -6 -1 
8076 5 0.47523 0.295655 0.113435 -3 -2 -1 
7759 5 0.527354 0.321002 0.0518657 -4 3 2 
4073 1 0.48403 0.318895 0.0848983 0 0 0 
4071 1 0.485913 0.312467 0.0877419 0 0 0 
4070 1 0.483684 0.310564 0.093814 0 0 0 
4069 1 0.479394 0.308417 0.089191 0 0 0 
4085 1 0.511973 0.292982 0.0749944 0 0 0 
4084 1 0.509526 0.296897 0.0796275 0 0 0 
4086 1 0.505445 0.292029 0.0759732 0 0 0 
4082 1 0.509212 0.303706 0.0786996 0 0 0 
4079 1 0.497905 0.308961 0.0784087 0 0 0 
4077 1 0.495513 0.312233 0.0843061 0 0 0 
4080 1 0.503406 0.307872 0.0813299 0 0 0 
4076 1 0.496442 0.318604 0.0844541 0 0 0 
4081 1 0.503354 0.304436 0.0763574 0 0 0 
4083 1 0.508078 0.299343 0.0734192 0 0 0 
7409 6 0.610581 0.303048 0.0935176 -1 -2 3 
4075 1 0.490489 0.316567 0.0826523 0 0 0 
4074 1 0.489822 0.320023 0.0877741 0 0 0 
4072 1 0.483363 0.317863 0.091221 0 0 0 
4078 1 0.50005 0.314521 0.0801652 0 0 0 
6579 6 0.015704 0.391595 0.102799 0 1 -1 
7177 6 0.0537866 0.371731 0.0757709 -2 -3 2 
6837 5 0.230347 0.360303 0.0704717 -2 1 0 
5637 6 0.376013 0.355537 0.0716802 3 -6 1 
5792 6 0.752312 0.403255 0.112437 3 -1 -2 
7317 6 0.134568 0.406495 0.0865767 -2 1 -2 
5210 5 0.924252 0.413487 0.0472388 -2 -2 1 
8282 6 0.65631 0.425929 0.0904092 -5 2 1 
8478 6 0.822161 0.41269 0.101759 0 -4 2 
7103 6 0.0174548 0.443122 0.1094 3 0 -3 
5273 6 0.968314 0.434159 0.0736997 3 -1 0 
8192 6 0.608891 0.482956 0.0510616 0 -1 0 
7560 5 0.223258 0.516157 0.117269 -4 3 2 
8255 5 0.536728 0.486884 0.104634 0 -1 -6 
7804 5 0.576278 0.486 0.0871885 3 -1 2 
7718 6 0.638183 0.498332 0.10106 1 8 0 
8207 5 0.040477 0.486841 0.115182 3 -2 -2 
7577 5 0.0769016 0.545842 0.0584616 3 -5 4 
7813 5 0.0380321 0.518362 0.0893648 -1 -1 -3 
8879 6 0.214025 0.575233 0.0890333 0 0 -3 
5333 5 0.345023 0.519152 0.0386309 -2 -2 2 
8815 6 0.626377 0.543337 0.0496482 1 -2 6 
7957 6 0.206238 0.556032 0.052396 1 1 -2 
6363 5 0.290072 0.557992 0.0758202 -2 3 2 
8692 6 0.340025 0.589619 0.0755654 -1 -6 -2 
5929 5 0.673982 0.589696 0.0705429 0 1 0 
5306 5 0.041363 0.613065 0.0837335 1 -1 0 
6763 6 0.284273 0.610764 0.0537974 -2 4 0 
5901 5 0.56183 0.60495 0.0763944 -4 3 -2 
6768 5 0.820122 0.596969 0.0684397 -2 -1 1 
5550 5 0.843173 0.578923 0.0994612 0 2 4 
5707 6 0.936921 0.636106 0.077673 -3 -2 -1 
8522 5 0.335486 0.626588 0.125455 -3 3 -2 
5953 6 0.32407 0.653982 0.0633237 1 0 4 
7826 5 0.165533 0.613393 0.0869699 -2 2 1 
8712 6 0.393556 0.637386 0.079076 3 5 1 
6642 6 0.130419 0.665569 0.107599 -6 3 -3 
6802 6 0.211717 0.663186 0.0721341 0 -1 0 
5389 6 0.520294 0.701643 0.0762257 4 -3 3 
6991 6 0.444889 0.686631 0.0633867 -2 -2 4 
5209 5 0.648499 0.672326 0.10964 3 2 -2 
8763 6 0.826667 0.728924 0.0476662 6 3 0 
6403 5 0.337823 0.720089 0.0989774 -3 -6 0 
7318 6 0.674647 0.713957 0.116625 3 -4 3 
6815 5 0.489921 0.705004 0.050634 2 1 1 
5930 6 0.62016 0.751606 0.0455544 -1 3 2 
8256 6 0.129899 0.733548 0.0895489 3 -1 1 
7367 5 0.360441 0.783642 0.0879267 5 -3 0 
6807 5 0.690015 0.815412 0.0796941 3 3 5 
7511 6 0.880552 0.767254 0.119825 3 1 3 
7395 5 0.684373 0.821703 0.0888953 2 -4 -2 
7518 5 0.546605 0.884639 0.0978609 -1 2 -3 
8572 6 0.261821 0.904391 0.0883169 1 0 0 
5243 6 0.457746 0.909191 0.0707021 -8 0 0 
6766 5 0.482676 0.905104 0.106376 -3 -1 4 
6811 6 0.150291 0.930938 0.0462751 4 -3 -2 
6787 5 0.287377 0.89993 0.072997 -3 2 5 
5444 5 0.437516 0.946072 0.0728749 -1 -4 2 
6799 5 0.57198 0.910222 0.0760926 1 2 0 
7455 5 0.764651 0.935589 0.0423288 0 3 -2 
6641 5 0.98843 0.959916 0.0633723 2 2 3 
5926 6 0.972029 0.952752 0.0922483 -1 -1 7 
7868 6 0.0254914 0.0247373 0.104217 3 6 5 
5745 5 0.228644 0.0650132 0.095618 -1 2 -2 
5833 6 0.249562 0.0699111 0.0924338 2 -2 1 
5311 6 0.525116 0.0822325 0.148358 1 1 0 
8244 5 0.968359 0.0961343 0.0822716 -1 -2 3 
6614 5 0.215744 0.0823505 0.0936396 0 3 5 
7521 6 0.570678 0.0852774 0.110656 -2 -3 2 
6988 5 0.419353 0.102111 0.0836904 -1 3 0 
7448 6 0.567736 0.0997883 0.109029 -1 2 3 
7912 6 0.584249 0.116234 0.0841889 2 4 2 
6931 5 0.998979 0.114693 0.0929549 1 0 0 
8345 6 0.335709 0.132085 0.0696464 0 0 -1 
8759 6 0.579828 0.188516 0.09967 0 -3 3 
8957 5 0.98139 0.19746 0.0904135 1 -1 -1 
6921 6 0.668585 0.201945 0.119567 0 2 0 
6300 6 0.356115 0.234137 0.124716 3 2 4 
6831 5 0.725042 0.285192 0.0883991 -1 1 2 
6417 5 0.0197963 0.270687 0.122585 2 7 0 
4120 1 0.440373 0.251945 0.0940618 0 0 0 
4122 1 0.437765 0.248787 0.100253 0 0 0 
4119 1 0.44361 0.246291 0.0927896 0 0 0 
4121 1 0.443973 0.250179 0.0991254 0 0 0 
4124 1 0.434346 0.250124 0.106482 0 0 0 
4123 1 0.440773 0.248679 0.105681 0 0 0 
4125 1 0.437921 0.25427 0.11038 0 0 0 
4126 1 0.435517 0.249735 0.113854 0 0 0 
4110 1 0.459314 0.263908 0.0774562 0 0 0 
4112 1 0.454679 0.258991 0.0748382 0 0 0 
5541 6 0.595485 0.245804 0.118813 0 0 5 
8598 5 0.816287 0.243391 0.0953989 1 -1 -2 
5632 6 0.773824 0.289426 0.0970748 -1 -4 0 
6966 6 0.936988 0.28133 0.0930752 -1 0 -1 
4064 1 0.47414 0.299078 0.101798 0 0 0 
4067 1 0.474784 0.302664 0.0904922 0 0 0 
4068 1 0.480131 0.303538 0.0941859 0 0 0 
4063 1 0.480526 0.30081 0.101294 0 0 0 
4062 1 0.479368 0.298933 0.106953 0 0 0 
4061 1 0.482284 0.304518 0.108001 0 0 0 
4066 1 0.473766 0.304702 0.0966328 0 0 0 
4065 1 0.475815 0.298412 0.0956609 0 0 0 
5933 6 0.481949 0.291758 0.0746418 -5 1 1 
4056 1 0.483535 0.299726 0.121448 0 0 0 
6104 5 0.842965 0.307969 0.087831 1 -3 3 
7327 6 0.13892 0.338711 0.0737621 -1 2 -1 
8594 5 0.959658 0.279357 0.113953 1 -3 9 
5277 6 0.476141 0.374898 0.0801824 2 4 2 
8185 6 0.134837 0.39579 0.122453 1 0 -2 
7173 6 0.196023 0.394522 0.073688 2 0 -2 
6583 6 0.464829 0.368811 0.0808965 -2 3 1 
8027 5 0.00219037 0.453218 0.129816 -1 -1 1 
8173 5 0.142895 0.414726 0.0722726 -2 0 4 
8436 5 0.237862 0.468564 0.111382 3 1 3 
8708 5 0.394202 0.471621 0.0968843 2 -2 1 
5039 5 0.523238 0.411166 0.0850084 -6 0 2 
7479 6 0.711516 0.391626 0.1165 -6 2 1 
6496 6 0.130612 0.483657 0.0766696 2 2 3 
6297 5 0.392107 0.476426 0.117294 5 -4 -6 
5372 6 0.557112 0.467422 0.0669655 -3 1 -3 
8818 5 0.0642655 0.498845 0.0692344 -3 -1 3 
7503 6 0.236345 0.512497 0.0913424 -2 2 -3 
8616 6 0.353677 0.516008 0.0886372 1 0 5 
8978 6 0.322456 0.509898 0.1222 -3 1 5 
6046 6 0.403592 0.538168 0.101237 2 7 0 
7698 5 0.22626 0.570375 0.079863 3 -4 -2 
7610 5 0.127247 0.634199 0.0949835 5 2 8 
7660 6 0.811508 0.580634 0.132424 1 -2 7 
7934 5 0.954631 0.628301 0.0988146 0 2 -1 
6503 6 0.263965 0.674712 0.16631 -2 -3 3 
6534 5 0.298989 0.652317 0.142379 -2 0 1 
5265 5 0.552817 0.674704 0.115508 3 0 3 
7662 5 0.535754 0.63431 0.0868036 -2 -3 -3 
8022 5 0.704081 0.669359 0.138254 1 2 2 
8990 6 0.740512 0.67057 0.0764646 -3 -2 -3 
5782 5 0.0836246 0.707453 0.137277 0 5 0 
5328 5 0.437777 0.69761 0.0635789 1 0 0 
7608 6 0.115924 0.679519 0.100948 -3 -1 1 
7941 6 0.338122 0.731662 0.104633 5 -4 4 
8419 6 0.0248027 0.79569 0.0926271 2 -4 0 
5313 5 0.147799 0.728328 0.114746 3 -5 0 
7358 6 0.852463 0.760287 0.122255 0 -1 1 
6208 6 0.422152 0.785346 0.096643 3 -3 0 
8632 6 0.215042 0.841155 0.092657 -3 5 2 
6469 6 0.276813 0.814287 0.121228 -2 -2 2 
6958 6 0.201842 0.80031 0.0958528 2 2 6 
6386 6 0.165097 0.807695 0.103054 -3 -1 2 
5152 5 0.438133 0.790506 0.0938789 3 -1 1 
5458 5 0.565247 0.843489 0.11278 0 -2 1 
5374 5 0.406672 0.866968 0.0537996 0 -2 6 
7835 5 0.439595 0.852667 0.134684 3 2 0 
6535 6 0.181293 0.870886 0.119644 1 -1 -2 
8656 6 0.779818 0.839879 0.106678 -3 1 3 
5634 5 0.540632 0.921612 0.151631 0 -2 0 
6684 6 0.59406 0.906306 0.0750927 -2 -3 0 
5517 5 0.13832 0.959279 0.0772432 0 0 1 
7512 6 0.987629 0.917861 0.139796 -1 -2 1 
7679 6 0.212237 0.959882 0.0758969 4 -1 2 
7736 5 0.264434 0.0131819 0.086959 0 6 -2 
7212 6 0.545303 0.0058393 0.149845 0 2 3 
7645 6 0.767191 0.0102711 0.147966 -3 -5 -1 
6867 6 0.460081 0.0706637 0.113052 0 -5 0 
7091 6 0.0360618 0.085452 0.14825 -2 -1 8 
8772 6 0.0199493 0.123946 0.128898 4 2 0 
5393 6 0.0330627 0.0996243 0.128876 -2 3 -6 
6130 6 0.349 0.148072 0.157549 3 -2 -2 
5489 6 0.450823 0.169782 0.126392 8 -7 0 
8788 5 0.805315 0.167791 0.148271 -4 -1 2 
4212 1 0.377282 0.212998 0.126271 0 0 0 
4210 1 0.381252 0.214524 0.131845 0 0 0 
4211 1 0.381598 0.218376 0.12644 0 0 0 
4206 1 0.393128 0.212078 0.13665 0 0 0 
4225 1 0.357724 0.205405 0.132779 0 0 0 
4224 1 0.352978 0.208336 0.136334 0 0 0 
4207 1 0.391425 0.213461 0.13069 0 0 0 
4205 1 0.396573 0.209148 0.131723 0 0 0 
5335 6 0.444866 0.196335 0.127241 -2 1 -3 
4134 1 0.442685 0.239613 0.126151 0 0 0 
4135 1 0.445922 0.2443 0.128976 0 0 0 
4133 1 0.439778 0.242277 0.131562 0 0 0 
4137 1 0.453406 0.24348 0.128986 0 0 0 
4132 1 0.43623 0.242756 0.125573 0 0 0 
4131 1 0.436486 0.248411 0.129121 0 0 0 
4130 1 0.441385 0.247534 0.125266 0 0 0 
4138 1 0.454514 0.240109 0.133936 0 0 0 
4136 1 0.449471 0.238752 0.128507 0 0 0 
4139 1 0.458527 0.245848 0.134432 0 0 0 
5903 5 0.580213 0.228937 0.101012 -1 3 -2 
7568 6 0.678131 0.220416 0.0829634 -2 -2 -5 
5123 6 0.95807 0.212252 0.126569 -1 1 -2 
4127 1 0.43675 0.254791 0.117454 0 0 0 
4129 1 0.438968 0.253375 0.123929 0 0 0 
4128 1 0.441252 0.250481 0.1183 0 0 0 
6163 5 0.471348 0.224183 0.0964492 -4 3 -2 
4040 1 0.50097 0.266749 0.135281 0 0 0 
4042 1 0.496367 0.268364 0.129337 0 0 0 
6274 5 0.496157 0.272758 0.135649 -1 -3 1 
4039 1 0.50719 0.269599 0.134882 0 0 0 
4041 1 0.502444 0.266358 0.129273 0 0 0 
4038 1 0.503438 0.272215 0.13911 0 0 0 
4043 1 0.499861 0.27272 0.126015 0 0 0 
6963 5 0.20122 0.293838 0.149547 -1 -2 3 
8746 5 0.268555 0.251688 0.107644 1 2 0 
8178 5 0.420449 0.275142 0.150549 2 0 1 
3916 1 0.480153 0.291577 0.136602 0 0 0 
4051 1 0.485002 0.29174 0.13119 0 0 0 
3917 1 0.486601 0.290188 0.13759 0 0 0 
4044 1 0.495316 0.275849 0.128899 0 0 0 
4052 1 0.482701 0.293126 0.125078 0 0 0 
4053 1 0.478747 0.295712 0.129238 0 0 0 
4054 1 0.484206 0.298876 0.128764 0 0 0 
3915 1 0.481427 0.289531 0.142593 0 0 0 
4046 1 0.492084 0.28218 0.125425 0 0 0 
4045 1 0.497679 0.279242 0.123712 0 0 0 
4047 1 0.496437 0.282986 0.129854 0 0 0 
4048 1 0.494236 0.28891 0.127707 0 0 0 
4049 1 0.49069 0.286892 0.132315 0 0 0 
4050 1 0.487335 0.287514 0.126957 0 0 0 
3920 1 0.492141 0.29589 0.139698 0 0 0 
8151 6 0.784571 0.292632 0.0790427 2 -2 4 
7590 6 0.0224664 0.295063 0.134798 2 -1 3 
6748 6 0.269269 0.319895 0.123895 -1 0 -1 
6882 5 0.417513 0.332519 0.103213 0 0 -1 
4060 1 0.479151 0.302506 0.113142 0 0 0 
4059 1 0.48433 0.306709 0.114807 0 0 0 
4058 1 0.48004 0.306136 0.119852 0 0 0 
4055 1 0.480397 0.302916 0.126481 0 0 0 
4057 1 0.485968 0.305696 0.121813 0 0 0 
3879 1 0.484274 0.311784 0.137118 0 0 0 
3880 1 0.479793 0.312782 0.132701 0 0 0 
3881 1 0.476924 0.31114 0.137967 0 0 0 
7732 5 0.467469 0.310215 0.151828 4 1 0 
3918 1 0.485554 0.296267 0.135544 0 0 0 
3921 1 0.49617 0.299225 0.136015 0 0 0 
3919 1 0.491334 0.294183 0.133806 0 0 0 
8743 6 0.951437 0.318819 0.149691 2 0 -3 
5628 5 0.91529 0.35018 0.135231 4 -2 2 
5967 6 0.384161 0.318991 0.15945 1 -1 2 
3877 1 0.48965 0.316559 0.135388 0 0 0 
3878 1 0.486235 0.313388 0.131183 0 0 0 
3876 1 0.485567 0.320494 0.133202 0 0 0 
3875 1 0.490092 0.323882 0.136257 0 0 0 
3872 1 0.489523 0.330211 0.141281 0 0 0 
3874 1 0.485244 0.328142 0.13524 0 0 0 
8352 6 0.927167 0.338444 0.106768 0 5 -2 
8155 5 0.937817 0.306912 0.147456 2 -2 8 
8133 6 0.458098 0.386211 0.148526 -1 1 3 
6243 6 0.437434 0.355638 0.113764 6 4 -3 
6797 6 0.51439 0.407388 0.0642766 4 3 -1 
7309 6 0.355294 0.419702 0.116814 -2 4 -6 
6849 5 0.81284 0.442029 0.11411 3 3 0 
5122 6 0.889142 0.420983 0.124345 -1 -1 0 
6423 6 0.304544 0.512681 0.125919 4 1 1 
8299 6 0.506345 0.486281 0.120145 1 0 5 
7287 5 0.777632 0.475901 0.149006 -1 -2 0 
6195 5 0.0597133 0.484956 0.130813 -6 0 -3 
5636 6 0.367155 0.535326 0.124028 -4 0 -1 
8653 6 0.94543 0.494963 0.149346 -3 -2 3 
7190 5 0.0720388 0.543782 0.139249 -4 3 1 
5579 6 0.557794 0.551692 0.106245 1 -3 8 
7817 5 0.937944 0.539145 0.140089 1 -2 -1 
7580 6 0.623791 0.585167 0.14919 1 1 6 
8245 5 0.380967 0.576682 0.126326 1 5 2 
8248 6 0.189217 0.637762 0.114526 2 -5 2 
5160 6 0.206986 0.61224 0.121887 2 -8 -4 
7637 5 0.453437 0.677748 0.138487 -3 -3 1 
5183 5 0.711968 0.60024 0.109289 2 -1 0 
5130 5 0.453859 0.659886 0.1031 3 1 3 
8257 6 0.487937 0.669363 0.140455 1 3 -5 
6782 6 0.573446 0.623153 0.167059 1 3 1 
6521 6 0.432531 0.632076 0.136366 4 2 -2 
7722 5 0.627551 0.669969 0.117761 -1 -2 -1 
5095 6 0.986351 0.682501 0.126809 2 0 -1 
5320 6 0.825946 0.715208 0.11785 2 1 -3 
7143 5 0.0646249 0.723889 0.131419 -4 3 2 
7625 5 0.264748 0.805193 0.123912 0 0 0 
8106 6 0.679539 0.754515 0.141863 -3 0 -2 
6668 5 0.971334 0.770863 0.139137 -1 0 4 
7502 5 0.856707 0.808414 0.125248 1 2 -2 
7191 5 0.534695 0.801183 0.101707 -2 2 -1 
6559 5 0.896923 0.80261 0.167643 1 0 6 
5532 5 0.230962 0.881158 0.12043 0 3 -6 
5674 5 1.00258 0.82447 0.0993163 3 -1 -2 
6919 5 0.302352 0.864439 0.128157 -2 4 -1 
5819 5 0.590256 0.885894 0.106999 0 0 -4 
5841 5 0.779562 0.888746 0.115455 -2 2 -2 
5266 5 0.830478 0.89127 0.139855 -3 -1 -5 
5326 6 0.358185 0.93402 0.117456 0 -2 0 
5098 6 0.581559 0.900899 0.126656 2 -3 5 
5769 6 0.589134 0.920784 0.12898 -1 -1 -3 
7936 6 0.984704 0.895685 0.135929 -1 3 0 
7078 5 0.493354 0.946997 0.152974 -4 0 2 
8841 6 0.497622 0.972719 0.140008 -2 -3 2 
8682 5 0.767896 0.969973 0.1145 3 0 0 
5735 6 0.759755 0.939808 0.158112 5 -4 -3 
7745 6 0.813241 0.968792 0.165393 0 -5 2 
6036 5 0.0152207 0.0542309 0.139702 5 0 -1 
5965 6 0.596454 0.0321438 0.165379 -2 1 5 
6707 5 0.639597 0.0649696 0.144064 2 0 -4 
5050 6 0.0912835 0.0532195 0.153479 3 1 6 
5524 5 0.280761 0.113602 0.156391 -1 3 -4 
6077 5 0.453633 0.0886008 0.141767 1 -2 -1 
6286 5 0.218751 0.123897 0.151975 6 2 2 
7739 6 0.087972 0.159966 0.167476 6 2 1 
6406 6 0.360921 0.0910555 0.16135 -2 -1 4 
8342 6 0.383256 0.121492 0.173741 -2 2 1 
5430 6 0.549023 0.149969 0.149186 1 3 3 
7356 5 0.110803 0.186331 0.13825 -1 -1 2 
6784 6 0.250898 0.248903 0.167384 2 -1 -1 
4254 1 0.344488 0.199383 0.162301 0 0 0 
4228 1 0.361244 0.197291 0.142117 0 0 0 
4252 1 0.346726 0.201198 0.155214 0 0 0 
4251 1 0.350965 0.197881 0.151663 0 0 0 
4248 1 0.347499 0.203017 0.141796 0 0 0 
4249 1 0.349419 0.204285 0.147932 0 0 0 
4253 1 0.349101 0.196265 0.158647 0 0 0 
4204 1 0.396074 0.204513 0.136434 0 0 0 
4227 1 0.36203 0.199619 0.135923 0 0 0 
4229 1 0.367745 0.199568 0.140469 0 0 0 
4202 1 0.402094 0.201419 0.140289 0 0 0 
4201 1 0.40222 0.205824 0.144715 0 0 0 
4203 1 0.401129 0.207645 0.137995 0 0 0 
4200 1 0.407447 0.202123 0.144859 0 0 0 
4199 1 0.40293 0.200938 0.149787 0 0 0 
4195 1 0.409776 0.200849 0.160532 0 0 0 
4194 1 0.413448 0.206673 0.160204 0 0 0 
4193 1 0.410713 0.206127 0.165964 0 0 0 
4189 1 0.421663 0.198522 0.171749 0 0 0 
4191 1 0.416651 0.20081 0.167373 0 0 0 
7182 6 0.582201 0.158848 0.165069 -1 0 3 
4250 1 0.345825 0.198708 0.147958 0 0 0 
4247 1 0.344062 0.208078 0.143286 0 0 0 
4246 1 0.350633 0.209615 0.143617 0 0 0 
7918 5 0.349192 0.208462 0.155898 -1 1 0 
4245 1 0.347535 0.211124 0.148981 0 0 0 
4243 1 0.345895 0.218539 0.150103 0 0 0 
4241 1 0.35101 0.221354 0.155237 0 0 0 
4242 1 0.348281 0.215637 0.154884 0 0 0 
4244 1 0.351773 0.21602 0.147945 0 0 0 
4240 1 0.353952 0.216751 0.159531 0 0 0 
8631 5 0.353469 0.199764 0.143582 -1 -1 2 
4236 1 0.356652 0.209119 0.157505 0 0 0 
4226 1 0.357824 0.203267 0.139006 0 0 0 
4234 1 0.355043 0.205048 0.152528 0 0 0 
4235 1 0.353968 0.211085 0.15219 0 0 0 
4232 1 0.362006 0.206561 0.149649 0 0 0 
4238 1 0.36002 0.214022 0.161446 0 0 0 
4239 1 0.358906 0.219385 0.157316 0 0 0 
4237 1 0.360864 0.213152 0.154849 0 0 0 
4213 1 0.374532 0.217823 0.124168 0 0 0 
4214 1 0.374779 0.218086 0.130481 0 0 0 
4208 1 0.386885 0.210493 0.133539 0 0 0 
4216 1 0.371691 0.222934 0.133818 0 0 0 
4217 1 0.364936 0.223631 0.133025 0 0 0 
4223 1 0.355585 0.213004 0.133085 0 0 0 
4219 1 0.366301 0.21767 0.136369 0 0 0 
4220 1 0.362579 0.217607 0.141484 0 0 0 
4222 1 0.356997 0.213302 0.139445 0 0 0 
4221 1 0.359093 0.218886 0.136429 0 0 0 
4218 1 0.366703 0.223342 0.139004 0 0 0 
4231 1 0.362705 0.20428 0.14322 0 0 0 
4230 1 0.365676 0.200279 0.14682 0 0 0 
4233 1 0.356536 0.206565 0.146614 0 0 0 
4209 1 0.385107 0.212026 0.127402 0 0 0 
4198 1 0.408369 0.198196 0.15098 0 0 0 
4196 1 0.413827 0.200512 0.155478 0 0 0 
4197 1 0.408419 0.203611 0.154236 0 0 0 
4192 1 0.416526 0.207709 0.166875 0 0 0 
4190 1 0.422406 0.203313 0.167759 0 0 0 
3057 1 0.45907 0.222991 0.159817 0 0 0 
3059 1 0.455903 0.226026 0.153805 0 0 0 
3058 1 0.462161 0.223374 0.154329 0 0 0 
3056 1 0.464257 0.219532 0.16104 0 0 0 
3055 1 0.46418 0.225496 0.163543 0 0 0 
3054 1 0.469122 0.224924 0.159639 0 0 0 
3060 1 0.460268 0.230237 0.1563 0 0 0 
8614 5 0.603934 0.194294 0.140519 0 0 7 
4272 1 0.367024 0.23013 0.168537 0 0 0 
4271 1 0.367216 0.235527 0.171477 0 0 0 
4215 1 0.369966 0.221284 0.128147 0 0 0 
4273 1 0.36733 0.229098 0.174844 0 0 0 
7938 5 0.359869 0.213483 0.147408 -3 -4 -3 