ITEM: TIMESTEP
20000000
ITEM: NUMBER OF ATOMS
9000
ITEM: BOX BOUNDS pp pp pp
-75 75
-75 75
-75 75
ITEM: ATOMS id type xs ys zs ix iy iz 
5695 6 0.289742 0.974209 0.978338 -1 -2 7 
8563 5 0.540559 0.979778 0.993178 2 -1 -2 
5298 6 0.612011 0.0505511 0.972387 0 -2 -4 
6579 6 0.657651 0.991112 0.0301505 -4 2 8 
8386 6 0.956982 0.00536784 0.00793559 0 0 -2 
7978 5 0.322445 0.048249 0.0183892 -1 4 -2 
8389 5 0.454887 0.104094 0.0146619 1 0 3 
5686 6 0.514327 0.0477038 0.00318249 -2 -1 0 
7533 5 0.127611 0.0783552 0.971944 -2 1 3 
7678 6 0.192685 0.0612909 0.0190059 4 -2 3 
5133 5 0.834122 0.102941 0.019602 -4 -3 4 
5394 5 0.95686 0.0832235 0.00027166 2 1 3 
7740 6 0.0430664 0.133976 0.986812 -1 -2 0 
6881 5 0.0847712 0.139561 0.00655375 2 2 -1 
5297 5 0.776038 0.109857 0.976859 0 2 -2 
7625 5 0.292227 0.145835 0.0413029 2 5 6 
8089 5 0.443694 0.147878 0.0290444 -1 4 4 
8856 5 0.600093 0.15204 0.00119938 1 -2 3 
7664 5 0.0593002 0.166543 0.0134922 -5 0 -3 
7367 5 0.0858916 0.17961 0.996699 3 -2 -4 
8785 6 0.743594 0.17623 0.972455 -3 -3 -2 
7608 5 0.0203027 0.193443 0.0320624 -1 -3 1 
5400 5 0.378718 0.207469 0.0434818 -5 2 2 
7380 5 0.377024 0.258803 0.0118804 -1 3 -3 
6863 6 0.139982 0.345513 0.016288 -4 8 -2 
7213 5 0.274445 0.295422 0.997944 6 0 4 
6475 5 0.281946 0.300706 0.0093273 -3 -2 2 
6480 6 0.600455 0.273831 0.979048 -2 -1 1 
7982 5 0.84281 0.297136 0.0517555 3 1 6 
5162 6 0.642758 0.303468 0.972973 2 4 -8 
5499 5 0.940889 0.311878 0.0362044 0 1 -4 
5610 5 0.812639 0.353571 0.999986 2 -5 -5 
7301 5 0.925064 0.366675 0.014956 -2 -2 -1 
8397 6 0.211025 0.394672 0.0741863 3 -1 4 
5246 5 0.761733 0.390733 0.997332 3 4 7 
5489 6 0.817718 0.394965 0.0118016 -1 -2 3 
7321 5 0.362302 0.401525 0.0255849 -1 5 4 
8103 5 0.214893 0.456651 0.0308259 -1 -3 -1 
6700 5 0.329845 0.450936 0.0068661 1 -1 2 
5454 6 0.0155235 0.443518 0.99523 -2 3 -5 
8928 5 0.219476 0.461036 0.987077 2 4 -4 
7722 6 0.0828376 0.465872 0.98059 -3 0 1 
8118 5 0.34967 0.519433 0.0230492 1 -1 2 
5692 5 0.894927 0.460477 0.992051 -6 -2 -1 
5062 5 0.544882 0.494289 0.000928811 3 1 -1 
7054 6 0.121877 0.580954 0.0328775 -5 -1 2 
8778 6 0.570735 0.592844 0.0219016 -2 -1 3 
8188 6 0.0906954 0.600497 0.0584573 -2 1 5 
7270 6 0.135699 0.547879 0.0315997 3 -2 4 
8669 5 0.199743 0.564701 0.981363 1 3 -2 
7338 6 0.541691 0.586028 0.0150951 2 2 -5 
8886 5 0.771435 0.542908 0.00127641 6 3 4 
6910 5 0.415603 0.616283 0.0582782 -2 6 2 
5555 5 0.431426 0.637606 0.028875 0 -4 2 
7671 6 0.510416 0.643468 0.0132801 0 -1 -3 
6483 5 0.709747 0.589591 0.00884339 -5 0 4 
6994 6 0.217792 0.659579 0.00113045 2 -2 0 
7713 6 0.558819 0.685211 0.0221449 -2 0 -1 
8936 5 0.1344 0.708983 0.0150764 3 2 -2 
5778 6 0.258538 0.692204 0.996132 -1 -2 2 
5528 5 0.366241 0.672113 0.0428158 -1 -4 4 
6362 5 0.879134 0.687588 0.955858 -1 -3 1 
7130 5 0.948436 0.699621 0.022146 1 3 -2 
6114 6 0.323233 0.734203 0.0246531 1 -1 7 
7855 6 0.572127 0.733486 0.0412956 -1 -3 3 
6653 5 0.952024 0.760936 0.0415423 2 -2 -1 
7720 6 0.24911 0.747506 0.00897316 1 -3 5 
5949 5 0.578217 0.788086 0.995673 1 -4 0 
7325 6 0.858446 0.789252 0.0103352 0 -3 0 
6770 5 0.0370508 0.825716 1.00204 0 -4 3 
5820 5 0.0276723 0.871387 0.0262358 -2 3 1 
7910 6 0.329573 0.844496 0.984656 -1 -2 -1 
6704 5 0.665716 0.877327 0.0500728 -3 5 4 
5167 6 0.755297 0.909798 0.950367 6 -4 0 
6833 6 0.705294 0.883328 0.0206568 0 3 2 
6816 6 0.763264 0.908302 0.0103562 -2 1 1 
7821 6 0.0669137 0.923966 0.0551141 -1 1 0 
5611 5 0.776573 0.92229 0.0312158 -2 -5 -6 
5092 5 0.827718 0.946041 0.0361767 1 -2 4 
7596 5 0.0855715 0.93629 0.0034683 -3 -4 -5 
5051 6 0.972183 0.937292 0.0241929 2 0 4 
8756 6 0.129073 0.0135064 0.0104595 -2 0 3 
7754 6 0.469469 0.982097 0.997 3 4 7 
5224 5 0.923705 0.0209705 0.983716 3 0 -3 
5441 6 0.885798 0.00150575 0.0531183 -1 -4 2 
7196 5 0.56404 0.0352015 0.0747148 1 -1 -4 
6328 6 0.825395 0.0665875 0.0344951 -2 4 1 
7663 6 0.76286 0.0755622 0.0400642 -5 -6 7 
8411 6 0.882024 0.0870098 0.0561348 -3 -1 -4 
8758 6 0.36369 0.0939526 0.0166231 2 6 -2 
6838 5 0.0517035 0.10464 0.0359646 -2 -6 1 
7088 5 0.271445 0.13038 0.0044401 -1 -1 1 
7828 5 0.90891 0.11588 0.0229039 2 0 -1 
8332 6 0.491746 0.148976 0.0424232 -5 -1 -3 
7264 6 0.800197 0.148904 0.0355437 1 -3 0 
6997 6 0.231928 0.213689 0.0229427 2 -3 -1 
7778 6 0.466876 0.16924 0.0550724 3 -1 -2 
7746 5 0.295239 0.217029 0.0353304 3 -2 7 
5353 5 0.140849 0.212944 0.0568716 3 -1 1 
6501 6 0.197831 0.282443 0.0140992 2 0 1 
8401 6 0.580066 0.285716 0.0428816 2 1 2 
7478 6 0.81803 0.289338 0.0688761 0 1 4 
5792 5 0.261442 0.382314 0.0214214 -1 -1 2 
5140 6 0.502362 0.367908 0.065498 1 4 1 
7242 5 0.501019 0.326608 0.985526 4 -2 -2 
5984 6 0.687857 0.322033 0.0431514 7 0 4 
8130 6 0.351333 0.368728 0.0555706 -9 1 -2 
8780 6 0.845158 0.343267 0.0350501 5 -3 -5 
5685 6 0.956639 0.359421 0.00843856 1 -1 -3 
5204 5 0.574831 0.365336 0.0553463 1 3 7 
8129 5 0.852724 0.36426 0.0402594 4 -4 3 
7872 6 0.951032 0.3485 0.040619 1 3 2 
8185 6 0.175829 0.432137 0.0132773 1 -1 -2 
7146 6 0.281877 0.43003 0.0202141 0 5 -1 
6767 6 0.00347822 0.432535 0.0427264 -1 -2 -2 
8569 5 0.735189 0.439493 0.0400599 -7 -3 -3 
5001 5 0.825865 0.424102 0.00590137 -3 2 3 
7383 6 0.958996 0.427964 0.043897 1 -5 2 
6479 5 0.392943 0.466293 0.058208 -1 0 -1 
7443 6 0.560634 0.446593 0.0452369 -1 -3 1 
8789 6 0.562019 0.457494 0.0421695 1 4 -3 
6409 6 0.321685 0.455023 0.0221593 -1 -2 1 
8484 5 0.645228 0.451296 0.036833 3 4 -2 
8236 6 0.439147 0.519866 0.067286 -1 -3 2 
6197 6 0.752685 0.502931 0.050025 -3 2 0 
6486 5 -0.000891319 0.527872 0.0184268 1 2 0 
5461 6 0.941419 0.514143 0.997145 1 -1 0 
8239 6 0.185482 0.535931 0.0412961 -2 0 6 
7140 5 0.598108 0.511416 0.0297808 0 3 -2 
6507 5 0.508928 0.541745 0.0610025 1 3 0 
7677 6 0.386431 0.57481 0.0667887 5 0 6 
5445 6 0.524554 0.594186 0.0413109 4 2 1 
6907 6 0.97807 0.559302 0.0537085 1 -3 1 
8288 6 0.413331 0.614133 0.048088 2 -5 0 
6208 5 0.477905 0.592685 0.0195484 1 1 1 
6249 6 0.0116224 0.610287 0.0550922 -4 5 5 
6338 5 0.599457 0.612604 0.0521448 -4 -2 -2 
5594 6 0.723096 0.611002 0.0307269 3 1 -2 
6297 5 0.800124 0.637967 0.0674033 1 3 2 
5927 6 0.949714 0.632362 0.00514057 -5 -2 -1 
7141 6 0.559996 0.652483 0.0499962 1 1 0 
8333 6 0.774263 0.704971 0.0360564 -1 1 -7 
7520 6 0.83664 0.743051 0.0377067 -2 -4 8 
8091 6 0.913554 0.725868 0.0485351 -4 4 0 
5352 5 0.9211 0.718765 0.0164806 -2 -1 2 
7437 5 0.937769 0.715069 0.0516534 1 3 1 
6182 5 0.430177 0.686335 0.0393683 1 -2 2 
7749 5 0.934067 0.708193 0.0246365 2 -3 -2 
8225 5 0.645124 0.753304 0.0124827 -4 2 -5 
6810 6 0.0435822 0.782137 0.997319 0 -4 -3 
8882 6 0.233869 0.828807 0.0184662 2 -5 7 
6185 5 0.0544712 0.787756 0.0350554 5 -5 -4 
5520 5 0.406762 0.824263 0.0429729 1 -8 1 
5858 5 0.569672 0.798449 0.0436675 -1 -1 4 
8620 6 0.941683 0.898193 0.0316806 0 -4 -1 
8355 5 0.939452 0.863741 0.992379 -4 3 1 
8996 6 0.190131 0.914789 0.0123666 -3 -1 2 
6618 5 0.265705 0.950527 0.0283687 4 0 -4 
7029 5 0.558591 0.913846 1.00091 3 -3 -1 
5996 5 0.746079 0.909819 0.024251 -3 -4 5 
8742 6 0.644858 0.914425 0.0708955 5 0 7 
8624 5 0.40647 0.919533 0.0448734 0 -2 -2 
7636 5 0.392623 0.0286656 0.0629054 2 -3 -2 
5119 6 0.574806 0.0335167 0.0574031 0 1 4 
5917 5 0.828334 0.988552 0.0518077 2 -6 1 
7597 6 0.622038 0.994695 0.0693986 -5 4 0 
5540 6 0.735003 0.0697194 0.0806084 -3 2 -2 
6254 5 0.875229 0.0426943 0.0556233 -1 2 2 
6956 6 0.233303 0.0796573 0.0896053 0 3 1 
7350 5 0.294458 0.0501899 0.0647617 1 0 -1 
6361 5 0.732267 0.0440949 0.0441741 1 4 0 
8730 6 0.190722 0.0747681 0.043802 0 3 -4 
5177 5 0.226411 0.110247 0.0444931 3 -1 4 
7336 6 0.435124 0.0767102 0.07344 -1 -4 2 
5284 6 0.511678 0.0772529 0.0379588 -2 3 -4 
8164 6 0.237578 0.102968 0.0569099 -4 1 -4 
8858 5 0.559848 0.136322 0.0296537 -1 1 4 
6555 6 0.96226 0.123305 0.075885 -3 2 4 
6930 5 0.962484 0.20155 0.0412306 -2 -2 2 
5881 5 0.5298 0.216008 0.0483603 -3 1 0 
5723 6 0.043817 0.170006 0.0545969 0 4 -2 
6540 6 0.0822063 0.213448 0.0425187 2 3 -1 
8866 6 0.134294 0.206054 0.0903849 0 -1 -6 
7447 6 0.609021 0.21753 0.024398 2 3 1 
7052 6 0.326406 0.258695 0.0553123 -3 0 2 
5895 6 0.531976 0.298015 0.0137118 -5 -1 -1 
5513 5 0.365419 0.350134 0.0439413 0 3 2 
5673 6 0.414956 0.323819 0.0085769 -2 0 -2 
7413 6 0.627986 0.39566 0.0739387 3 -2 2 
5939 6 0.390892 0.430828 0.0422783 0 3 -1 
7316 6 0.584528 0.381489 0.0517844 0 2 0 
5591 6 0.666765 0.438932 0.0530652 1 3 0 
8604 6 0.708053 0.386455 0.0854077 -1 1 0 
7262 5 0.0906042 0.423666 0.0447369 -1 3 1 
7603 5 0.372587 0.474942 0.0585237 9 -4 1 
8222 6 0.421866 0.429026 0.0162782 -3 4 -1 
6333 6 0.446176 0.461384 0.0486535 5 1 2 
8321 5 0.523283 0.454581 0.0502075 3 5 -1 
8989 6 0.556215 0.419891 0.0410577 0 -3 -2 
5618 6 0.887462 0.447687 0.0636274 -4 -1 3 
7375 5 0.617679 0.485178 0.0606195 0 1 4 
7212 6 0.539811 0.460476 0.0544924 1 1 1 
7013 5 0.786649 0.511265 0.0567156 -2 -1 0 
5817 5 0.122563 0.45499 0.0653031 3 -1 -3 
7510 6 0.350895 0.495626 0.0641212 3 3 4 
8551 5 0.500878 0.489822 0.0574394 -3 1 -3 
7227 6 0.631092 0.555638 0.0668101 -1 -3 1 
7764 6 0.662329 0.575682 0.0244582 0 -1 5 
6528 6 0.626816 0.586884 0.038921 3 -2 6 
5660 6 0.209718 0.661143 0.0528046 -1 1 -2 
8143 5 0.512473 0.641162 0.09328 1 -2 2 
5646 6 0.514787 0.668063 0.0713485 0 2 3 
6313 6 0.491508 0.63393 0.0826061 -6 3 0 
5130 5 0.248616 0.700938 0.0626559 -3 4 1 
6476 6 0.504666 0.689042 0.0417443 -1 -1 0 
7768 5 0.57042 0.687846 0.0884163 -2 -1 3 
5979 6 0.838679 0.689145 0.0523017 0 -6 2 
5044 6 0.0926732 0.702428 0.0287326 3 3 -2 
5432 6 0.385949 0.683629 0.0690816 -2 2 2 
6031 5 0.990817 0.648072 0.0474341 -2 -4 -2 
8152 6 0.974313 0.716758 0.0465998 2 2 -4 
8242 6 0.576877 0.729651 0.0471304 -1 3 -1 
5559 6 0.0984187 0.778772 0.0455514 0 -1 0 
6378 5 0.371181 0.817232 0.0568721 -3 -1 0 
8149 6 0.502034 0.797026 0.0786857 2 -4 -2 
8518 5 0.862737 0.847806 0.0453956 4 -4 0 
7339 6 0.276031 0.859003 0.0645999 4 -6 -3 
7549 5 0.331115 0.793536 0.0553137 6 5 5 
6519 6 0.405919 0.817604 0.0601657 0 0 2 
6350 6 0.782686 0.849519 0.0381786 -1 -4 -4 
6689 5 0.02099 0.868397 0.0598785 -4 0 3 
8083 5 0.730279 0.870132 0.0811481 2 -2 3 
5286 5 0.786429 0.86491 0.0460851 0 -6 -2 
7578 5 0.838363 0.847647 0.0667536 -1 1 -1 
8454 6 0.674729 0.944067 0.0969364 -2 2 2 
7690 6 0.302612 0.920148 0.108289 -6 2 1 
6512 6 0.840843 0.954079 0.0759204 2 2 3 
5241 6 0.980859 0.92185 0.0670871 0 -5 0 
7650 5 0.0662791 0.940988 0.0462855 0 -1 3 
8305 6 0.278058 0.923718 0.0657741 -2 -1 2 
7579 6 0.683074 0.965196 0.103623 -2 1 3 
7138 5 0.243493 0.965506 0.056856 2 -1 9 
7040 5 0.857735 0.960786 0.06692 1 4 -2 
8037 6 0.930505 0.967026 0.0377415 -1 -3 4 
6366 6 0.0250748 0.0180001 0.0546594 1 3 -1 
5337 6 0.856793 0.969879 0.0650521 2 -1 4 
5079 5 0.304262 0.99098 0.0723342 3 -6 -1 
6491 5 0.510597 0.0202204 0.0536025 -1 -2 -1 
8368 5 0.574527 0.00213882 0.0816045 1 -3 1 
7224 6 0.728619 0.0257162 0.0600023 3 4 -4 
7480 6 0.78007 0.0446871 0.0767257 0 8 3 
6651 5 0.839463 0.997968 0.0827871 7 -7 -4 
8399 5 0.0515013 0.0667976 0.0656814 -5 1 2 
8418 6 0.138734 0.0590392 0.0625601 -4 1 6 
7170 5 0.207973 0.0697535 0.0884628 1 4 -3 
5711 5 0.288002 0.0748971 0.0565115 -2 0 1 
8748 5 0.939585 0.0507399 0.0842719 -1 3 1 
8987 6 0.213004 0.104038 0.0603378 -2 -2 2 
5886 5 0.624846 0.0843537 0.0742014 0 -1 2 
8840 6 0.799308 0.0775895 0.0779641 0 4 0 
5378 6 0.913013 0.0939211 0.0542323 -4 7 0 
7340 5 0.811322 0.0827372 0.0489062 4 3 -6 
6764 5 0.128288 0.14735 0.0923561 -1 2 -1 
5523 6 0.318087 0.141403 0.0844827 2 -4 -1 
8906 6 0.526691 0.112657 0.0985962 -4 3 -2 
8137 6 0.00715528 0.168917 0.0851214 2 -3 0 
8644 6 0.0429793 0.191838 0.0723242 1 1 2 
8159 5 0.0888925 0.164293 0.106516 2 -4 2 
8954 6 0.482641 0.171262 0.0686401 -2 -4 1 
6284 5 0.153581 0.244744 0.0775023 4 -3 -2 
6856 5 0.646819 0.284904 0.063335 -4 2 -3 
6711 6 0.358406 0.247898 0.0726863 5 -5 4 
6761 5 0.452665 0.296078 0.122804 5 2 3 
6923 6 0.479466 0.339199 0.0728135 4 2 -1 
6492 5 0.795938 0.346048 0.103046 -2 -1 -2 
5902 6 0.106715 0.350927 0.108457 4 -2 1 
8984 6 0.986901 0.358664 0.0702371 -4 -2 0 
6644 6 0.674827 0.350187 0.0747539 1 -2 -3 
8255 5 0.872803 0.35745 0.081472 0 2 -3 
8740 5 0.577622 0.408912 0.032226 2 4 2 
8985 6 0.69224 0.420843 0.0860304 0 -1 0 
7485 5 0.984153 0.407316 0.0790238 -4 -3 6 
5521 5 0.00211541 0.454695 0.0660508 4 3 5 
7774 5 0.323028 0.434676 0.0747338 1 -2 2 
6628 5 0.398182 0.443589 0.0799804 0 4 -5 
7115 6 0.194678 0.461322 0.0847579 2 6 -5 
8523 5 0.562902 0.477835 0.0615061 6 -1 1 
5396 6 0.777995 0.46795 0.0495506 1 2 -2 
6737 5 0.562562 0.517805 0.0869971 0 -1 -2 
5588 6 0.977384 0.458576 0.0571839 -1 1 -3 
6148 5 0.306417 0.519729 0.0871781 1 2 4 
7655 6 0.954383 0.521244 0.0816096 -2 0 3 
7517 6 0.465626 0.541008 0.0864954 1 3 1 
8878 6 0.997713 0.519442 0.0605098 -3 -1 4 
6332 5 0.388272 0.575008 0.0954505 -6 0 -6 
5229 6 0.578694 0.577564 0.111207 -2 1 2 
6924 6 0.190112 0.556489 0.0967936 -2 2 0 
8854 5 0.357143 0.599209 0.0590745 0 -1 0 
5836 6 0.518168 0.553707 0.0797217 4 0 2 
8533 5 0.830073 0.599658 0.109027 -4 -5 -2 
6566 5 0.624608 0.609029 0.0861647 -1 2 1 
7641 6 0.90123 0.616083 0.0577311 3 -1 0 
7697 5 0.293455 0.580912 0.0507837 -1 -1 7 
5492 6 0.71121 0.640468 0.0684871 1 1 2 
5424 6 0.0088388 0.682798 0.0706836 1 -4 -3 
8051 5 0.121764 0.647451 0.0770469 0 2 -4 
6777 6 0.13112 0.635593 0.101249 -1 -3 -2 
6736 6 0.291274 0.659061 0.095329 1 5 1 
8106 6 0.258158 0.741509 0.105746 1 -1 2 
5023 6 0.970448 0.681722 0.0649047 0 2 -7 
5134 6 0.161758 0.703949 0.0935494 3 1 -1 
8522 6 0.375067 0.776616 0.0797585 4 -2 -2 
6183 6 0.445261 0.755742 0.111298 -6 -7 0 
7830 5 0.801493 0.753137 0.0690649 3 1 3 
6380 6 0.971294 0.758611 0.060382 4 0 -4 
7854 6 0.678232 0.767283 0.075043 2 -4 -3 
8974 6 0.894437 0.799904 0.0664576 -5 1 -1 
6614 6 0.0597489 0.803367 0.0441299 0 -1 0 
6018 5 0.529683 0.832131 0.0605759 0 -4 -3 
7296 6 0.723148 0.798808 0.0768528 0 4 -5 
7268 5 0.7971 0.81802 0.0284297 5 4 -1 
8701 6 0.848872 0.834481 0.0363577 -2 -4 1 
8594 6 0.157729 0.794178 0.0848555 -1 4 -1 
6710 6 0.27975 0.808035 0.109508 -5 -1 2 
7315 5 0.916038 0.832754 0.0652825 -1 -1 -3 
5856 6 0.18949 0.857616 0.0866779 -2 -2 2 
6823 5 0.190556 0.856956 0.0602611 5 -1 2 
6377 5 0.729785 0.880969 0.078575 0 0 -1 
5798 5 0.964864 0.856818 0.0843274 6 2 1 
6147 5 0.275213 0.932239 0.101677 1 1 4 
5042 5 0.527728 0.913116 0.0639128 1 -5 -1 
5507 6 0.803278 0.935741 0.0613536 -3 1 -4 
7066 6 0.927937 0.949317 0.106602 0 -5 1 
6990 6 0.219577 0.979416 0.0845437 3 6 -2 
8033 6 0.736229 0.0496714 0.116832 -3 -3 3 
8448 6 0.250617 0.0533501 0.0856122 2 3 4 
5053 6 0.265816 0.0300342 0.0913831 -1 -5 2 
7472 6 0.598206 0.0427087 0.0567453 -5 2 -2 
5925 6 0.725469 0.0585843 0.127962 -2 4 0 
7737 6 0.0216048 0.109191 0.102328 -1 -2 0 
7108 6 0.99964 0.129842 0.127789 0 -1 3 
8294 6 0.12495 0.156323 0.111132 2 0 0 
5099 5 0.185248 0.135909 0.112621 3 4 -1 
8759 5 0.287489 0.173415 0.102325 0 1 -1 
8983 6 0.362016 0.166054 0.110974 -1 -1 -4 
8534 6 0.972626 0.180039 0.121041 4 8 -3 
7364 6 0.194786 0.183856 0.147318 4 3 3 
7666 5 0.765005 0.174945 0.0854748 2 -4 -1 
6411 6 0.239103 0.205377 0.0907851 3 1 -2 
5699 6 0.221876 0.248199 0.0929793 2 5 -3 
7509 6 0.602144 0.205511 0.0937126 -3 3 -3 
8762 5 0.676132 0.242369 0.118456 0 3 0 
5990 5 0.86436 0.204332 0.104709 -2 1 8 
7606 6 0.191263 0.212077 0.14354 3 -3 1 
7420 5 0.855075 0.218976 0.106946 -2 -1 -1 
7333 5 0.113648 0.299413 0.0849136 1 -3 3 
7965 6 0.343137 0.265479 0.0691748 1 -1 -6 
5670 6 0.449269 0.2351 0.110345 1 2 -6 
6288 5 0.562316 0.277864 0.0934749 -1 0 -1 
8869 5 0.679318 0.235674 0.0713855 0 2 5 
7250 5 0.772081 0.248567 0.0965758 4 1 3 
5560 6 0.914472 0.261825 0.115536 2 -3 9 
8666 6 0.052295 0.291879 0.109647 3 -1 -4 
8960 6 0.416989 0.318844 0.070503 -1 -2 -1 
7035 6 0.98751 0.316211 0.084696 -1 0 6 
6847 6 0.352652 0.357716 0.0836546 -1 -2 3 
6776 6 0.737948 0.333203 0.110639 2 -1 1 
8648 5 0.759478 0.387417 0.103502 1 -2 -1 
6876 5 0.066994 0.422759 0.101813 -4 -3 -3 
5828 6 0.54961 0.406159 0.126203 1 1 -2 
7573 5 0.739074 0.433234 0.0968894 -3 -5 2 
7922 5 0.150359 0.471201 0.0979428 -2 -4 0 
5689 6 0.20176 0.444088 0.116773 -4 0 2 
7038 5 0.333571 0.441519 0.0945626 1 -1 1 
8618 6 0.766199 0.414868 0.110535 2 1 2 
5700 5 0.971753 0.451239 0.0974724 -1 1 6 
6671 6 0.185486 0.413181 0.110138 0 0 1 
5861 6 0.261318 0.45254 0.0739089 -4 -1 -4 
8652 6 0.98191 0.473495 0.0961765 0 1 0 
6954 5 0.134738 0.4726 0.0785184 0 -2 2 
5629 5 0.367917 0.501293 0.149729 -2 3 -1 
8182 5 0.648393 0.491013 0.0807462 4 4 -3 
8167 6 0.848111 0.537391 0.0990018 2 -4 -2 
7457 5 0.186349 0.487381 0.0902205 3 0 -3 
8506 5 0.28148 0.54133 0.107932 6 -3 0 
5497 6 0.412749 0.52483 0.0989545 -3 -1 1 
5952 6 0.71297 0.561606 0.112716 -2 -1 -3 
8911 6 0.0271586 0.555209 0.0795429 8 6 4 
7005 6 0.0956758 0.593277 0.0736883 0 2 1 
7637 5 0.457995 0.565581 0.112146 -2 -4 2 
5872 5 0.968755 0.620992 0.116131 -4 -2 -1 
8336 6 0.0748033 0.620776 0.0993487 -2 2 2 
7580 5 0.300283 0.619458 0.115903 0 5 4 
5362 6 0.951884 0.668279 0.153969 0 1 0 
8230 5 0.865674 0.678167 0.0989115 5 1 1 
7751 5 0.0350927 0.679061 0.0867484 1 -1 4 
8459 5 0.239359 0.686268 0.130361 1 -7 1 
7311 5 0.766326 0.642434 0.0805118 0 2 2 
7245 6 0.84347 0.639278 0.0918941 5 1 -3 
6203 6 0.157016 0.67677 0.0985264 -4 -3 -5 
6467 5 0.744185 0.650552 0.0860221 5 -6 6 
8592 5 0.435924 0.720735 0.103109 5 -4 -2 
5387 6 0.938856 0.743675 0.0845718 -6 -3 -1 
5818 6 0.614474 0.721373 0.115619 -2 3 0 
8621 6 0.842253 0.726211 0.117224 2 1 0 
6800 6 0.779008 0.752524 0.124652 -4 2 1 
6989 5 0.382439 0.79533 0.086288 0 2 -2 
8686 6 0.0356055 0.796826 0.106285 5 2 0 
6011 6 0.0280634 0.836446 0.129459 1 3 1 
5995 6 0.0210453 0.851043 0.0906843 1 1 -2 
8296 6 0.214259 0.890636 0.0990433 4 -6 1 
5029 6 0.472284 0.850911 0.115137 -2 0 3 
8007 5 0.189154 0.879444 0.0749493 -6 1 4 
8263 5 0.565225 0.845924 0.111837 4 -3 -2 
8402 6 0.802344 0.879046 0.107029 2 -2 -3 
7103 6 0.799789 0.889014 0.0670496 -5 0 -1 
5109 6 0.33346 0.92211 0.122757 -1 -3 -2 
5234 5 0.396104 0.920154 0.123914 1 -4 -1 
5824 6 0.613794 0.880127 0.106252 3 -4 -4 
5247 5 0.722254 0.902501 0.116648 2 0 0 
5082 5 0.978626 0.959965 0.129532 -4 3 3 
6531 6 0.160329 0.974004 0.0890398 1 -1 0 
8576 6 0.29973 0.967006 0.109362 2 2 5 
5752 6 0.543976 0.953414 0.103375 -1 -1 1 
8135 6 0.694624 0.989665 0.129465 1 0 0 
5942 5 0.945849 0.97043 0.127585 -7 4 2 
8308 6 0.336449 0.0144653 0.149399 2 0 6 
7936 6 0.720001 0.0235557 0.0784369 -5 4 1 
8114 5 0.960551 0.961097 0.160231 -3 -2 2 
6688 6 0.893635 0.03073 0.132755 -4 -3 -2 
7808 5 0.798868 0.0590816 0.139444 -4 -1 3 
8073 6 0.290577 0.0927145 0.130497 -1 -2 4 
7124 6 0.0296118 0.126749 0.141188 0 -4 -3 
5399 5 0.0429884 0.136368 0.121425 -5 -4 -3 
6575 6 0.891625 0.104478 0.0934162 -1 3 -4 
7742 5 0.116521 0.183012 0.114389 0 -4 5 
7724 5 0.442082 0.174261 0.13619 -1 0 -4 
6696 5 0.924019 0.126946 0.111148 -5 0 2 
8191 6 0.713571 0.208326 0.151942 -6 -5 0 
6904 6 0.157045 0.211082 0.110676 0 -1 5 
5222 5 0.395243 0.186512 0.0863611 3 -1 -2 
5316 6 0.573549 0.250648 0.100907 -1 1 -2 
6698 6 0.784393 0.203029 0.12958 4 2 -4 
5713 5 0.115505 0.264383 0.111883 -1 0 3 
7308 5 0.144047 0.267669 0.147069 3 5 -3 
7491 6 0.770068 0.225162 0.0934278 1 2 -2 
7326 6 0.308796 0.301399 0.111966 0 3 0 
6558 5 0.0666462 0.301984 0.16281 0 -3 0 
8017 5 0.779371 0.279606 0.107651 0 4 -1 
6471 6 0.42062 0.326482 0.139697 2 -2 1 
8747 5 0.775814 0.343608 0.14398 2 -2 -2 
8322 5 0.892393 0.330368 0.14006 -2 -1 1 
5345 5 0.20711 0.318052 0.133409 3 4 2 
8446 6 0.787449 0.378418 0.0994584 -3 -1 6 
6570 6 0.594237 0.365426 0.109213 6 -3 0 
6206 6 0.463576 0.412394 0.117626 -3 2 3 
6278 5 0.452994 0.398825 0.125374 -1 2 1 
8043 5 0.451198 0.346316 0.13617 -2 -1 -1 
8540 6 0.746926 0.373604 0.121686 -5 2 3 
7398 5 0.177605 0.454216 0.0990237 2 0 -3 
8896 5 0.335215 0.391593 0.161357 -1 1 -2 
6870 6 0.720692 0.47112 0.121482 0 -1 3 
6157 6 0.15353 0.484074 0.138488 9 -2 6 
5470 6 0.238018 0.492233 0.131405 -1 -1 4 
7055 5 0.270268 0.46384 0.157505 3 2 0 
8252 6 0.609517 0.502609 0.113899 2 -1 2 
8926 5 0.702502 0.447095 0.144087 0 1 1 
6503 6 0.756787 0.504185 0.130588 1 -4 -2 
8231 5 0.810528 0.49722 0.107463 -6 1 3 
6749 6 0.824485 0.505656 0.091454 2 -3 -1 
8481 5 0.940447 0.477793 0.0960631 2 4 1 
8627 6 0.0800645 0.560989 0.0948381 0 -3 -3 
8250 5 0.0761337 0.525684 0.162015 0 -4 2 
6893 6 0.310209 0.543501 0.179588 2 -1 -1 
7318 5 0.493258 0.564105 0.102527 -3 -2 -1 
7080 6 0.173547 0.559253 0.1359 0 -5 -1 
7347 5 0.244744 0.535543 0.13613 1 5 -3 
8372 6 0.960932 0.564954 0.135813 4 -2 1 
6925 6 0.433488 0.602403 0.1507 1 -2 4 
5704 5 0.0222036 0.679636 0.119786 3 0 -2 
7334 5 0.231433 0.652508 0.111632 0 -2 3 
8194 6 0.303138 0.632425 0.0992227 -1 1 -4 
6577 5 0.498441 0.657662 0.0882354 0 0 1 
6404 5 0.00440339 0.691607 0.0911504 -1 -3 -3 
8196 5 0.315629 0.657672 0.179824 -2 2 -1 
5870 5 0.308676 0.711963 0.126224 -2 7 -2 
7689 6 0.20753 0.71149 0.148334 2 -3 2 
7198 5 0.708737 0.694418 0.140107 2 -1 -2 
5592 5 0.622678 0.700089 0.132347 -5 -2 1 
5957 5 0.72143 0.729353 0.156969 -1 -3 0 
6718 5 0.942934 0.755804 0.105203 5 1 7 
5002 5 0.435173 0.740431 0.118246 -1 5 0 
7809 6 0.449112 0.802017 0.120026 3 3 -1 
6543 5 0.889239 0.740512 0.130611 -4 -2 3 
5068 6 0.436449 0.806929 0.107069 -3 0 -1 
6094 5 0.711659 0.769674 0.129452 -1 1 -5 
5257 6 0.731003 0.783944 0.143775 0 4 1 
7574 6 0.868445 0.749405 0.158413 0 -1 -1 
8729 6 0.449815 0.784088 0.125712 1 4 -3 
8951 6 0.46237 0.830311 0.112059 -1 -3 1 
5812 6 0.247331 0.829811 0.128327 -3 1 -1 
7975 5 0.633944 0.86622 0.104843 -2 1 1 
8422 6 0.711086 0.827416 0.120929 5 2 -3 
8475 6 0.0849991 0.892786 0.098059 1 -1 4 
7459 5 0.438013 0.830518 0.0927572 -2 -2 4 
7838 6 0.942227 0.826973 0.184964 -2 -3 4 
6712 5 0.253438 0.909519 0.124462 0 3 5 
7389 6 0.335324 0.875198 0.0807743 -3 3 -3 
5263 6 0.422434 0.87999 0.157451 -3 2 5 
6803 5 0.924152 0.881452 0.126871 4 -4 -2 
7946 6 0.243989 0.885077 0.121826 0 1 0 
8056 5 0.270631 0.919521 0.129037 1 -5 1 
6634 5 0.819154 0.931773 0.141372 -6 -2 -1 
8265 5 0.422407 0.950145 0.118142 -1 -2 -5 
7624 6 0.472441 0.940224 0.125709 -1 -2 2 
5506 6 0.362981 0.929684 0.0978462 3 3 0 
7784 5 0.845897 0.0258912 0.143814 -4 4 2 
6726 5 0.243926 0.0501943 0.139038 -2 -1 -3 
8049 5 0.384164 0.10147 0.160517 1 -3 -2 
6345 5 0.230422 0.0538502 0.148806 1 3 3 
5750 5 0.544899 0.0956905 0.144702 -6 0 0 
8414 5 0.584018 0.127946 0.108639 4 -1 -2 
6801 5 0.977638 0.116803 0.191918 -5 4 1 
8374 5 0.274345 0.212739 0.14307 0 3 3 
5604 5 0.734316 0.167199 0.137263 0 0 3 
7632 6 0.769512 0.169675 0.101522 -3 3 2 
5813 6 0.370818 0.209037 0.142702 -2 -2 0 
5055 5 0.36581 0.188743 0.174067 -4 5 4 
5458 6 0.534327 0.19834 0.147978 5 2 0 
7757 6 0.0489191 0.220333 0.145407 -1 0 2 
5215 6 0.0862314 0.214755 0.136624 -3 -3 -1 
6246 5 0.518102 0.212612 0.153502 2 -5 -5 
8933 5 0.804729 0.244544 0.152325 2 -4 0 
6813 6 0.869095 0.227676 0.163836 6 1 3 
6098 5 0.932879 0.218985 0.173175 -7 1 4 
6886 5 0.0519396 0.212896 0.137245 0 4 2 
7475 6 0.289464 0.268015 0.160147 -2 -3 -2 
8664 6 0.98186 0.248401 0.159249 -6 0 -2 
7962 5 0.0474544 0.294895 0.162108 0 -2 2 
5324 5 0.18491 0.289869 0.146967 -3 -1 1 
7476 6 0.585924 0.25845 0.170903 -1 -1 0 
6721 6 0.876516 0.349257 0.179321 6 -3 2 
8285 6 0.418342 0.317156 0.164072 3 1 1 
7273 6 0.522168 0.359396 0.144885 3 -4 1 
8394 6 0.843525 0.337549 0.0945285 -1 1 0 
5312 6 0.45255 0.40644 0.120461 4 -4 0 
6600 6 0.627589 0.371673 0.15953 5 3 -2 
5779 6 0.927039 0.35401 0.12183 1 2 6 
5948 5 0.29544 0.359112 0.162846 -2 -2 3 
5517 6 0.604245 0.340199 0.148661 -3 0 1 
5717 5 0.00469316 0.410696 0.120932 -2 0 2 
8927 6 0.0403077 0.444225 0.151025 -4 2 -5 
7528 6 0.761801 0.448148 0.106434 -2 -1 2 
8490 5 0.940013 0.46833 0.104926 -2 2 -1 
5243 6 0.480646 0.506482 0.155526 1 1 2 
6352 5 0.690848 0.551605 0.1507 -6 -2 -5 
5728 6 0.852325 0.515403 0.180951 -9 2 -2 
8900 5 0.105386 0.607373 0.144087 3 3 1 
7313 6 0.564516 0.557861 0.139104 4 0 0 
8835 6 0.554895 0.619686 0.115547 2 -1 -4 
7985 5 0.722412 0.576606 0.128066 -7 -1 -2 
6901 5 0.865521 0.563891 0.136684 1 0 -2 
6782 6 0.150512 0.633716 0.137779 3 7 -1 
8608 6 0.0165369 0.685553 0.128632 7 -3 -2 
8530 6 0.79251 0.628456 0.141884 0 4 -2 
7561 5 0.396411 0.678939 0.160796 -2 -2 2 
8187 5 0.795777 0.720292 0.134679 -1 3 5 
8425 6 0.0129359 0.71145 0.128576 0 -1 8 
8093 5 0.472492 0.675629 0.160066 1 1 3 
5407 6 0.574639 0.723164 0.138911 0 -1 -1 
7434 5 0.146237 0.755134 0.157133 1 -4 -5 
7871 5 0.192856 0.738961 0.173889 -6 0 1 
7290 5 0.619044 0.74921 0.14514 -1 0 -1 
7898 6 0.393497 0.78692 0.167112 4 0 -1 
5514 5 0.18412 0.787027 0.137543 -1 -4 2 
8808 6 0.498678 0.766462 0.149369 0 -7 2 
6638 6 0.891512 0.793563 0.152939 -1 -8 5 
8492 5 0.345109 0.810202 0.150222 2 0 -2 
6580 5 0.463608 0.850164 0.147039 -8 2 -4 
8613 6 0.685474 0.799852 0.136621 0 3 -10 
8588 5 0.797322 0.839474 0.130182 0 -2 2 
8800 5 0.798361 0.882453 0.132005 1 5 1 
7426 5 0.913387 0.857905 0.142532 -4 0 0 
5419 5 0.663636 0.852412 0.133847 -1 -4 0 
6232 5 0.855519 0.82821 0.156147 -2 -1 0 
7490 6 0.545423 0.87238 0.112449 1 -1 2 
7956 6 0.0873162 0.904609 0.142636 3 -2 6 
5862 6 0.193314 0.891214 0.17579 2 -3 0 
5273 6 0.619106 0.883542 0.132514 4 1 1 
8750 6 0.870698 0.880155 0.189938 0 1 3 
7352 6 0.607394 0.909597 0.119391 -1 1 3 
6591 6 0.954188 0.913286 0.104497 -5 1 -2 
8722 6 0.95175 0.926287 0.157499 -2 0 2 
8338 6 0.910188 0.954639 0.150466 -1 -3 1 
8101 5 0.553318 0.950569 0.149776 -1 -3 -5 
6522 5 0.738661 0.974496 0.15347 -5 -5 2 
6549 6 0.94344 0.967665 0.141168 2 0 3 
8286 6 0.0600562 0.985598 0.155191 2 -2 -1 
6325 6 0.179283 0.987194 0.156413 5 5 -4 
6294 6 0.192143 0.993469 0.152277 -2 6 2 
5564 6 0.19013 0.0195255 0.185161 0 0 3 
5129 6 0.229402 0.030958 0.183978 -1 4 -5 
7284 5 0.635227 0.983105 0.147726 1 -3 2 
7613 5 0.271451 0.0872019 0.152015 2 -2 2 
8035 5 0.0106359 0.158461 0.177639 3 0 1 
8416 5 0.348403 0.11611 0.160813 0 3 -1 
6536 6 0.274092 0.139393 0.17953 3 5 2 
8150 6 0.485711 0.16255 0.1603 2 0 0 
7912 6 0.0449593 0.195005 0.185372 7 0 2 
5275 6 0.0105015 0.209604 0.136374 1 2 -2 
5013 5 0.242472 0.2047 0.165496 1 0 9 
6310 6 0.221437 0.219415 0.167706 -3 1 2 
8564 6 0.396381 0.237047 0.199617 -7 -6 1 
8872 5 0.544268 0.216839 0.148607 1 -1 2 
7766 6 0.984194 0.203444 0.186884 -1 -5 -2 
8837 5 0.637221 0.192767 0.177209 -4 1 -1 
5589 6 0.853549 0.204721 0.18268 -5 1 2 
7222 6 0.0929149 0.252668 0.155981 1 -1 2 
7906 6 0.852431 0.263206 0.145842 -1 0 2 
6563 5 0.0124818 0.234896 0.19182 3 -3 -8 
8406 6 0.687931 0.258999 0.15189 -5 2 3 
5545 6 0.927827 0.333171 0.194071 0 -3 -2 
6774 6 0.241583 0.337246 0.204532 2 3 1 
7018 5 0.664085 0.310847 0.173543 -1 -2 0 
6446 6 0.516549 0.36365 0.201816 7 3 5 
7180 6 0.0344425 0.383682 0.184092 4 -5 1 
5347 6 0.251057 0.341292 0.179356 0 1 -5 
6578 5 0.87792 0.422808 0.181471 -3 -1 -1 
7065 5 0.106237 0.359076 0.134503 1 0 2 
8039 5 0.1053 0.366481 0.149917 -1 -2 1 
8253 6 0.746217 0.399054 0.194984 3 2 2 
6190 6 0.627657 0.417984 0.188292 0 -4 4 
7192 6 0.514834 0.407463 0.155883 -2 -5 -5 
7405 5 0.174859 0.499749 0.16696 -1 -2 0 
6056 6 0.390379 0.491582 0.166675 -2 0 2 
8050 5 0.743104 0.526937 0.150237 -3 1 0 
6088 5 0.110153 0.519989 0.165252 3 3 -3 
6783 5 0.170515 0.549377 0.157123 -2 0 -4 
7158 6 0.369483 0.525486 0.180439 -6 1 1 
8487 5 0.503081 0.591157 0.168232 -3 -2 0 
7704 5 0.879908 0.541414 0.194676 1 0 1 
6391 5 0.0109975 0.63413 0.186329 1 0 -3 
6008 6 0.732536 0.612761 0.159911 2 -1 2 
5097 6 0.915226 0.670807 0.141442 1 -3 -4 
6606 5 0.364084 0.649509 0.18253 2 0 0 
8480 6 0.809108 0.67253 0.164263 -4 0 3 
8142 5 0.807427 0.649026 0.15256 4 -8 1 
7499 5 0.852872 0.668923 0.142488 -4 -2 -4 
6626 5 0.866571 0.69161 0.174225 -1 3 2 
6315 5 0.670361 0.69554 0.161111 4 5 1 
7505 6 0.921865 0.681062 0.187812 0 -1 -6 
8018 5 0.266811 0.745003 0.188063 0 2 3 
5430 6 0.0106867 0.704868 0.163295 2 4 3 
6502 5 0.277056 0.780216 0.191994 0 1 0 
6331 6 0.656099 0.769318 0.13535 0 2 3 
8781 6 0.945658 0.750427 0.134041 -1 -1 1 
7925 6 0.639415 0.792223 0.170746 -1 0 2 
6240 6 0.80416 0.809203 0.166727 1 3 0 
8874 5 0.844213 0.801545 0.198091 -3 0 -2 
7081 5 0.727122 0.829777 0.177977 -2 0 3 
7849 5 0.0758495 0.827867 0.172682 2 2 0 
6960 6 0.262023 0.86054 0.171155 -1 -2 1 
7782 5 0.854514 0.827712 0.173711 2 1 -2 
5639 6 0.153812 0.82937 0.173274 1 -2 3 
7154 5 0.227641 0.875207 0.183084 4 -7 -1 
6582 6 0.292716 0.878313 0.147556 2 -1 9 
5988 5 0.0904959 0.880111 0.167528 -3 1 -1 
7041 6 0.92076 0.917456 0.145443 -2 -3 0 
7730 6 0.395877 0.994721 0.110241 2 -3 -3 
8436 6 0.778774 0.967098 0.164081 1 -3 -6 
8267 6 0.420716 0.962561 0.1728 4 -2 2 
5613 6 0.737072 0.971862 0.194155 0 1 3 
7060 5 0.373827 0.0121621 0.178685 1 4 -2 
8810 6 0.58696 0.00731665 0.179544 1 1 3 
5958 5 0.718597 0.0378634 0.197875 -2 0 -3 
5931 5 0.195617 0.0399707 0.205689 -2 3 -2 
6825 6 0.288214 0.0559979 0.14939 3 -1 1 
7429 6 0.348651 0.0844615 0.149543 -3 1 -2 
6610 5 0.797453 0.0226586 0.214288 3 -3 4 
6304 5 0.74908 0.0620514 0.222626 -5 -1 -3 
8047 6 0.00403548 0.0686898 0.178999 0 -1 0 
5340 6 0.440247 0.0725214 0.202207 -4 6 -1 
6135 6 0.45414 0.0736734 0.149602 3 3 -2 
8412 5 0.494896 0.0724606 0.152511 -6 2 0 
6478 5 0.0998515 0.0923129 0.211248 0 -5 9 
5994 6 0.601382 0.0900486 0.223042 -3 9 -2 
7034 5 0.615279 0.129381 0.205534 -4 3 0 
5903 5 0.528478 0.141736 0.200211 -3 -2 -4 
8258 6 0.162905 0.204498 0.20493 -1 6 -4 
7244 5 0.883879 0.166945 0.185149 2 1 -1 
8783 5 0.978907 0.184299 0.235917 0 -1 1 
7604 5 0.594171 0.108404 0.186509 0 0 -1 
7341 6 0.227341 0.254818 0.171462 4 0 -3 
7599 5 0.284878 0.273992 0.191607 3 5 4 
7369 6 0.614096 0.201323 0.201265 -2 3 -3 
5906 6 0.256108 0.305308 0.174773 3 3 1 
5094 6 0.703484 0.256374 0.208755 -2 -2 -2 
8711 6 0.912951 0.278757 0.194071 0 1 3 
8656 6 0.221333 0.28433 0.170505 2 1 3 