ITEM: TIMESTEP
20000000
ITEM: NUMBER OF ATOMS
9000
ITEM: BOX BOUNDS pp pp pp
-75 75
-75 75
-75 75
ITEM: ATOMS id type xs ys zs ix iy iz 
6242 5 0.295385 0.0636799 0.992697 -2 3 -2 
8963 6 0.572727 0.0398116 0.983683 0 1 -1 
5286 6 0.666479 0.0318521 0.0208647 -4 1 -6 
7094 6 0.572011 0.0582962 0.0136639 2 -1 -1 
5947 6 0.586112 0.0900405 0.9772 0 3 -3 
8304 5 0.286102 0.128383 0.996336 3 -3 -1 
7880 5 0.0974831 0.1658 0.00308983 3 3 2 
7645 5 0.155746 0.152014 0.0297333 4 1 5 
6451 6 0.402727 0.13203 0.0496087 -4 2 -2 
5873 6 0.0860874 0.160256 0.00500052 2 1 -5 
8028 6 0.100725 0.188179 0.0168082 -3 2 -3 
7882 5 0.750101 0.166646 0.998788 2 3 7 
6374 5 0.970499 0.203556 0.959418 1 4 -2 
5349 5 0.0509071 0.223744 0.0260319 -4 -1 -2 
8567 5 0.244045 0.202106 0.0150577 0 -2 0 
8919 6 0.199881 0.252371 0.0307519 0 4 1 
6635 6 0.397939 0.294387 0.0287495 6 -3 -6 
6860 6 0.513087 0.330926 0.997809 1 6 3 
6105 6 0.43573 0.309162 0.0136356 -2 -1 -2 
8581 6 0.894362 0.423131 0.988381 -1 1 4 
6001 6 0.977103 0.507289 0.0241981 -7 -3 -1 
5123 5 0.575914 0.481097 0.00718886 0 0 6 
7093 5 0.00890907 0.511565 0.00835031 4 2 -2 
6135 5 0.362468 0.534549 0.0048876 3 1 -4 
6786 5 0.436436 0.485716 0.0238997 0 -2 1 
6952 6 0.187965 0.552591 0.0328279 -3 6 -1 
5601 5 0.453742 0.55791 0.00875986 -2 0 -5 
7365 5 0.569139 0.595482 0.018729 -1 -2 3 
6344 6 0.513349 0.567797 0.0278356 1 5 -3 
8954 5 0.64871 0.665952 0.0177353 -4 0 2 
7313 6 0.700795 0.690057 0.0182016 -3 3 4 
6807 6 0.0123316 0.692011 0.0604892 1 -3 0 
7596 5 0.213656 0.706658 0.989779 2 -1 1 
6599 6 0.620527 0.687505 0.0127326 2 -2 2 
8248 6 0.77529 0.683357 0.00630306 0 -5 -3 
6214 5 0.767235 0.739227 0.0123859 -2 -1 0 
7352 5 0.827085 0.701011 0.988646 1 1 1 
7663 6 0.30389 0.737147 0.0248163 -3 6 -1 
6379 5 0.28222 0.777034 0.0272618 0 0 1 
7811 6 0.524435 0.795309 0.0313671 1 0 1 
5081 5 0.729463 0.783139 0.990348 -2 2 1 
6601 6 0.0304166 0.80218 0.0275142 0 -3 4 
7248 5 0.315713 0.786617 0.0319522 -3 -4 1 
7081 6 0.953606 0.828031 0.0347484 -3 1 -5 
6107 6 0.0235289 0.818454 0.0110486 -4 2 4 
7473 6 0.182485 0.836661 0.986431 2 2 -3 
8512 6 0.442634 0.821864 0.994298 2 -1 1 
7448 6 0.891024 0.832125 0.0387965 0 -3 1 
7909 6 0.275964 0.903159 0.0458487 -3 0 1 
7716 6 0.152916 0.904078 0.00842144 -1 -1 -1 
7976 5 0.23328 0.876786 0.995866 2 -2 3 
6456 5 0.291457 0.892416 1.00112 -3 1 0 
5494 5 0.550799 0.877981 0.0144582 1 1 1 
6818 5 0.0310392 0.907304 0.031198 1 0 2 
8858 6 0.892453 0.88738 0.97633 1 2 -2 
6491 5 0.239413 0.918293 0.0221099 -1 -1 -3 
7206 5 0.569249 0.914622 0.0026605 4 4 4 
5256 5 0.779768 0.915127 0.0542979 7 -3 -3 
5770 6 0.978944 0.928956 0.996348 -3 -4 3 
5027 5 0.0942905 0.95952 0.993361 -2 -5 2 
5078 6 0.0454046 0.993782 0.991428 4 -4 2 
6227 6 0.0778015 0.0254449 0.0160606 -1 5 -1 
6616 6 0.0596556 0.0216046 0.0329182 -8 -3 -2 
5194 6 0.0669404 0.0589452 0.0324983 0 6 2 
5394 5 0.180153 0.0814186 0.0141633 6 -3 4 
5023 6 0.266579 0.110007 0.0312366 -5 -1 0 
6598 5 0.751194 0.148071 0.0179263 1 -1 -2 
8438 5 0.783715 0.117258 0.0800624 -5 2 4 
6509 6 0.382071 0.177566 0.0112595 1 0 -2 
8267 5 0.965592 0.137313 0.0528375 -1 -4 2 
6561 6 0.47941 0.157827 0.0179186 0 -1 1 
8696 6 0.735645 0.173425 0.0376902 -5 2 0 
6316 6 0.85119 0.181267 0.995539 -1 -4 -3 
5222 6 0.390334 0.204958 0.0661949 -2 3 5 
8981 5 0.548599 0.20356 0.0508958 -3 -1 1 
8264 6 0.922203 0.284556 0.995814 -6 1 -2 
6781 6 0.0608299 0.308767 0.0205494 0 -1 1 
7213 6 0.452182 0.281752 0.0418845 3 4 0 
7212 5 0.348407 0.289025 0.0452037 -1 0 -1 
8141 5 0.963749 0.31688 0.00866204 0 2 -2 
8091 5 0.24343 0.303384 0.0613636 3 -2 -3 
8551 5 0.463542 0.318566 0.00212807 2 5 -1 
6487 6 0.0970961 0.38683 0.0106082 -3 1 -3 
5306 5 0.447364 0.359613 0.0455453 -4 0 -3 
7903 5 0.942257 0.425888 0.0421898 0 -2 -2 
8391 6 0.0118563 0.47351 0.0540338 1 -1 0 
7117 6 0.106444 0.428215 0.0310084 -1 0 2 
5003 5 0.806691 0.42852 0.0362779 -2 2 -4 
7133 6 0.98519 0.362711 0.0383958 -2 -1 3 
8196 6 0.220055 0.451402 0.00836598 0 -4 1 
7132 6 0.615698 0.47964 0.0378006 0 0 0 
6738 5 0.845141 0.42457 0.0645273 -2 4 1 
5119 5 0.26798 0.456586 0.01766 6 -1 0 
5152 6 0.582825 0.448497 0.0118833 2 0 3 
6275 5 0.201783 0.489271 0.0472495 0 -4 -1 
5114 6 0.616071 0.489465 0.0360501 -1 -2 2 
7830 5 0.642817 0.511021 0.0455204 -3 7 2 
6760 5 0.825327 0.540667 0.0679353 -1 1 -3 
7056 6 0.95066 0.567184 0.030375 -2 -1 3 
6853 6 0.902194 0.53096 0.0195761 3 -4 4 
6166 6 0.221039 0.565141 0.0678246 -1 3 5 
7316 6 0.526206 0.556307 0.0214442 4 7 -4 
6470 5 0.0520184 0.577641 0.0156283 -1 2 -4 
6804 5 0.340005 0.545737 0.0429087 -3 -2 0 
6096 6 0.241535 0.58292 0.056908 0 5 0 
6874 6 0.338932 0.585318 0.0410821 -1 0 0 
5992 5 0.929154 0.609958 0.0547788 -3 -5 -1 
6268 6 0.494237 0.602618 0.969051 -2 -6 -1 
7554 5 0.792573 0.63462 0.0298523 -4 1 4 
8632 5 0.471546 0.652157 0.0446899 -5 0 4 
6899 6 0.562583 0.629867 0.0744902 -2 -3 4 
6492 5 0.821045 0.634442 0.0548521 1 0 4 
8877 5 0.53963 0.665002 0.0458144 0 -3 3 
5825 6 0.651375 0.643446 0.044261 -1 -2 -1 
5762 5 0.801603 0.70164 0.997235 -2 -1 1 
7069 5 0.995247 0.717133 0.0570709 -5 -3 1 
8156 6 0.221235 0.733555 0.00759905 2 -2 3 
6875 5 0.422509 0.731441 0.026861 -3 2 -3 
5236 6 0.353238 0.775079 0.02761 1 -4 -2 
6240 6 0.657533 0.750188 0.990858 2 6 4 
8036 6 0.455172 0.769463 0.0318217 -5 -1 3 
7398 5 0.953605 0.772564 0.0318589 5 -4 4 
6334 6 0.591729 0.838435 0.0505928 -1 -3 -1 
8611 5 0.662992 0.813647 0.0366004 -1 -5 -3 
7312 5 0.0830866 0.857167 0.00320708 1 -3 1 
5613 6 0.942368 0.858998 0.0126316 -4 -2 -1 
5485 5 0.100876 0.923622 0.0149424 3 -3 3 
6581 5 0.199023 0.913546 0.0421388 -3 -2 -3 
7219 5 0.211591 0.908077 0.0211581 -1 -1 -1 
5264 6 0.688403 0.916138 0.0144221 3 0 -4 
7497 6 0.00301947 0.93326 0.0252921 0 4 -1 
8817 6 0.413829 0.950011 0.0136838 -2 1 -1 
8688 6 0.519146 0.92928 0.0659133 1 -2 -5 
6898 6 0.846698 0.951518 0.0486335 5 0 -2 
5660 5 0.834136 0.94941 1.0037 1 -2 -4 
6397 5 0.19007 0.958334 0.014924 -4 0 1 
6905 6 0.550541 0.967822 -0.00111369 5 2 1 
5987 6 0.253422 0.998168 0.0348696 3 -4 -1 
6064 6 0.432025 0.992728 0.0689625 3 1 0 
6425 5 0.264938 0.0391154 0.0433336 -1 3 1 
6726 6 0.320363 0.0569295 0.0927066 4 -2 -1 
8812 6 0.140782 0.0692203 0.044762 -1 -1 0 
6115 6 0.316238 0.0670079 0.084146 5 1 5 
6256 5 0.391898 0.0575698 0.0869607 3 -1 1 
7039 6 0.357654 0.0947591 0.0475425 3 -1 0 
5135 5 0.427754 0.118415 0.109765 -5 2 -2 
5368 5 0.469279 0.058709 0.076028 0 2 -1 
6361 6 0.516405 0.112494 0.0446354 -1 3 6 
7146 5 0.595257 0.124485 0.0525773 -4 1 5 
6608 5 0.698119 0.131674 0.0622657 0 -3 2 
7066 5 0.498313 0.191873 0.0447598 -5 -1 2 
5603 6 0.675143 0.180229 0.0452101 2 1 1 
8891 6 0.604329 0.23501 0.0522981 -4 2 -2 
8407 6 0.710082 0.266603 0.0773688 0 4 0 
7216 6 0.177831 0.296189 0.0471551 -2 1 3 
8261 5 0.445415 0.298408 0.0569349 -2 -2 2 
7016 6 0.0368301 0.308002 0.0375908 0 3 -6 
5843 5 0.559202 0.2942 0.0607293 0 -3 4 
5737 5 0.0431263 0.303351 0.00894935 10 -2 1 
6088 6 0.191206 0.335329 0.0682005 0 -5 6 
7671 5 0.263102 0.321795 0.064826 0 -5 -2 
7708 5 0.577885 0.305499 0.0578646 2 3 -2 
5088 6 0.795085 0.30598 0.0457374 0 5 1 
5753 6 0.90595 0.334881 0.0766734 -5 1 -4 
8820 6 0.896202 0.314846 0.0440235 -7 2 -3 
5779 5 0.560016 0.365324 0.0648377 4 0 2 
6131 5 0.605377 0.385238 0.0416584 -2 0 1 
5502 5 0.282662 0.398935 0.0506976 2 -1 1 
5549 5 0.360732 0.389393 0.019382 2 -1 -6 
8037 5 0.488902 0.41982 0.0384633 -2 -6 5 
6212 6 0.686907 0.348721 0.0611445 3 -7 -4 
6340 5 0.788473 0.385739 0.0921024 0 0 2 
5430 5 0.820898 0.407653 0.025517 1 -6 -1 
8541 5 0.262616 0.41514 0.10692 3 0 3 
8803 5 0.819094 0.416518 0.0699275 -1 -2 -5 
6015 5 0.945184 0.433193 0.0116755 -2 6 1 
5929 5 0.575011 0.442709 0.0308139 2 3 3 
8055 5 0.67191 0.437192 0.0646559 -6 1 3 
7797 6 0.757752 0.481598 0.0333461 2 0 3 
8912 5 0.696826 0.488427 0.0863585 -2 4 4 
7849 5 0.297408 0.492417 0.0958046 2 -3 4 
6241 5 0.631959 0.478153 0.0370101 0 1 3 
6989 6 0.815891 0.493 0.0419952 -3 -6 0 
6236 5 0.119889 0.53427 0.0412671 0 -2 5 
7841 5 0.749063 0.515851 0.051644 2 -3 -4 
5916 5 0.924192 0.547374 0.132353 -3 2 4 
6280 6 0.988137 0.561119 0.0577256 3 -6 7 
5355 6 0.301608 0.548567 0.0279817 3 -1 2 
7491 5 0.333485 0.563962 0.052204 -2 2 -1 
7149 6 0.773209 0.554399 0.0770137 -3 -3 -3 
7367 6 0.255926 0.555845 0.0475209 3 3 5 
8097 6 0.281135 0.594111 0.0672176 5 -1 -2 
6332 6 0.388965 0.691925 0.0437715 4 0 4 
7405 6 0.815816 0.629239 0.0586236 4 -3 1 
6163 6 0.901716 0.633996 0.0801479 -2 -4 -1 
8260 6 0.114989 0.623999 0.0376614 3 -3 -3 
5472 5 0.160611 0.671528 0.0809117 1 2 1 
7962 5 0.810529 0.664872 0.0856737 -2 6 -2 
7502 5 0.478109 0.695682 0.0770124 3 2 6 
5259 6 0.873763 0.677433 0.980676 -1 6 -1 
6206 6 0.132245 0.701217 0.0481173 1 -4 0 
8633 6 0.152103 0.70867 0.0728792 -3 -1 1 
5279 6 0.024648 0.735529 0.0800562 3 1 -2 
7144 5 0.769593 0.716981 0.0430726 -4 -3 4 
8744 6 0.639449 0.732219 0.0441505 -1 -3 -1 
5589 5 0.140724 0.786158 0.0831706 -2 6 2 
8026 6 0.254504 0.768294 0.015405 1 -1 -4 
6737 6 0.399713 0.788997 0.0521364 3 0 -2 
8160 6 0.589371 0.802724 0.0359372 -2 2 1 
8010 6 0.991746 0.836058 0.0814785 -5 6 -3 
8887 6 0.661275 0.885643 0.037906 0 -2 0 
5692 5 0.96065 0.866576 0.0277953 -3 5 -2 
8678 6 0.56959 0.8938 0.0610625 1 -1 2 
6695 6 0.656059 0.895172 0.0674315 4 -2 -2 
5649 6 0.696144 0.924752 0.0638528 -4 4 -2 
6943 6 0.36272 0.942727 0.0437229 0 -2 1 
7749 6 0.488252 0.923543 0.0680791 2 3 -1 
5570 6 0.508391 0.964835 0.0442074 0 -2 1 
5103 5 0.223671 0.937669 0.0477512 -4 -4 -5 
7247 5 0.0459481 0.981532 0.0574605 1 -2 0 
7745 6 0.0581271 0.0256582 0.04885 1 -2 2 
7768 6 0.0375441 0.0472071 0.0898393 0 0 0 
7434 6 0.316649 0.054834 0.0751624 -5 2 -1 
7950 6 0.806088 0.0573282 0.0506872 -2 0 2 
8637 6 0.946247 0.0591005 0.0718698 -5 -1 -3 
7013 6 0.678454 0.105502 0.0168578 -2 5 2 
8528 6 0.124532 0.0886864 0.0612602 2 -1 0 
6799 5 0.207642 0.1319 0.0720244 -2 -1 2 
7629 6 0.202029 0.201423 0.071101 6 -1 1 
6766 5 0.708315 0.159684 0.0792487 0 5 1 
8871 5 0.779152 0.1699 0.116498 2 5 -1 
8229 6 0.944061 0.163436 0.0866232 -4 0 1 
6082 5 0.0922267 0.182382 0.0980864 -5 3 0 
5169 6 0.491829 0.229129 0.0707439 -1 1 -3 
5491 5 0.466056 0.262173 0.0619781 1 0 -1 
5248 6 0.630062 0.287027 0.0827731 -1 -1 -3 
7771 5 0.637415 0.227416 0.0913987 -1 0 0 
5416 6 0.614968 0.284332 0.0891994 -4 -3 -2 
7944 6 0.691339 0.260115 0.0803065 0 3 5 
5400 6 0.163329 0.2524 0.118943 5 -2 2 
5976 6 0.349424 0.273422 0.0856877 -4 -2 4 
8776 6 0.447577 0.281848 0.101681 1 -1 -1 
6351 5 0.0599933 0.293393 0.104796 3 1 1 
5817 6 0.667293 0.36508 0.0962918 -3 0 -4 
6815 6 0.892115 0.33277 0.10307 1 4 -3 
5820 6 0.641426 0.307809 0.0293666 0 4 0 
6640 5 0.771964 0.319296 0.0773681 -3 -5 -5 
6382 6 0.882244 0.285587 0.0835981 -6 4 3 
8787 6 0.826887 0.340031 0.0946303 -1 3 5 
5424 6 0.859049 0.392472 0.0660252 3 1 1 
7436 6 0.0594322 0.407468 0.0955407 -6 -3 4 
5880 5 0.0845599 0.383598 0.101579 -1 -3 0 
6903 6 0.860696 0.410775 0.056323 1 0 -1 
7412 5 0.341095 0.408822 0.0745937 1 4 3 
7623 5 0.966785 0.415651 0.0884345 -4 -4 2 
7420 5 0.0937741 0.494898 0.064369 1 -3 -3 
5512 5 0.281491 0.485228 0.0856705 0 3 1 
6862 5 0.457119 0.472525 0.0505089 0 -8 2 
8131 5 0.853575 0.500756 0.0901536 -3 0 -2 
5219 6 0.075848 0.49804 0.113204 -1 1 2 
5070 6 0.211102 0.511415 0.0645609 -3 -3 -2 
6393 5 0.782856 0.515146 0.110347 -3 -4 -2 
7026 5 0.00776966 0.538879 0.0679847 1 0 -1 
5699 5 0.0332498 0.502386 0.0544349 4 -2 -1 
7844 5 0.339187 0.539815 0.0641293 3 0 -7 
6578 5 0.434202 0.561296 0.0799635 1 0 1 
8607 5 0.489181 0.546868 0.114494 -2 0 0 
7737 5 0.101323 0.573418 0.0870245 2 -2 4 
7062 6 0.169629 0.572343 0.0805851 -1 -2 0 
8173 6 0.755055 0.600381 0.0840629 2 -1 1 
7322 5 0.346593 0.60846 0.0195613 2 -3 1 
7457 6 0.62958 0.598633 0.0953822 0 -1 -2 
8073 6 0.653015 0.57979 0.0933693 1 3 3 
7387 5 0.794148 0.594096 0.0558523 4 -2 5 
6253 6 0.731413 0.610712 0.0581888 -2 -3 -1 
6279 5 0.924245 0.560799 0.0772558 0 -5 1 
8288 5 0.131896 0.606326 0.0428494 1 -2 1 
6283 5 0.156305 0.628202 0.106884 4 -1 -2 
5624 6 0.488468 0.574526 0.0815711 4 0 4 
8818 5 0.503897 0.655524 0.0617742 2 -2 2 
5751 5 0.478472 0.6615 0.10734 1 3 5 
8142 6 0.676372 0.67329 0.0772528 3 1 1 
7556 6 0.00875026 0.64426 0.058732 6 -2 -1 
6150 5 0.588033 0.677773 0.0818369 -5 0 3 
6191 6 0.878281 0.683254 0.0783604 -1 4 1 
6933 5 0.66719 0.707809 0.0753105 0 1 -1 
6336 6 0.0755695 0.802926 0.0957136 -3 0 0 
7853 6 0.58763 0.756112 0.0485919 -3 0 -1 
7607 5 0.340107 0.724304 0.0677923 3 2 2 
6972 6 0.36231 0.770223 0.0928325 0 1 2 
7621 5 0.839276 0.802229 0.0590529 -3 -5 -2 
8736 6 0.0325648 0.82391 0.0969785 1 3 1 
7862 5 0.155886 0.789881 0.0645557 0 0 -7 
7688 6 0.258976 0.784713 0.0787714 0 1 -1 
8166 6 0.290156 0.793481 0.0989089 -1 0 -2 
6325 6 0.625768 0.781957 0.0650071 -1 -2 0 
7901 5 0.710828 0.83084 0.0667338 -1 -1 3 
7161 5 0.0125722 0.835805 0.0772283 1 -1 3 
5611 5 0.45662 0.848549 0.0629964 3 2 0 
6370 6 0.597907 0.831304 0.0806545 1 -4 -2 
6800 6 0.00458436 0.865839 0.0696601 -1 4 3 
5691 5 0.608525 0.918652 0.0645141 3 2 2 
5633 5 0.657774 0.926012 0.0937161 -5 0 2 
8669 6 0.179852 0.944915 0.0528929 4 -5 -3 
8894 5 0.873009 0.972153 0.0897205 -2 -3 -2 
6787 6 0.898662 0.000389994 0.0764532 -2 4 -5 
5681 5 0.120098 0.988132 0.108837 1 -1 2 
6180 6 0.619337 0.958938 0.0653318 1 -1 5 
6192 6 0.716433 0.961861 0.071521 -4 -5 3 
6703 5 0.00430168 0.0122092 0.0746348 3 0 -3 
5891 6 0.987754 0.982595 0.0743374 6 2 4 
5890 6 0.298015 0.0713559 0.112255 2 -2 -5 
7271 6 0.400684 0.0460999 0.0913053 3 2 -3 
8138 6 0.577436 0.0580762 0.0845101 -1 7 -1 
7653 6 0.602338 0.0362803 0.125805 0 -5 -1 
8412 6 0.134337 0.094868 0.102663 -3 1 5 
5144 6 0.389632 0.0677735 0.0775256 -3 3 4 
6159 5 0.64366 0.0853655 0.104348 -5 2 1 
5577 5 0.568578 0.0925676 0.110518 1 -3 -1 
5767 6 0.740057 0.127577 0.115462 3 -1 -1 
8946 6 0.869263 0.122321 0.0720108 -3 -5 -1 
7362 6 0.193011 0.146972 0.109598 5 -6 2 
8135 6 0.241465 0.0924201 0.143202 0 -3 2 
7769 5 0.530198 0.141227 0.0771826 -1 0 -4 
5665 6 0.554795 0.12488 0.116133 -2 4 0 
7139 5 0.838619 0.196038 0.101037 -1 0 0 
7186 5 0.192457 0.14235 0.121306 -4 -2 4 
5373 6 0.613292 0.190898 0.0803842 1 -1 -4 
8831 6 0.201622 0.188291 0.103728 5 0 -3 
6690 6 0.286174 0.180638 0.10103 -6 3 0 
8553 5 0.649913 0.188438 0.0898393 -7 0 3 
6636 6 0.910303 0.225492 0.155047 -3 -1 3 
5079 5 0.746929 0.204945 0.151393 -1 -2 -1 
8278 5 0.369832 0.23221 0.11117 -1 5 5 
6688 5 0.69455 0.262431 0.131505 3 -3 -7 
5069 5 0.735773 0.295641 0.0914401 -1 1 1 
8105 6 0.934449 0.315638 0.0928934 2 2 -1 
5104 6 0.979683 0.337683 0.100294 2 1 4 
8266 5 0.0559663 0.363848 0.156357 1 -2 -4 
8695 5 0.226787 0.345174 0.101197 4 -9 3 
8408 5 0.236905 0.397234 0.0844924 3 -4 6 
7200 5 0.54462 0.372081 0.120254 4 -3 -1 
7758 6 0.636591 0.458009 0.119931 -4 -2 -3 
8845 6 0.57632 0.490252 0.0665963 5 -4 1 
8890 5 0.000404968 0.514535 0.111388 -5 0 1 
8251 5 0.318235 0.554871 0.0990305 -2 -3 2 
8917 5 0.53555 0.524629 0.140502 1 2 -2 
6662 6 0.0564715 0.564666 0.0769744 3 1 0 
8973 6 0.799041 0.529699 0.127133 -7 2 4 
6141 6 0.031394 0.599328 0.102257 0 2 -3 
6777 5 0.0927014 0.663472 0.12035 1 0 -2 
5421 5 0.594481 0.580137 0.115561 1 -1 3 
6994 5 0.573032 0.613879 0.0951876 4 0 -2 
8583 6 0.352634 0.656493 0.0752872 2 1 0 
8701 5 0.510728 0.672292 0.0559026 -1 -2 1 
8987 6 0.582897 0.689655 0.109617 2 0 -2 
5852 6 0.0771919 0.682101 0.0885927 -2 1 -1 
8638 6 0.779508 0.707266 0.107317 -3 4 2 
7875 6 0.219515 0.732609 0.103228 2 2 0 
8302 6 0.428812 0.769345 0.108373 1 -2 0 
6670 5 0.65151 0.725239 0.0768484 2 -1 -2 
6584 5 0.134083 0.735436 0.145127 3 -1 4 
7547 5 0.226483 0.807689 0.114302 -4 -3 -1 
6267 6 0.76991 0.789847 0.103143 1 -2 0 
6195 6 0.488946 0.856027 0.0993104 -2 -4 -3 
6816 6 0.168794 0.890846 0.143231 2 -2 4 
5991 5 0.441624 0.875683 0.0906314 -2 0 2 
5861 5 0.8339 0.881824 0.11411 3 2 3 
7453 5 0.219606 0.858406 0.124781 0 0 1 
8867 5 0.36775 0.917714 0.103181 -1 0 -4 
7098 6 0.4194 0.960846 0.131151 -2 0 -1 
8809 6 0.456043 0.914846 0.0942228 0 1 1 
6658 5 0.321934 0.991753 0.142885 4 -5 -3 
7524 5 0.424829 0.972775 0.0846268 5 -2 0 
7905 6 0.826984 0.0056227 0.102549 -2 0 4 
6028 6 0.140651 0.0155732 0.11872 -1 5 -6 
6358 6 0.480094 0.0190648 0.131359 -4 1 -7 
7722 6 0.428291 0.0509693 0.141161 -5 2 4 
5012 5 1.00322 0.998224 0.121623 -6 -1 -2 
6538 6 0.663471 0.0311545 0.134039 2 1 2 
6129 6 0.81684 0.0749959 0.130016 -3 0 0 
5658 5 0.931441 0.0584372 0.120995 -3 0 1 
6447 5 0.19651 0.103198 0.0861337 -4 3 -1 
7403 5 0.493757 0.0835506 0.117598 -4 1 -1 
6127 5 0.267416 0.0827541 0.102373 2 3 4 
8752 5 0.255477 0.120023 0.0890237 0 1 2 
8549 6 0.478897 0.149853 0.133816 2 -1 2 
6026 5 0.680618 0.0973896 0.109639 -1 -2 1 
6890 6 0.143921 0.154662 0.13134 -2 0 2 
7715 6 0.461778 0.200206 0.117299 1 1 -4 
5383 6 0.934663 0.186403 0.16489 -6 -4 -1 
8579 6 0.513191 0.202598 0.108515 -2 8 0 
5459 6 0.541717 0.236588 0.158501 3 -3 3 
8218 6 0.103665 0.22758 0.106795 -4 -3 4 
7306 5 0.143125 0.214465 0.102911 -4 0 -6 
5582 5 0.495716 0.226989 0.0909296 2 4 -6 
6719 5 0.753496 0.277653 0.130068 -2 -1 0 
7646 6 0.0522973 0.300695 0.13764 0 1 1 
7781 5 0.661502 0.316993 0.146178 3 0 0 
6797 5 0.720555 0.283569 0.12573 0 2 -1 
6426 6 0.510447 0.307968 0.153605 -2 -4 1 
7335 5 0.756924 0.275792 0.14056 -2 -1 3 
5307 5 0.326484 0.335307 0.123277 -1 1 2 
7265 6 0.409433 0.347858 0.134371 -1 -2 3 
5124 5 0.0314679 0.349054 0.121803 0 1 2 
7480 6 0.334399 0.373359 0.130917 3 -4 0 
7294 5 0.366687 0.38846 0.145813 -2 0 2 
6410 5 0.00617596 0.382835 0.107717 2 2 -4 
5295 5 0.116182 0.412724 0.153633 -3 2 -2 
8922 6 0.219436 0.442549 0.135858 2 -2 -4 
6434 6 0.164831 0.479101 0.125007 2 -2 2 
7408 6 0.536746 0.417494 0.146356 4 -5 2 
5484 5 0.621133 0.451947 0.107118 2 -2 3 
5376 6 0.679727 0.413833 0.136017 -2 -2 0 
6722 6 0.288374 0.45652 0.119952 5 3 1 
5879 6 0.0236599 0.489736 0.120209 -2 -2 -1 
5164 5 0.00955468 0.507311 0.0931882 3 -2 0 
5431 6 0.522707 0.521441 0.137266 -6 0 7 
8143 5 0.695342 0.529725 0.120201 1 2 -4 
6740 5 0.744257 0.565621 0.122947 -5 -2 4 
7967 6 0.905961 0.506472 0.100095 -2 1 -4 
7995 6 0.0753004 0.562592 0.172189 4 -1 4 
5303 5 0.486783 0.527575 0.138547 1 -1 -2 
7837 6 0.401691 0.584739 0.0981138 4 -4 4 
6589 6 0.823446 0.685968 0.104125 3 -2 2 
8187 6 0.22497 0.697673 0.129465 -3 0 1 
5300 5 0.195358 0.687625 0.130337 -1 3 -4 
7037 5 0.512705 0.705515 0.127152 -1 2 6 
7912 5 0.376119 0.709029 0.145501 7 2 1 
7440 6 0.545687 0.722062 0.139423 -1 -2 2 
8310 5 0.780099 0.739173 0.105444 2 0 5 
8851 5 0.493032 0.786957 0.145621 0 4 2 
5569 5 0.767573 0.784354 0.116452 -1 5 -4 
8059 6 0.816738 0.809053 0.136485 1 0 3 
8394 6 0.892898 0.842172 0.121602 2 0 1 
7410 6 0.125732 0.887062 0.145652 -2 0 5 
8875 5 0.647393 0.857422 0.150916 -3 2 3 
5975 6 0.945876 0.865601 0.139156 2 -3 0 
6284 6 0.19897 0.907449 0.0836623 5 -1 -1 
7104 6 0.667555 0.908118 0.14364 1 1 5 
6404 5 0.27222 0.926212 0.121136 -2 -2 -3 
5790 6 0.756908 0.979628 0.109135 -2 -1 -6 
7527 5 0.925199 0.944383 0.0997286 0 0 5 
6123 6 0.192981 0.953421 0.107457 3 -6 0 
7489 6 0.274317 0.949026 0.0927609 1 0 0 
6620 5 0.484277 0.97928 0.177772 -4 2 0 
8942 6 0.815438 0.999272 0.14412 -3 3 4 
6359 5 0.430822 0.0178716 0.0869691 -1 -3 -1 
6751 5 0.913405 0.0277192 0.124385 1 0 -1 
6228 6 0.14849 0.0815361 0.14464 0 -3 0 
7171 6 0.15228 0.0849673 0.125153 -1 -1 3 
8905 5 0.269871 0.145222 0.163748 3 2 1 
6900 6 0.967349 0.111826 0.116803 1 -3 -1 
8297 5 0.549389 0.127549 0.141196 -5 3 2 
5772 6 0.694232 0.132689 0.145337 -8 6 0 
7166 6 0.198685 0.129586 0.132615 -2 2 1 
7549 6 0.727249 0.182903 0.178283 -1 1 -1 
8192 6 0.0688868 0.204633 0.181206 1 0 1 
6018 6 0.232917 0.233825 0.16245 -1 -5 3 
7685 6 0.309082 0.251624 0.112186 -1 0 -2 
6318 6 0.204369 0.241331 0.138808 2 0 4 
8326 6 0.66094 0.216891 0.151658 -8 -3 -1 
7770 6 0.741283 0.224722 0.101814 -4 -1 0 
6521 6 0.813702 0.21901 0.189344 -2 4 -1 
7640 6 0.14943 0.26709 0.166213 0 4 -1 
8680 5 0.834767 0.258846 0.127193 -2 2 -2 
7776 6 0.982141 0.289565 0.131437 4 6 2 
8399 5 0.182172 0.28588 0.182061 -1 -7 3 
5898 6 0.421497 0.295378 0.148828 4 2 0 
8072 6 0.845208 0.303341 0.143083 -10 0 1 
5554 5 0.864623 0.303419 0.183793 1 -4 -2 
6995 5 0.0318867 0.32061 0.151546 -1 -2 -3 
8308 6 0.856561 0.331359 0.136321 -3 -1 -4 
6848 6 0.55832 0.315236 0.136639 1 3 2 
8181 6 0.85655 0.357343 0.107089 -2 4 -3 
8235 6 0.230946 0.38693 0.192811 2 0 -3 
7982 6 0.0644506 0.406427 0.11038 2 -2 1 
6060 5 0.865159 0.383737 0.180303 1 5 -6 
5038 5 0.488386 0.423811 0.146954 -1 2 0 
6687 6 0.19534 0.437015 0.14148 4 -2 1 
6029 6 0.382803 0.436839 0.153723 0 -3 0 
5631 5 0.294403 0.454669 0.157929 -2 0 0 
7296 5 0.39429 0.483105 0.17857 -9 5 3 
8735 6 0.655004 0.453384 0.159303 5 -2 -2 
5541 6 0.851164 0.478433 0.153714 0 -3 1 
7495 5 0.16199 0.494102 0.129323 2 1 -3 
6012 6 0.546614 0.478934 0.14566 -7 2 -1 
6059 5 0.73531 0.463161 0.157615 -4 -3 0 
8644 6 0.820941 0.47197 0.178763 -2 0 -3 
5655 5 0.438818 0.571341 0.151058 0 -1 0 
8179 6 0.493344 0.55179 0.141652 -1 3 0 
5053 6 0.933117 0.540652 0.12975 0 2 -2 
7134 6 0.924203 0.56529 0.134986 -3 2 4 
8622 6 0.941355 0.59597 0.108413 -3 -1 -2 
5299 6 0.496866 0.663215 0.117764 -2 0 -3 
5281 5 0.0418474 0.7422 0.140975 2 -4 0 
8675 5 0.760526 0.758882 0.171839 3 9 -2 
7218 6 0.183232 0.757279 0.182367 -6 2 -1 
8585 5 0.505882 0.751727 0.145244 1 1 -2 
5630 6 -0.00145378 0.794436 0.142514 2 -5 0 
8983 6 0.347561 0.789093 0.177839 2 -3 0 
5583 5 0.940297 0.830378 0.174711 -1 2 2 
5664 5 0.147052 0.884208 0.175509 5 -5 -2 
8116 6 0.336667 0.846573 0.111594 -3 0 2 
5361 5 0.716994 0.892765 0.161786 2 -5 1 
6034 6 0.620967 0.895251 0.119058 -1 0 -1 
6824 5 0.664567 0.866294 0.143357 1 3 8 
8453 6 0.110851 0.892641 0.153941 6 -1 -1 
8039 6 0.163074 0.943097 0.148364 -1 -1 -1 
5441 6 0.226112 0.899637 0.175932 4 2 2 
6048 6 0.563763 0.909925 0.158336 -4 0 1 
5689 6 0.990024 0.906493 0.120188 -3 3 -2 
6627 6 0.842472 0.957081 0.128072 2 5 1 
5030 6 0.831263 0.00748938 0.153245 -2 3 -1 
5337 6 0.971307 0.99185 0.128982 3 0 4 
8405 5 0.0165296 0.0141729 0.171823 4 3 -1 
6368 6 0.524908 0.00948699 0.189277 2 1 -2 
6924 6 0.911091 0.998224 0.15629 2 -3 1 
8601 6 0.981676 0.0362008 0.166511 1 5 1 
8295 6 0.163081 0.0286811 0.188902 6 9 -2 
5019 6 0.697259 0.0277579 0.146524 -1 -1 1 
5971 5 0.288487 0.046675 0.189782 -5 4 1 
5446 6 0.319101 0.0511489 0.154434 2 3 -5 
7337 6 0.0915759 0.130518 0.141571 -4 -2 1 
8086 6 0.225151 0.13905 0.151262 -3 3 -1 
7233 5 0.278854 0.122915 0.14369 -1 -2 3 
8825 6 0.576061 0.118845 0.160281 5 1 -3 
5102 5 0.326821 0.157447 0.148411 4 -4 0 
7834 5 0.438182 0.197422 0.189184 3 0 2 
7498 6 0.902425 0.193268 0.154043 1 -2 4 
5700 6 0.4157 0.231833 0.150109 0 1 2 
8606 6 0.567279 0.260115 0.166049 -9 1 -3 
7687 6 0.629964 0.258655 0.18825 -3 -1 3 
5874 5 0.133372 0.27869 0.16934 2 -1 3 
8149 5 0.637126 0.265604 0.146871 -7 5 4 
7809 5 0.9038 0.27141 0.1792 -1 -3 1 
7617 5 0.00265216 0.275623 0.154662 3 2 2 
7884 5 0.756869 0.274198 0.147998 4 3 3 
5505 6 0.0717776 0.295272 0.179922 1 2 5 
7736 6 0.50494 0.355363 0.156122 1 0 -1 
8440 6 0.793813 0.309981 0.138195 0 -4 3 
7717 5 0.215914 0.347928 0.164366 0 6 6 
5244 5 0.548 0.327056 0.191731 3 4 2 
6417 6 0.874618 0.294589 0.181031 -3 2 1 
7280 5 0.0679016 0.363931 0.180116 -2 -6 4 
6638 6 0.881979 0.346566 0.177458 -1 4 -1 
5331 6 0.178498 0.357409 0.140579 2 -2 6 
5477 6 0.298627 0.380816 0.150343 -2 2 6 
6859 6 0.316336 0.361856 0.172844 1 -3 0 
6389 6 0.470463 0.33342 0.171715 5 -1 0 
5173 5 0.466372 0.402476 0.175231 -2 2 1 
6468 6 0.600396 0.390224 0.171752 1 -1 -1 
8612 6 0.170717 0.407683 0.177447 -1 1 -1 
8214 5 0.761848 0.41225 0.173439 -5 -5 0 
8469 5 0.547432 0.442907 0.129768 3 -8 1 
7395 6 0.733302 0.438399 0.175176 4 3 -1 
5711 6 0.316721 0.470669 0.124479 -1 -1 -2 
6346 5 0.79284 0.426852 0.189054 -2 -1 1 
8515 6 0.492843 0.466158 0.185009 2 -4 -4 
6520 6 0.269017 0.545952 0.1928 2 -1 -1 
8767 6 0.107643 0.535767 0.174892 2 0 0 
6277 6 0.403944 0.568259 0.13534 3 0 -1 
7908 6 0.992414 0.534499 0.14535 1 2 0 
6700 5 0.246158 0.59158 0.192188 -3 -2 1 
5375 6 0.266882 0.592558 0.158824 -3 -5 -1 
8806 6 0.451847 0.544289 0.183183 -3 -2 -1 
5452 6 0.884826 0.573747 0.186038 0 2 1 
7350 6 0.936253 0.579067 0.18029 0 -1 6 
7307 6 0.0267044 0.682919 0.192464 3 1 0 
8243 6 0.0810109 0.656652 0.20327 -1 -3 0 
7988 6 0.248587 0.64467 0.211605 -5 3 2 
7843 5 0.594296 0.650185 0.169716 -3 -5 0 
6459 6 0.67971 0.712297 0.159689 0 -1 3 
8057 5 0.853462 0.693287 0.171152 -2 -1 1 
8436 6 0.429404 0.679366 0.17947 -2 -2 -2 
6429 6 0.688441 0.662075 0.200217 1 1 3 
8854 6 0.911332 0.682323 0.126164 -4 1 2 
8209 5 0.741316 0.738478 0.213641 -3 -2 3 
7625 6 0.0708249 0.770357 0.19364 0 -1 -2 
6449 5 0.529648 0.683968 0.170737 -1 5 -1 
7330 5 0.809696 0.722107 0.144945 2 3 2 
5414 6 0.0314181 0.748641 0.16766 5 4 -5 
8627 6 0.334558 0.773896 0.170332 4 -5 0 
7114 6 0.748664 0.739732 0.200407 4 1 1 
7108 6 0.351611 0.768181 0.149883 1 4 -1 
6706 5 0.642197 0.8023 0.161179 0 -5 -3 
5510 6 0.644975 0.797349 0.174622 -2 2 -3 
5530 5 0.0958118 0.802112 0.206285 0 -2 -4 
6779 6 0.631898 0.773661 0.168695 -3 -1 3 
5958 6 0.173838 0.840363 0.176556 4 1 2 
8257 5 0.420989 0.853808 0.146214 1 -1 3 
6527 6 0.0558862 0.828955 0.173461 -1 -1 0 
6854 6 0.0873845 0.828213 0.130905 4 4 1 
5220 5 0.0511172 0.846337 0.19506 4 4 2 
7763 5 0.731433 0.866262 0.177162 1 -3 1 
6009 6 0.1722 0.922822 0.189678 1 1 3 
8466 5 0.300558 0.88563 0.176999 -1 1 -2 
6004 5 0.731466 0.905273 0.170767 -3 -2 -6 
5580 5 0.937128 0.858359 0.145384 0 4 -3 
5556 6 0.243993 0.889452 0.192061 -1 -4 -6 
6202 6 0.240593 0.913282 0.171197 -1 1 -4 
7487 6 0.35778 0.894304 0.164244 8 1 2 
5614 5 0.993348 0.910722 0.182256 1 5 1 
5311 6 0.0673667 0.948172 0.174441 1 0 -4 
6909 5 0.408384 0.916351 0.147835 4 -3 1 
5896 5 0.372287 0.890769 0.144822 4 2 -4 
8828 5 0.817034 0.934515 0.156991 -3 -4 -6 
6472 5 0.152248 0.929421 0.158733 7 -4 1 
7998 6 0.182078 0.949288 0.186332 2 2 1 
6387 5 0.20213 0.913352 0.170777 2 -2 3 
7041 5 0.38975 0.955975 0.174086 2 -1 3 
5629 5 0.534426 0.94662 0.141572 -5 0 7 
8953 5 0.953393 0.919989 0.156538 1 -2 4 
7160 6 0.980062 0.00896434 0.153357 1 -1 6 
6556 6 0.338949 0.055457 0.208289 -3 3 1 
7552 6 0.387144 0.0267979 0.209345 -1 -1 2 
5336 6 0.974248 0.0573826 0.214348 -5 2 -1 
6072 5 0.0730706 0.0823957 0.237851 1 3 -5 
8019 6 0.279455 0.152391 0.218697 5 0 2 
5237 5 0.293922 0.125969 0.197883 0 -5 4 
7018 5 0.456304 0.104666 0.203051 -2 0 8 
8880 6 0.798101 0.123532 0.219339 -1 -3 0 
8522 6 0.694114 0.132953 0.199774 -5 -4 -5 
7442 5 0.495998 0.204363 0.208335 -1 4 -2 
5210 5 0.578792 0.184308 0.203723 0 0 -3 
7695 5 0.846352 0.268958 0.232977 -1 2 1 
6976 6 0.0524763 0.295893 0.210024 -8 -4 3 
7156 6 0.834733 0.275402 0.168199 -3 3 1 
8402 5 0.0618823 0.228261 0.155705 3 1 0 
8388 6 0.271255 0.245972 0.177639 -5 1 -1 
5385 6 0.340051 0.301457 0.194774 -2 0 0 
7543 5 0.408326 0.325903 0.17065 3 3 5 
6222 5 0.875223 0.286269 0.188481 0 -2 1 
5148 6 0.94266 0.307156 0.166363 3 -1 0 
7531 5 0.175425 0.317915 0.182326 -4 5 -2 
6570 6 0.67289 0.307593 0.181272 -4 2 1 
5147 6 0.0538509 0.328632 0.221518 1 -2 1 
6980 6 0.185442 0.361098 0.19768 5 2 2 
6074 6 0.58394 0.444046 0.195026 1 0 1 
5075 6 0.0235944 0.464123 0.179051 -3 -1 -4 
5426 5 0.22343 0.423977 0.167604 2 3 -1 
8619 6 0.356518 0.407465 0.152245 -2 1 0 
6207 6 0.673144 0.423179 0.174205 0 6 -2 
7314 6 0.710221 0.436261 0.235984 0 -3 -2 
5272 5 0.977068 0.428135 0.176208 -3 -3 0 
5130 5 0.939167 0.462106 0.148056 1 -1 3 
8839 6 0.0625766 0.478736 0.225352 3 -1 -1 
6075 5 0.242715 0.483702 0.223114 4 0 -3 
6117 5 0.59532 0.507326 0.246445 3 0 1 
6505 6 0.271801 0.498673 0.2306 1 0 2 
6478 5 0.429211 0.532953 0.17053 5 -1 0 
5650 5 0.563783 0.536294 0.181224 2 -4 3 
8949 5 0.21753 0.514722 0.216198 -5 -3 3 
6103 5 0.385762 0.559818 0.236514 7 2 1 
5482 6 0.913465 0.583281 0.241718 1 4 -2 
7192 6 0.128736 0.586605 0.227228 -1 -2 1 
5608 5 0.302461 0.558435 0.180317 4 -4 1 
5405 5 0.453472 0.613707 0.215953 -2 -4 -6 
5425 6 0.527594 0.584829 0.207081 0 -2 1 
7828 5 0.522433 0.588061 0.213014 -4 -4 1 
8494 6 0.992196 0.60896 0.22296 -1 3 0 
8592 6 0.150388 0.575511 0.188359 5 -2 -2 
5821 5 0.999607 0.636874 0.209706 1 2 1 
6174 6 0.391105 0.615593 0.182845 3 -1 0 
7750 5 0.666992 0.629746 0.23093 -3 -1 0 
8811 6 0.293287 0.650751 0.201923 5 4 2 
6289 5 0.742044 0.636896 0.185424 -1 2 7 
8775 6 0.858356 0.671409 0.201338 4 -3 0 
8761 5 0.934166 0.656972 0.214556 7 3 0 
6785 6 0.166071 0.695899 0.181886 7 0 -4 
6331 5 0.0663411 0.735704 0.224229 2 4 1 
5606 5 0.224101 0.757119 0.195502 2 0 -1 
6239 6 0.472118 0.76294 0.170433 -6 -2 -3 
5566 6 0.535554 0.787701 0.19774 2 -2 1 
7383 5 0.0109086 0.819583 0.21338 1 0 2 
6229 6 0.353286 0.804192 0.180528 1 3 3 
5172 5 0.710868 0.867212 0.183845 -2 1 -2 
8101 6 0.969342 0.829547 0.191991 -1 -1 2 
5115 5 0.141601 0.828541 0.217039 4 1 -2 
7535 5 0.322988 0.874721 0.194839 -4 -1 -7 
7772 5 0.0297246 0.960416 0.160164 3 -1 3 
6796 6 0.100489 0.875805 0.198694 -7 -7 -1 
7288 5 0.60221 0.88105 0.189674 2 -5 -1 
7023 6 0.0416686 0.923644 0.148912 5 -2 3 
5045 6 0.201941 0.909463 0.188377 2 -4 2 
5423 6 0.179922 0.94492 0.169943 2 1 6 
6937 5 0.464269 0.937482 0.155295 1 4 2 
8707 6 0.0845628 0.0104379 0.191341 -1 0 -1 
8212 5 0.575021 0.989028 0.208666 4 1 -2 
6936 6 0.636449 0.0434133 0.177425 2 -5 4 
6621 5 0.837847 0.966537 0.242238 0 -5 -2 
8182 6 0.682817 0.0182336 0.211791 0 0 -6 
6696 5 0.903566 0.00447874 0.201105 1 -2 -2 
5612 6 0.25821 0.0470524 0.213602 -4 1 0 
8090 5 0.041495 0.0342924 0.228525 -3 -4 -2 
7196 5 0.262434 0.0319592 0.225187 0 6 -4 
8757 5 0.4828 0.0557659 0.237724 4 1 0 
8198 5 0.181536 0.0920023 0.197664 -3 -1 2 
7774 5 0.558215 0.0770326 0.248266 3 -2 3 
5935 6 0.916924 0.131627 0.193913 -1 -2 0 