ITEM: TIMESTEP
20000000
ITEM: NUMBER OF ATOMS
9000
ITEM: BOX BOUNDS pp pp pp
-75 75
-75 75
-75 75
ITEM: ATOMS id type xs ys zs ix iy iz 
6181 6 0.0111235 0.0330251 0.0129478 -3 2 -2 
7632 6 0.0860335 0.00430668 0.0316383 0 0 2 
8878 5 0.28152 0.989081 0.0163645 2 -5 0 
6689 6 0.76521 0.00613203 0.014374 -3 -4 0 
5406 5 0.957358 0.998493 0.00976863 -4 -3 2 
7562 6 0.910647 0.0521092 0.00652973 1 -1 2 
8180 5 0.955445 0.0317941 0.984483 -4 1 -3 
6506 6 0.495444 0.0244128 0.00309415 -3 -2 -1 
7526 6 0.674472 0.0729924 0.00236407 1 -1 0 
8882 6 0.146734 0.081128 0.0326313 3 -3 0 
5397 6 0.854851 0.0986639 0.0052386 1 4 0 
7113 6 0.950452 0.085616 1.00089 -1 0 3 
7780 5 0.316986 0.110061 0.0306321 0 -6 -5 
8127 6 0.663124 0.0939608 0.998886 1 -3 4 
7505 5 0.759905 0.13948 0.0403685 0 0 -3 
8090 6 0.119719 0.120047 0.0196578 -6 1 -3 
7027 5 0.306776 0.103701 0.0321846 -1 0 0 
6518 5 0.351099 0.146489 0.995937 -3 0 -3 
8973 5 0.167167 0.166875 0.00921112 5 4 -3 
8687 6 0.866185 0.186705 0.993154 3 -2 2 
8680 5 0.994928 0.179993 0.0273738 -1 3 -4 
5241 5 0.534666 0.189565 0.997388 -1 2 -2 
7728 6 0.0456524 0.191626 0.0349154 4 -3 -4 
5858 5 0.358594 0.171239 0.993942 0 2 2 
7299 6 0.499966 0.220004 0.0303375 -2 4 -1 
7492 6 0.809913 0.235488 0.00407284 -1 1 4 
6805 6 0.0529228 0.234177 0.0114585 -3 -2 -1 
5002 6 0.305769 0.253171 0.0254097 0 -1 -2 
6674 6 0.0530712 0.273431 0.0303724 -3 0 0 
6286 5 0.200825 0.269894 0.988722 -1 5 -3 
7593 5 0.183053 0.310936 0.0453286 -2 -1 3 
5356 5 0.260992 0.307272 0.0401047 -2 3 4 
7615 6 0.827645 0.333893 0.011723 0 3 -1 
8268 6 0.556526 0.334456 0.0399732 0 1 1 
5591 5 0.81737 0.357129 0.0150476 -3 5 -2 
6672 6 0.293483 0.344051 0.0310278 -2 2 0 
8405 6 0.539058 0.34839 0.0135753 4 0 1 
8368 6 0.400619 0.376813 0.00465032 1 1 -2 
5146 5 0.967886 0.373193 0.00718566 3 9 3 
5333 5 0.41344 0.390008 0.0112056 2 3 0 
8855 6 0.527567 0.379267 0.00609824 -1 0 3 
8704 5 0.0975831 0.440038 0.0596307 4 0 2 
8967 5 0.582869 0.396941 0.0106423 3 1 0 
7539 5 0.413424 0.486385 0.0428339 1 2 -1 
8062 6 0.567851 0.460529 0.021983 5 3 5 
7258 6 0.274267 0.47764 0.0364747 9 0 -4 
6367 6 0.0771653 0.489998 0.00457561 5 -2 0 
6399 6 0.321314 0.483562 0.0464249 -2 1 0 
7098 5 0.099928 0.522806 0.0365133 0 2 0 
8725 6 0.193834 0.516851 0.0064119 1 -2 8 
5240 5 0.309302 0.506469 0.0169941 -1 4 0 
8473 6 0.907072 0.554168 0.987222 -2 1 -4 
5932 5 0.227593 0.539707 0.998263 -7 5 -1 
7379 6 0.242321 0.598199 0.99664 3 -2 0 
6725 5 0.302963 0.574975 0.981859 1 1 0 
5515 5 0.439565 0.575336 0.0135028 -2 -2 5 
5810 6 0.0452789 0.617656 0.988479 1 2 1 
6946 6 0.109881 0.639515 0.0107337 -2 2 3 
5039 5 0.466158 0.618082 0.0114041 2 -1 2 
8162 5 0.455635 0.634742 0.00163188 -1 2 -2 
6943 6 0.865202 0.582037 0.995371 1 -7 5 
8749 5 0.149117 0.621493 0.028216 3 -2 -1 
5226 6 0.908056 0.67465 0.00820975 -5 1 -1 
7697 6 0.947915 0.656619 0.0374233 -2 2 0 
5613 6 0.290675 0.667198 0.0227495 0 -1 2 
5604 5 0.373605 0.704628 0.00632613 -1 1 -3 
7567 5 0.832015 0.677387 0.0121705 4 -1 -1 
8741 5 0.0107358 0.730321 0.0199198 0 -4 3 
6819 6 0.788012 0.729865 0.062934 -1 -3 -1 
6213 6 0.942479 0.753364 0.973747 0 0 1 
7119 6 0.397619 0.742934 0.00433427 0 -2 -3 
6354 5 0.635552 0.71129 0.0421464 -2 -2 5 
8098 5 0.778116 0.752011 0.0523707 0 3 -1 
7360 6 0.304583 0.725679 0.0274202 -2 2 -1 
8530 6 0.68948 0.751483 0.0404422 -2 -2 2 
8406 5 0.632316 0.785011 0.00871371 -1 -4 5 
5300 5 0.765753 0.755501 0.00203543 0 -4 4 
6822 5 0.44502 0.848299 0.0130573 -2 0 3 
5151 5 0.66988 0.840626 0.975367 -2 1 1 
6584 6 0.385281 0.846163 0.981248 6 -6 0 
6816 6 0.554286 0.860338 0.0128972 0 -1 -2 
8423 6 0.549097 0.786175 0.0394163 1 2 -1 
7367 6 0.562213 0.844576 0.993896 1 -4 -1 
7961 6 0.591899 0.879235 0.986825 0 -1 -2 
5221 6 0.225969 0.880788 0.00257508 -1 -2 -2 
6278 6 0.564192 0.876992 0.0167973 -3 -2 3 
8998 5 0.69283 0.854571 0.0129844 -4 -5 5 
6759 6 0.143438 0.904008 0.977843 -2 0 -3 
8639 5 0.664988 0.890392 0.00666088 -3 4 0 
6435 6 0.791754 0.891544 0.00249077 3 -1 -2 
7464 5 0.167614 0.938721 0.000218333 -3 0 2 
5908 6 0.801288 0.91054 0.0119616 0 -4 -1 
7331 6 0.564943 0.962085 0.0201821 -2 -1 -1 
8810 6 0.868369 0.913936 0.998106 -2 -5 -4 
5763 5 0.978999 0.968745 0.99443 0 -4 2 
6185 6 0.662143 0.00600607 0.998047 4 1 0 
8353 5 0.560005 0.00833294 0.0227682 3 -2 1 
8570 5 0.842712 0.0207012 0.0839065 -1 3 -2 
7753 6 0.336027 0.0513735 0.0445593 -1 0 -1 
6151 6 0.0180481 0.0381893 0.00640323 4 -2 1 
5742 5 0.253778 0.0474033 0.0279788 0 -2 2 
8345 5 0.224359 0.108681 0.013095 3 6 8 
8783 5 0.361869 0.114597 0.0451412 3 1 -1 
5464 6 0.159774 0.0976589 0.0266937 -2 2 5 
6842 6 0.23517 0.16652 0.0383491 4 -3 -1 
6753 6 0.302325 0.11618 0.0500008 1 -1 1 
5617 6 0.417614 0.150626 0.997264 -3 5 -1 
5458 6 0.927444 0.195497 0.0208636 1 -1 0 
5279 5 0.978299 0.164016 0.0335751 0 0 2 
6610 5 0.329878 0.149723 0.0182909 -2 -3 0 
7487 5 0.137738 0.196524 0.00192469 1 -1 3 
5744 5 0.265904 0.203208 0.0351187 3 -1 -2 
5057 5 0.908003 0.191607 0.0261327 2 -1 -1 
8112 5 0.413886 0.216619 0.0573452 -3 1 1 
6780 5 0.631434 0.239906 0.0580964 3 1 -1 
8228 5 0.276848 0.24709 0.0576785 1 0 3 
8105 6 0.696155 0.252379 0.0719555 2 3 1 
5826 6 0.385517 0.273179 0.0109777 3 -1 1 
8194 6 0.546042 0.282416 0.0584374 4 -1 1 
6512 6 0.734142 0.322811 0.0395594 4 1 -3 
5149 6 0.0124578 0.317276 0.0415932 1 5 1 
8049 6 0.00973239 0.34359 0.985943 5 5 0 
8453 6 0.479626 0.335621 0.0265631 -3 -1 -2 
6034 6 0.294635 0.329905 0.0173869 8 4 0 
7298 5 0.346051 0.348569 0.0180474 0 -5 0 
8053 6 0.44656 0.357734 0.0334107 -4 -1 1 
8030 6 0.780496 0.338845 0.0273344 -1 -1 1 
5434 5 0.12521 0.363663 0.0774312 -1 -2 2 
7023 6 0.99121 0.326935 0.0519621 1 2 1 
7354 5 0.320427 0.386606 0.0725666 0 -1 0 
7742 5 0.104567 0.42038 0.0263677 4 1 0 
7733 5 0.350835 0.396819 0.038893 3 -1 3 
6873 6 0.777369 0.418173 0.0152466 2 -7 2 
7893 6 0.891551 0.472748 0.0485509 3 -2 4 
5603 5 0.623818 0.452083 0.981655 -1 0 -2 
8814 5 0.211279 0.504786 0.0536488 2 -3 -2 
7395 5 0.560394 0.474198 0.0240711 1 0 2 
7000 6 0.858063 0.472547 0.0364927 -6 4 2 
5106 5 0.190401 0.515602 0.0197768 -2 0 3 
5311 5 0.00284108 0.54618 0.0404506 4 -1 -1 
7916 5 0.404824 0.520025 0.0138867 3 1 -5 
5595 6 0.21848 0.560536 0.0214811 -1 2 1 
6635 6 0.245422 0.54753 0.0337269 -2 0 1 
5386 5 0.0815329 0.607092 0.0320732 0 -2 1 
8326 6 0.11699 0.620144 0.0267607 4 -1 2 
8568 5 0.221659 0.594064 0.031902 4 -1 1 
6668 5 0.437102 0.660396 0.0383654 -3 -2 0 
6405 5 0.545435 0.607552 0.0255299 1 1 1 
8700 5 0.0538439 0.641233 0.0507 0 0 3 
7186 5 0.247367 0.635329 0.0292824 0 1 -4 
5161 6 0.411201 0.642498 0.044446 1 2 2 
6482 5 0.749812 0.618538 0.0492068 3 -4 -1 
7144 5 0.479114 0.704274 0.0704274 -5 -4 3 
5753 6 0.425856 0.681596 0.987452 0 -1 -4 
5852 6 0.451396 0.663136 0.0399591 -1 -4 -6 
5362 5 0.420986 0.742853 0.0404056 5 2 0 
8451 5 0.444665 0.738865 0.0568414 -1 2 -7 
6756 6 0.644645 0.741965 0.0318519 1 -3 3 
6746 5 0.724305 0.724349 0.053101 -3 -4 0 
8424 5 0.611544 0.72302 0.0426447 -2 -2 3 
8312 6 0.816739 0.738403 0.0416418 3 -4 -1 
5557 5 0.799822 0.740341 0.0507334 1 -2 3 
5885 6 0.103662 0.767217 0.991101 -2 -1 -5 
7118 5 0.19076 0.837222 0.0375571 1 1 1 
7872 5 0.357778 0.812224 -0.00183953 -1 0 -2 
7705 5 0.527688 0.803774 0.0429934 2 4 1 
7463 5 0.566204 0.830842 0.036151 1 3 4 
7343 6 0.790699 0.864024 0.00871173 -4 3 0 
6602 6 0.684606 0.879096 0.0510408 -4 1 -4 
8774 5 0.983802 0.887732 0.021783 -4 1 1 
6525 6 0.20064 0.863656 0.0560289 4 -1 0 
7401 5 0.486174 0.926788 0.0113179 0 1 0 
6510 6 0.468468 0.977195 0.993 0 0 2 
7720 5 0.801372 0.942052 0.0126733 -1 -6 0 
6481 5 0.0269137 0.97408 0.0549341 3 -1 -5 
5065 5 0.569437 0.973524 0.0670654 -1 -1 2 
5089 5 0.291695 0.0162939 0.993056 1 2 -2 
6202 5 0.320296 0.980775 0.0261824 1 1 -1 
8792 6 0.448545 0.963378 0.0845585 -1 -4 4 
6251 5 0.949131 0.00847097 0.0546116 -1 1 -1 
7908 6 0.983275 0.00949527 0.0113778 -3 3 4 
7959 6 0.607387 0.995503 0.0620464 -7 -1 0 
8484 6 0.618068 0.0427633 0.0477575 0 -3 -3 
8927 5 0.147792 0.0835248 0.068557 3 -3 4 
7318 6 0.462307 0.0605887 0.0675671 -2 4 -3 
6783 6 0.749749 0.0766901 0.0855389 -1 -1 2 
6693 6 0.993343 0.0393435 0.024646 1 4 2 
8518 6 0.426975 0.0739703 0.0777536 3 -5 -5 
6587 6 0.425728 0.116927 0.0749589 8 -2 -3 
5420 6 0.825197 0.0571137 0.0698181 2 0 1 
7070 5 0.0270035 0.0646906 0.0660549 5 3 -4 
7495 5 0.7337 0.0617677 0.0674627 2 3 1 
8780 6 0.96132 0.0589231 0.0480369 2 0 1 
7415 6 0.785583 0.0911718 0.07277 -3 3 1 
7993 6 0.228806 0.12762 0.0574911 1 -2 -1 
6638 6 0.435827 0.19917 0.0708138 4 -5 -5 
8238 5 0.552129 0.180748 0.0393041 2 -2 -4 
7369 5 0.706873 0.128092 0.0634857 -3 -2 5 
7102 6 0.893599 0.173884 0.045811 -1 -1 3 
5260 6 0.562923 0.204836 0.0351577 -1 1 5 
8278 6 0.872166 0.21166 0.0587038 -5 2 -2 
7700 6 0.136135 0.202401 0.0738589 1 -4 1 
8641 6 0.770848 0.237892 0.0519063 -2 2 -2 
8836 5 0.877731 0.205906 0.0532245 1 4 -2 
7068 5 0.90287 0.208309 0.0448347 -2 -1 -4 
5928 5 0.0950132 0.245453 0.0496543 0 -2 6 
7530 6 0.418971 0.219407 0.0507794 -3 -7 0 
5675 5 0.238499 0.298292 0.0563289 -3 0 1 
8000 6 0.125433 0.220257 0.0334566 4 2 -3 
7575 5 0.192389 0.283409 0.0657527 1 -3 0 
6016 5 0.283224 0.281323 0.106311 1 0 2 
5777 6 0.447896 0.281833 0.103658 -2 -2 3 
6666 6 0.806545 0.256772 0.0296218 -2 0 0 
5399 6 0.397933 0.335459 0.062207 -1 3 -1 
6554 5 0.617082 0.278858 0.020999 -1 -6 0 
8361 6 0.313447 0.328972 0.0523388 -5 3 2 
5980 5 0.437549 0.30303 0.0619959 -1 4 -1 
7871 6 0.184347 0.358675 0.0431022 -2 -2 0 
5959 6 0.515806 0.36902 0.0715392 2 -1 5 
7987 6 0.321911 0.353078 0.0808289 -1 1 0 
6906 6 0.350907 0.374696 0.0826363 -2 1 4 
6479 5 0.987065 0.370268 0.0536722 -2 0 3 
7285 5 0.990305 0.42226 0.0739582 -3 1 1 
6691 6 0.0588317 0.455911 0.0310295 -5 -1 -1 
8782 6 0.174659 0.439138 0.0447906 2 2 2 
5746 5 0.666701 0.405892 0.0735394 -2 0 4 
5043 6 0.0594191 0.432726 0.0691606 2 -2 -1 
7423 5 0.106987 0.43966 0.0359718 3 -6 4 
6131 6 0.00211742 0.475873 0.0626707 2 -1 2 
8468 5 0.958032 0.478662 0.0704725 -1 2 2 
8658 5 0.878345 0.480496 0.0429143 1 3 -7 
6508 5 0.151575 0.552457 0.073558 1 2 1 
5968 5 0.230327 0.488227 0.0578245 4 -1 0 
7750 6 0.229819 0.499644 0.0329557 -1 5 0 
8645 5 0.607751 0.617266 0.0283387 3 -2 -3 
6198 5 0.815742 0.563876 0.090973 2 1 9 
5410 5 0.690411 0.588786 0.0641254 -1 -5 -2 
7435 5 0.937249 0.602356 0.0772934 2 -3 6 
8444 6 0.0412357 0.636863 0.0659619 1 0 3 
7260 5 0.692334 0.642864 0.0492321 -1 -3 5 
8632 6 0.470301 0.691699 0.0757726 -3 1 7 
7296 5 0.545341 0.699935 0.0962348 -2 5 3 
6947 5 0.891241 0.777992 0.0485035 0 1 3 
8201 5 0.250748 0.752447 0.0541885 6 -1 3 
7611 5 0.214091 0.822548 0.0500819 -3 1 5 
6523 6 0.665966 0.815061 0.0511457 2 1 5 
7519 5 0.943438 0.815751 0.0374339 -3 2 -1 
6490 5 0.287172 0.872319 0.0603429 -4 3 1 
8229 6 0.656678 0.859295 0.0446949 2 5 0 
8903 5 0.84304 0.851216 0.0540006 6 -2 2 
8155 6 0.287291 0.865907 0.0853359 -3 -2 6 
7653 6 0.532772 0.852799 0.0400921 -3 2 0 
8588 6 0.331453 0.898638 0.0428698 -3 0 3 
8692 5 0.483473 0.873914 0.0595582 -1 -1 2 
8471 5 0.158274 0.969509 0.0736719 1 -4 3 
7341 6 0.77179 0.904545 0.0349922 2 -3 -1 
7424 6 0.0114314 0.974897 0.0727133 3 -4 2 
7279 6 0.729824 0.913253 0.0312494 -4 3 -2 
6068 6 0.866524 0.943214 0.0557879 -3 -3 -2 
5314 5 0.981297 0.982607 0.0308806 -1 0 0 
7383 5 0.781585 0.999001 0.0408595 -2 -2 1 
7899 5 0.183159 0.0383139 0.0968784 -2 -1 5 
6239 6 0.163164 0.0024548 0.0498471 2 0 1 
6882 6 0.120518 0.0288077 0.11084 0 2 3 
6519 5 0.207206 0.0142175 0.10375 -4 -2 5 
5079 6 0.191651 0.0314385 0.0524344 5 2 1 
7234 6 0.0180669 0.0594266 0.0734583 4 5 1 
6082 6 0.407303 0.114907 0.0575744 6 3 1 
8055 6 0.679732 0.0678874 0.0831886 -3 3 2 
6830 6 0.843223 0.0477743 0.0375025 -2 0 -2 
7080 5 0.384483 0.143816 0.0728612 2 0 2 
8690 5 0.0488118 0.146244 0.107257 -4 -1 3 
6977 5 0.864778 0.0943266 0.0890166 0 1 3 
5764 6 0.107595 0.141219 0.0597124 2 -1 1 
5575 6 0.36757 0.144903 0.0585495 -1 0 0 
7833 6 0.486712 0.160582 0.0645997 0 1 1 
7500 5 0.620176 0.158806 0.0775642 1 1 -1 
5709 5 0.72153 0.190164 0.0570295 0 3 1 
5115 6 0.00493651 0.174053 0.0824855 5 -5 0 
7605 6 0.18562 0.171031 0.0181186 0 -2 6 
7711 6 0.0150727 0.155003 0.0605567 3 1 -1 
5918 5 0.0530104 0.21983 0.101809 0 4 3 
5080 6 0.316754 0.197418 0.056791 -4 0 -4 
8734 5 0.854092 0.269103 0.0789412 0 -2 -1 
5457 6 0.278531 0.286212 0.101212 3 2 3 
5797 5 0.802952 0.286069 0.0798417 1 1 6 
7636 5 0.82358 0.230986 0.0623163 -4 3 0 
6468 6 0.862055 0.255624 0.0701825 -5 5 1 
8475 6 0.97862 0.263007 0.0828436 3 2 -2 
7337 5 0.276481 0.299567 0.0876661 2 0 3 
8161 6 0.478401 0.311878 0.0570755 -2 -5 2 
7878 5 0.717748 0.329114 0.0860797 5 -4 2 
8940 6 0.289414 0.355634 0.095469 -2 -2 4 
6862 6 0.621439 0.345039 0.155252 0 -2 -4 
6230 6 0.501453 0.347342 0.0883535 1 1 7 
6880 6 0.131685 0.400963 0.0713351 -1 -7 -2 
5931 5 0.657044 0.338312 0.0771679 -4 4 -4 
5684 6 0.641335 0.400805 0.111337 0 0 3 
8102 5 0.0918196 0.395549 0.0826541 6 2 -2 
6770 6 0.668229 0.369351 0.0385189 6 4 5 
7803 5 0.746889 0.411518 0.12443 5 4 -1 
8399 6 0.795533 0.403391 0.0474993 -2 0 0 
8829 6 0.0424803 0.408598 0.0776339 2 -6 -3 
8152 6 0.264751 0.441763 0.115871 2 -2 0 
5876 5 0.385941 0.421478 0.06565 4 0 -1 
8839 5 0.0784247 0.469101 0.103138 0 -4 3 
8913 6 0.589847 0.449072 0.102036 1 2 3 
6262 5 0.598622 0.445894 0.0780311 -3 0 2 
5373 5 0.631665 0.432493 0.0660114 -2 2 4 
8038 6 0.939947 0.413281 0.0592923 -1 -5 5 
6289 6 0.918122 0.452697 0.0845691 -2 -1 -2 
7978 6 0.177147 0.491849 0.0667479 0 1 2 
8389 5 0.294636 0.529898 0.0612949 3 -1 -1 
5752 5 0.736466 0.501245 0.0714054 -4 3 -5 
7881 6 0.032349 0.560475 0.0614164 -1 1 4 
6843 6 0.033314 0.61546 0.0812127 -1 0 0 
7209 6 0.972317 0.56022 0.103804 1 4 1 
8041 6 0.151753 0.597918 0.0771999 -3 -1 -2 
7894 6 0.599663 0.660796 0.116437 5 5 3 
5490 5 0.90112 0.607865 0.0408976 -1 7 5 
8602 6 0.444468 0.645681 0.10818 0 4 3 
5473 6 0.770696 0.607798 0.082503 1 -2 -2 
8955 5 0.920793 0.660547 0.0642279 0 -3 2 
6186 5 0.0155223 0.613484 0.0792547 3 2 3 
6420 5 0.0299117 0.635115 0.111307 -1 5 1 
6621 6 0.0648031 0.630162 0.0687218 -1 1 1 
6422 5 0.623059 0.649201 0.0634639 -2 3 1 
6434 6 0.0328003 0.681956 0.0996373 7 -1 -5 
5547 6 0.446533 0.681716 0.0802407 1 2 -1 
5466 6 0.833737 0.691776 0.0861182 -1 -2 -3 
6446 5 0.909508 0.697542 0.0852327 -2 0 2 
8837 5 0.301493 0.736008 0.0572494 0 -5 1 
5502 5 0.49913 0.772267 0.0810359 1 -3 -6 
7651 5 0.80089 0.795011 0.0877498 -7 -1 0 
7852 6 0.0278507 0.762958 0.0819471 -2 -3 -1 
6246 5 0.081763 0.778761 0.0845591 0 4 -2 
6983 6 0.654227 0.78802 0.112728 -6 1 0 
7536 5 0.728245 0.870678 0.101356 -5 2 1 
8467 6 0.633835 0.847755 0.116888 3 -3 2 
5255 6 0.0950663 0.834774 0.048445 1 4 0 
5124 6 0.566061 0.924902 0.0878565 -3 2 -2 
7394 6 0.86968 0.93488 0.101837 4 -4 -2 
5113 6 0.506884 0.937423 0.109697 -1 0 4 
5014 5 0.558516 0.899757 0.0833593 -5 3 -2 
7891 5 0.667026 0.932895 0.0812348 -3 0 -3 
6526 5 0.100599 0.946195 0.0695387 2 1 -4 
8615 5 0.329818 0.958309 0.0612348 0 2 -1 
8099 5 0.905844 0.961275 0.0585511 -2 -8 -3 
8436 6 0.0364035 0.983368 0.110995 3 0 -2 
8370 5 0.769626 0.979962 0.0616628 -3 -2 -3 
7626 5 0.206204 0.985424 0.0715313 -2 -3 -3 
7062 6 0.53524 0.00454587 0.0915068 2 -3 3 
6630 6 0.84286 0.0153514 0.063973 1 -1 0 
7909 6 0.11935 0.0923853 0.0907535 0 2 1 
6773 6 0.992648 0.0771006 0.084653 -4 2 2 
8313 5 0.263291 0.0763856 0.0959736 -1 -2 2 
7791 6 0.916488 0.120257 0.0579972 0 1 3 
7760 6 0.143734 0.160863 0.0982918 2 -3 -2 
7365 5 0.327896 0.161322 0.0926368 -2 -4 2 
6907 5 0.609132 0.153106 0.099831 -2 -2 0 
8320 5 0.11365 0.223801 0.141363 1 3 -1 
8431 6 0.625128 0.20165 0.107638 3 -3 -2 
8594 6 0.135799 0.228213 0.0555877 1 -3 -1 
7875 6 0.661966 0.202171 0.086381 -4 7 -1 
7058 5 0.721472 0.194837 0.0927252 2 3 -2 
7477 5 0.0867696 0.271053 0.121934 0 -1 0 
7139 5 0.228921 0.265981 0.0588772 6 2 4 
8281 6 0.865441 0.259791 0.0932471 2 1 4 
8884 6 0.288959 0.264882 0.105441 0 0 -1 
7662 6 0.371826 0.292186 0.0826686 1 0 1 
6516 6 0.466824 0.276206 0.114502 3 -1 2 
5839 5 0.724556 0.347756 0.11056 1 5 5 
7137 5 0.869613 0.308637 0.105185 -1 5 0 
8773 5 0.117687 0.34358 0.106632 0 -2 6 
5963 6 0.53031 0.325555 0.1317 1 3 1 
7861 5 0.120075 0.33326 0.0950186 3 3 2 
7538 6 0.344578 0.414271 0.0957186 -2 -6 3 
6728 6 0.634976 0.35411 0.126737 1 -4 -2 
7995 6 0.603883 0.422398 0.113203 -1 -5 -3 
6070 5 0.822813 0.429344 0.119482 -5 -7 -2 
8785 5 0.114122 0.429177 0.119095 3 -1 1 
6604 6 0.278917 0.436309 0.0671083 0 5 2 
8305 5 0.864096 0.447082 0.0993752 3 2 1 
7096 5 0.941451 0.437783 0.0478348 3 -4 3 
8388 5 0.971832 0.525715 0.106012 -3 3 0 
6090 5 0.00411903 0.499733 0.114281 -2 5 3 
6237 5 0.468359 0.489465 0.0894921 -2 2 5 
5500 6 0.734457 0.539703 0.0756664 -1 1 -2 
5798 6 0.488135 0.548437 0.0706813 2 -2 0 
5424 6 0.570696 0.550931 0.11064 0 -2 5 
6978 6 0.818906 0.539456 0.120435 -1 1 6 
8279 5 0.395639 0.632957 0.120223 3 -3 3 
8480 6 0.94531 0.583364 0.12276 4 4 2 
8258 5 0.256743 0.586393 0.104186 1 5 3 
8669 5 0.361323 0.608901 0.113958 6 -3 1 
6474 6 0.505055 0.588984 0.0841192 -1 1 3 
6135 5 0.193183 0.591379 0.0885646 -5 -2 -1 
7489 6 0.360759 0.654838 0.0900542 -1 3 5 
6328 6 0.843067 0.694184 0.0805647 1 2 -1 
6886 6 0.955715 0.69883 0.105947 -1 1 4 
8403 6 0.981576 0.695055 0.095426 1 1 -3 
6073 6 0.0215943 0.713783 0.124008 1 0 8 
8755 6 0.290236 0.700283 0.113879 3 -3 -2 
8695 6 0.455539 0.687574 0.0991185 -4 6 -2 
8945 6 0.519581 0.737628 0.0685328 -1 -1 -2 
6431 5 0.00357261 0.736941 0.0918059 0 1 -2 
8873 5 0.216247 0.780592 0.0955944 -4 2 5 
7031 6 0.613413 0.797075 0.07804 -2 1 -2 
7215 5 0.693353 0.801623 0.115674 -3 4 2 
5925 5 0.604107 0.814715 0.122873 -4 -5 -1 
6715 5 0.575135 0.797358 0.096422 -2 1 0 
6340 6 0.0376456 0.836785 0.0761767 -1 2 2 
5529 5 0.275468 0.881081 0.109176 -5 -2 2 
5739 6 0.374877 0.892769 0.0728535 1 0 3 
5863 5 0.388378 0.801361 0.113008 -1 0 -4 
5765 6 0.498199 0.844467 0.0761063 3 -2 2 
6121 5 0.199936 0.866514 0.0497946 2 0 4 
8269 5 0.638356 0.913756 0.121309 -1 -1 2 
5902 6 0.360153 0.910382 0.0899318 4 0 0 
5953 5 0.261171 0.912588 0.11777 1 -2 1 
5345 5 0.594066 0.919117 0.127458 1 4 2 
7518 5 0.598826 0.928213 0.073444 6 0 1 
5257 6 0.80811 0.935084 0.108379 5 0 -6 
8994 6 0.575658 0.942594 0.0727211 0 0 7 
8219 5 0.710942 0.95747 0.0833243 -1 -2 0 
5120 5 0.207868 0.978204 0.0852331 -1 4 -2 
7736 5 0.521208 0.947399 0.123933 2 3 -2 
5369 5 0.449855 0.98199 0.115653 -1 2 1 
8020 6 0.227037 0.029764 0.122625 -1 3 -1 
7091 6 0.220173 0.0269259 0.0714637 1 2 1 
7263 5 0.161534 0.0793346 0.0828303 -7 -3 5 
7127 5 0.731487 0.070235 0.109718 7 5 4 
6301 5 0.904048 0.0327079 0.115441 -1 4 -2 
8177 6 0.275029 0.040995 0.138897 0 0 1 
6709 5 0.341328 0.0636907 0.161159 0 -2 3 
5766 5 0.789015 0.0560365 0.149756 -2 0 2 
8747 6 0.124178 0.072261 0.114086 -2 1 1 
5882 5 0.723963 0.0639783 0.132845 2 7 5 
7844 5 0.90245 0.115878 0.147928 -1 1 -4 
5387 5 0.99917 0.120089 0.116144 4 4 1 
5467 6 0.0571442 0.151218 0.113058 1 0 -2 
5173 5 0.45312 0.105348 0.131104 2 -3 -5 
6858 6 0.707762 0.115138 0.0960679 -1 -4 -5 
6894 5 0.532918 0.151467 0.109275 -6 -2 1 
6389 5 0.885457 0.188229 0.10305 2 5 -2 
8205 6 0.904654 0.1965 0.132844 1 2 3 
7984 6 0.887393 0.187095 0.14251 -4 2 1 
8850 5 0.0248385 0.303021 0.111905 3 0 -2 
5832 5 0.131062 0.208175 0.134301 -1 -1 5 
8909 6 0.243205 0.271464 0.140041 0 -1 -1 
8813 6 0.538963 0.28894 0.142452 3 1 0 
6994 5 0.837915 0.292874 0.146809 1 3 -1 
5359 6 0.00107296 0.353528 0.138205 2 1 7 
7744 6 0.893434 0.342167 0.106638 -1 2 -2 
7432 6 0.92943 0.304547 0.0853572 4 1 3 
7921 5 0.812661 0.355897 0.133157 -2 -6 3 
7569 6 0.0824671 0.359534 0.110687 2 3 -3 
5235 5 0.258915 0.354091 0.130052 -1 -2 -2 
6098 6 0.310603 0.37392 0.145232 -1 -1 -3 
6364 6 0.141086 0.408623 0.108925 3 3 1 
6491 5 0.443448 0.423134 0.147116 5 -2 0 
7964 5 0.0816225 0.4545 0.114595 -5 2 -1 
7603 6 0.274898 0.43817 0.157903 4 4 -3 
6980 5 0.508448 0.437027 0.139458 0 2 -1 
5864 5 0.771902 0.450372 0.0962485 -1 -1 0 
8670 5 0.87672 0.403856 0.19192 0 3 0 
6136 5 0.160638 0.451779 0.105864 0 3 3 
6924 5 0.739262 0.497003 0.0962916 -1 2 2 
5122 5 0.72409 0.423799 0.0957194 2 1 1 
8197 5 0.752576 0.482266 0.131865 -6 3 3 
5801 6 0.0127533 0.494584 0.139035 0 -2 -1 
7713 5 0.720705 0.514791 0.101969 3 3 2 
6601 5 0.962689 0.498728 0.145011 1 -2 2 
8514 5 0.00514214 0.534629 0.146541 0 3 2 
8073 5 0.701584 0.524846 0.114135 -3 -2 0 
5308 5 0.779292 0.575894 0.102324 -2 -4 2 
6271 6 0.39172 0.58694 0.11754 -2 -1 -1 
7531 6 0.379242 0.636404 0.137786 2 0 1 
8120 6 0.464188 0.583405 0.138839 2 -3 -3 
6997 6 0.10463 0.624116 0.149778 -3 -4 0 
7316 5 0.325688 0.693448 0.158428 -2 -1 -7 
6568 6 0.230254 0.710912 0.151659 2 -1 0 
5271 5 0.298213 0.754066 0.130928 -3 1 2 
5463 6 0.967496 0.776909 0.108284 1 -2 2 
7830 6 0.300208 0.737492 0.126043 -6 2 1 
7361 6 0.352169 0.745287 0.128072 1 -2 4 
7689 6 0.441854 0.791815 0.170838 -2 -5 2 
8566 6 0.323289 0.784973 0.102522 2 1 -1 
6968 5 0.364707 0.731382 0.140734 5 0 1 
6704 6 0.533598 0.766382 0.126086 1 1 -2 
6137 6 0.759281 0.784413 0.153592 1 -3 -1 
6616 6 0.770077 0.797226 0.113428 4 3 -1 
8380 5 0.705137 0.798243 0.109232 -3 1 -2 
6143 5 0.157518 0.84023 0.169037 4 -1 -1 
5116 6 0.248076 0.865972 0.0830416 0 -3 2 
5236 6 0.760539 0.825378 0.0951532 3 -6 -3 
7422 5 0.734082 0.862488 0.154557 -1 3 1 
5164 6 0.438995 0.880417 0.131863 -2 2 -4 
5218 5 0.821376 0.856991 0.138108 0 -6 0 
6821 5 0.850423 0.867794 0.128479 0 0 0 
6650 5 0.00444595 0.894165 0.144392 0 3 0 
6223 6 0.378973 0.908377 0.133277 3 -1 -1 
6126 6 0.752723 0.888721 0.0995131 -2 5 0 
7311 6 0.796271 0.927948 0.134611 1 -4 4 
7187 5 0.308502 0.893265 0.120011 0 3 5 
5836 5 0.754763 0.924814 0.129166 5 1 1 
5511 5 0.203415 0.982507 0.137555 2 -2 -2 
5137 6 0.402365 0.969476 0.15203 0 -3 2 
5435 5 0.722216 0.991743 0.144461 -2 0 3 
5550 6 0.0138652 0.998461 0.151571 2 4 -7 
7425 6 0.0975879 0.00517185 0.127223 3 -3 4 
5693 5 0.235584 0.00760171 0.10696 -6 1 -3 
7566 6 0.298532 0.959374 0.121818 -2 -4 -6 
6721 6 0.497008 0.98434 0.150413 -4 3 0 
8173 5 0.870381 0.000202515 0.122171 -1 -1 -1 
6897 6 0.898724 0.974721 0.121442 3 0 2 
7754 6 0.185222 0.997746 0.13505 2 -3 3 
8616 5 0.246755 0.015738 0.156894 -3 2 -4 
6436 6 0.582046 0.044268 0.123387 -1 4 4 
7722 6 0.303703 0.0315786 0.162739 -2 -3 2 
8974 6 0.530846 0.0405771 0.149741 -2 1 2 
5147 6 0.899394 0.00531224 0.13805 -1 -1 5 
7837 5 0.0723597 0.0513666 0.122619 -1 1 0 
7101 6 0.355667 0.0379428 0.155726 1 5 0 
6382 5 0.637792 0.0910474 0.150913 4 -4 -5 
6724 6 0.684661 0.0414593 0.180905 4 -2 2 
6214 6 0.929375 0.0296523 0.141823 3 1 -3 
8302 5 0.076271 0.10481 0.142853 2 -4 4 
8202 6 0.128855 0.0840191 0.137943 -7 1 -1 
6615 6 0.67156 0.0649232 0.145481 2 2 4 
8678 6 0.825884 0.084511 0.140218 -3 0 3 
6414 5 0.833603 0.0611784 0.124179 1 0 2 
6570 6 0.929764 0.0438429 0.140341 1 5 5 
7366 6 0.437315 0.110585 0.121065 -1 -1 5 
6848 5 0.569243 0.121336 0.117597 -2 -2 1 
8116 5 0.461166 0.145705 0.181204 -3 1 -1 
7484 6 0.525435 0.138046 0.163256 1 -3 -3 
6370 5 0.733864 0.157207 0.158523 1 -4 -3 
8207 5 0.0595847 0.177757 0.178971 0 -1 -3 
8303 6 0.461015 0.139289 0.150727 -4 -3 2 
8802 5 0.703937 0.171919 0.136408 -6 3 1 
7104 5 0.717227 0.168671 0.148123 1 1 2 
8043 6 0.683285 0.208063 0.190872 2 1 4 
5207 6 0.258081 0.192292 0.138695 1 0 0 
5148 5 0.34572 0.170169 0.150066 -1 3 0 
6852 6 0.419362 0.220611 0.15129 -1 -2 -4 
7994 5 0.554251 0.182809 0.153292 0 -2 6 
5998 5 0.445399 0.195849 0.142253 -2 -4 -3 
6959 6 0.105381 0.184174 0.149486 -1 1 3 
7163 6 0.936183 0.23839 0.13945 -1 5 3 
5806 6 0.103779 0.311654 0.0975911 2 1 1 
8787 6 0.776463 0.282978 0.173494 2 -2 -2 
6038 6 0.822316 0.254805 0.167264 -2 1 -2 
8567 6 0.950994 0.24437 0.163193 4 -5 4 
8902 6 0.0241581 0.286711 0.120412 3 1 3 
7236 6 0.515494 0.285519 0.110425 -2 0 -3 
8481 6 0.887609 0.257944 0.108521 -1 0 4 
8784 5 0.684543 0.319632 0.14743 1 3 4 
6059 5 0.0646729 0.334969 0.121218 2 -4 2 
8684 5 0.110003 0.350019 0.15416 -2 -1 0 
5598 5 0.114186 0.339866 0.164111 2 4 2 
8506 5 0.375876 0.280642 0.145467 -2 0 -2 
5085 5 0.148443 0.394337 0.159915 -1 4 1 
6029 6 0.418599 0.372301 0.16726 1 0 3 
8600 6 0.552507 0.370715 0.132945 -4 -3 5 
5131 5 0.883848 0.359346 0.140559 5 -4 -1 
8985 6 0.961384 0.388923 0.14674 -1 0 6 
7983 6 0.982296 0.376639 0.146741 0 5 -3 
6344 6 0.338366 0.416784 0.172976 -3 5 -5 
6162 5 0.124201 0.426907 0.145096 4 0 -4 
7227 6 0.317853 0.429516 0.127473 2 -2 -1 
5010 6 0.457536 0.419353 0.183448 0 2 2 
8760 6 0.241308 0.434196 0.156904 1 4 5 
8031 5 0.4338 0.444339 0.15896 0 0 2 
6492 6 0.425812 0.451943 0.171579 0 0 -1 
8543 6 0.637807 0.45838 0.14009 5 5 -4 
7149 5 0.961402 0.491014 0.164992 -1 0 1 
7786 6 0.261421 0.516938 0.161173 4 -1 -4 
5645 6 0.598358 0.505694 0.166674 -7 -2 4 
8165 6 0.641251 0.519797 0.129875 -1 2 2 
8277 5 0.759425 0.52524 0.143489 4 -5 -1 
5289 6 0.850416 0.528265 0.158136 -2 -2 5 
5965 5 0.0731313 0.543578 0.15329 -3 1 2 
8719 5 0.792122 0.54766 0.186195 2 -3 -1 
7064 5 0.460248 0.614032 0.182986 2 -1 2 
5489 6 0.486627 0.591139 0.159876 -1 3 -3 
8409 6 0.821103 0.608705 0.146809 -3 2 -3 
5669 6 0.105157 0.618147 0.132566 2 5 8 
8640 5 0.915888 0.602865 0.148967 -1 2 2 
7795 5 0.281133 0.6665 0.135085 1 -2 1 
8452 6 0.293535 0.645519 0.141272 0 1 -3 
6572 5 0.192109 0.693637 0.153953 6 -2 0 
7610 6 0.350982 0.71237 0.1663 2 0 -1 
5011 5 0.897636 0.704729 0.165272 -2 -5 6 
8375 6 0.311357 0.72084 0.0704244 2 -1 1 
6958 5 0.81102 0.725585 0.165959 1 -3 -1 
5154 5 0.49291 0.728249 0.130254 0 -2 0 
7572 5 0.579388 0.751372 0.177373 5 -1 1 
5694 5 0.904742 0.745178 0.155256 0 -3 1 
6793 5 0.0665694 0.835661 0.137692 3 2 3 
7546 5 0.567402 0.783554 0.18735 -4 3 -3 
7303 6 0.653118 0.828197 0.171208 -1 -2 1 
7044 6 0.749314 0.805606 0.16575 0 0 1 
5773 6 0.860786 0.780247 0.149774 -1 -2 2 
5185 6 0.257104 0.849871 0.147737 -2 -5 3 
6123 6 0.385101 0.842783 0.142156 -1 2 2 
8142 6 0.544425 0.84841 0.13488 3 1 6 
7511 6 0.62947 0.877721 0.143402 0 -4 1 
6039 6 0.197789 0.872595 0.126134 2 1 2 
7018 5 0.413034 0.878108 0.170129 3 2 0 
5143 5 0.541131 0.920828 0.118862 2 1 1 
5643 6 0.574302 0.875377 0.162169 1 -6 -4 
8556 6 0.852713 0.860164 0.158896 0 -1 2 
6777 5 0.983997 0.869891 0.13932 -1 2 0 
6979 5 0.44219 0.904568 0.11544 -5 -5 -2 
8010 6 0.809491 0.89018 0.129852 -3 -8 -2 
5415 6 0.93346 0.883182 0.124179 4 -3 -6 
8384 6 0.236671 0.908058 0.132401 -2 2 0 
8115 5 0.918694 0.928052 0.156836 -2 2 1 
5582 6 0.953127 0.943275 0.134173 0 5 0 
8561 5 0.114595 0.992837 0.152154 3 -2 -2 
8978 6 0.482054 0.958996 0.225637 1 2 2 
5286 5 0.662171 0.996278 0.139236 0 4 -3 
6878 6 0.843858 0.000302706 0.175955 -1 1 4 
7069 6 0.929259 0.974159 0.166219 3 -1 3 
7594 5 0.952882 0.972154 0.151727 2 -2 5 
6740 6 0.364409 0.0224423 0.158951 -4 -2 1 
8271 6 0.0747303 0.0452862 0.157856 -2 5 -4 
8176 6 0.467668 0.0342744 0.150122 6 -2 0 
7261 5 0.0496204 0.0640168 0.162797 1 -2 -4 
5782 5 0.628871 0.122998 0.157354 2 1 1 
6829 6 0.8249 0.104504 0.169034 0 -1 4 
7826 6 0.885363 0.0777277 0.164229 1 -1 -1 
8937 5 0.38872 0.148265 0.187477 -3 4 5 
8199 6 0.559184 0.144381 0.163722 0 -3 2 
5360 6 0.871129 0.145833 0.164011 1 3 0 
7042 6 0.956882 0.14186 0.150495 -4 -5 2 
6397 5 0.121375 0.129626 0.203457 2 -6 3 
8671 6 0.401486 0.136121 0.167008 -4 -1 -2 
6316 6 0.547662 0.167232 0.211249 -2 7 3 
5352 5 0.820279 0.210807 0.152018 1 7 2 
7458 6 0.137562 0.200941 0.194409 -1 4 1 
5833 6 0.191638 0.176498 0.145002 -2 1 0 
8392 5 0.382295 0.217569 0.160614 1 0 0 
6646 6 0.199048 0.234674 0.177836 -3 1 3 
8550 6 0.627582 0.25401 0.164174 0 3 -2 
7359 5 0.00993751 0.255541 0.163618 -4 -6 2 
7824 5 0.0681112 0.242519 0.145731 1 -1 2 
6578 6 0.501522 0.26187 0.153582 -1 5 -2 
8396 6 0.247799 0.295149 0.163501 3 0 -1 
6813 5 0.296589 0.254421 0.198991 0 1 3 
8808 6 0.0104249 0.311266 0.171807 0 3 4 
6965 6 0.374602 0.314085 0.17667 2 -3 -4 
7990 6 0.352746 0.299812 0.175531 3 -1 -1 
7178 6 0.577202 0.275397 0.162462 -2 0 5 
8656 5 0.682056 0.27996 0.141441 -3 3 3 
5029 6 0.736777 0.3303 0.161261 0 -4 4 
6247 6 0.780354 0.354876 0.173088 -2 -2 2 
8426 5 0.236504 0.379405 0.143699 1 0 2 
6664 6 0.56279 0.392351 0.143803 4 -4 2 
6127 5 0.978626 0.357598 0.161437 -2 -4 3 
8753 6 0.639385 0.390538 0.195305 -3 0 1 
6982 5 0.587783 0.47482 0.171453 -2 1 -3 
8179 6 0.74413 0.401036 0.150856 1 0 1 
7336 6 0.086087 0.441689 0.148527 0 -2 -3 
5330 6 0.0955327 0.45121 0.182201 0 3 0 
8387 5 0.52486 0.478149 0.174132 6 -2 0 
6329 6 0.758288 0.474677 0.202335 -6 -1 -2 
5997 5 0.932512 0.46983 0.201342 -3 4 0 
8191 6 0.171926 0.509113 0.225349 -8 -2 4 
5580 6 0.366212 0.481215 0.209673 -2 3 -1 
7792 5 0.820904 0.496716 0.141382 -7 -3 -1 
8581 6 0.586008 0.550894 0.1646 0 -2 2 
7114 6 0.0716988 0.531724 0.188214 0 0 6 
5807 5 0.13517 0.536336 0.19887 -1 -1 3 
6451 5 0.661084 0.527041 0.199456 3 3 -2 
6122 6 0.276519 0.557906 0.150979 0 0 -5 
5906 6 0.662037 0.57182 0.186014 -1 0 1 
5015 5 0.274037 0.573545 0.149835 -1 -6 0 
7134 5 0.806295 0.572083 0.184528 1 1 1 
6750 6 0.0245546 0.613148 0.169667 -1 0 0 
6606 6 0.289434 0.617289 0.147986 -1 1 1 
8288 5 0.457708 0.615082 0.195551 2 -2 3 
6511 5 0.920385 0.601025 0.186553 -2 3 -1 
5340 6 0.139771 0.602726 0.195377 -2 -2 2 
5338 6 0.300624 0.674982 0.167132 7 -2 -3 
7932 6 0.221262 0.718778 0.164842 -1 -1 1 
5402 6 0.797325 0.703591 0.150152 -2 1 4 
5673 6 0.916428 0.685173 0.170489 0 -3 -3 
7169 6 0.094817 0.754818 0.184974 3 0 -2 
6670 5 0.574131 0.82532 0.196128 1 0 -3 
8607 6 0.100033 0.811128 0.158414 4 2 -7 
6447 6 0.115376 0.792634 0.1359 -2 1 -4 
5741 5 0.171974 0.855334 0.141347 -3 -2 1 
6807 6 0.298597 0.863053 0.18553 3 -7 1 
6172 6 0.417067 0.835905 0.185193 -2 -1 0 
8511 5 0.63662 0.854686 0.185687 4 -2 1 
6084 5 0.197242 0.873069 0.170535 -2 -4 2 
7637 6 0.551639 0.876312 0.173966 -2 -3 4 