ITEM: TIMESTEP
20000000
ITEM: NUMBER OF ATOMS
9000
ITEM: BOX BOUNDS pp pp pp
-75 75
-75 75
-75 75
ITEM: ATOMS id type xs ys zs ix iy iz 
7198 6 0.120389 0.0245437 0.0256254 -3 -5 -3 
6989 6 0.214729 0.98945 0.0229969 1 -4 -3 
5755 6 0.897459 0.0349432 0.0324925 1 0 -4 
5830 5 0.945237 0.0406544 0.995965 -4 1 -5 
7637 5 0.964256 0.025098 0.0452109 -2 -2 3 
7890 6 0.264143 0.0908403 0.996647 0 3 -4 
7598 6 0.768885 0.0191654 0.0455186 4 0 -2 
6157 5 0.0814063 0.0599588 0.0170563 -1 1 4 
6369 5 0.841294 0.0478532 0.0215302 1 -2 3 
6816 5 0.95935 0.068084 0.0103872 -1 0 0 
8579 5 0.838955 0.101715 0.0372672 2 1 1 
8457 6 0.991462 0.0896593 0.0121798 1 -3 -2 
5712 6 0.20408 0.11906 0.0111059 0 -3 -3 
8098 6 0.316501 0.126579 0.990081 2 1 -2 
7361 6 0.71921 0.105117 0.987568 -3 2 -1 
8970 6 0.0536438 0.16434 0.995408 -1 3 -2 
5461 6 0.206807 0.194798 0.00254232 -4 -2 -2 
6426 5 0.370338 0.177898 0.978908 3 -5 2 
5037 6 0.640887 0.180044 0.0268405 2 -6 0 
8516 5 0.463211 0.261965 0.0102737 -1 -1 -1 
6786 5 0.443136 0.231003 0.0167234 3 3 2 
8850 5 0.876215 0.255248 0.0261242 1 0 -4 
7350 6 0.128526 0.231258 0.984011 -4 4 -3 
5509 6 0.784674 0.315424 0.0107348 1 -2 3 
7837 5 0.863806 0.258938 0.994384 -5 0 1 
6614 5 0.817804 0.283499 0.0212678 -2 1 -4 
5345 5 0.945095 0.232735 0.991683 -1 -1 2 
7374 6 0.441969 0.296798 0.0498735 5 -2 0 
8061 6 0.0521951 0.308459 0.026212 1 7 -2 
6829 5 0.50001 0.292165 0.0230199 -6 5 0 
8886 6 0.594353 0.34853 0.01691 1 8 -4 
8596 5 0.0203975 0.325355 0.0345208 -2 3 2 
8950 5 0.20018 0.373432 0.00761964 1 -1 -1 
5412 6 0.457344 0.35524 0.995809 1 -3 -1 
8651 5 0.870878 0.338656 0.0131414 3 -5 6 
6152 5 0.977625 0.400686 0.00739539 -1 5 -2 
5179 6 0.95052 0.375271 0.0592129 0 5 -4 
7718 5 0.98736 0.415587 0.0155236 0 1 -2 
7190 5 0.410817 0.376704 0.0151714 -1 -1 2 
8533 6 0.0174465 0.414905 0.992711 -5 -1 -3 
7683 6 0.232475 0.400969 0.00754596 2 1 1 
7710 5 0.311491 0.39412 0.0526903 0 -1 -4 
6975 6 0.515129 0.377555 0.0366919 5 -1 -1 
7766 5 0.724618 0.408395 0.0155491 -1 0 -3 
5453 6 0.327991 0.480441 0.0257308 1 -2 2 
7737 6 0.865816 0.501419 0.968847 -4 0 3 
6278 6 0.455167 0.470086 0.00224746 2 -3 2 
8849 6 0.242862 0.442931 0.981173 3 -1 0 
5565 6 0.734409 0.520964 0.995643 2 0 4 
6128 5 0.802291 0.521055 0.00660527 -2 -4 2 
5689 5 0.616688 0.525353 0.0201174 0 -2 -3 
6233 5 0.136437 0.540185 0.00169554 1 0 2 
6131 6 0.549293 0.555016 0.0286713 -6 0 -4 
5319 6 0.527895 0.634348 0.00332385 0 2 -1 
6867 5 0.656749 0.582157 0.0220506 2 -1 3 
7047 6 0.63819 0.664706 0.984425 6 2 -3 
8424 5 0.392801 0.626931 0.998435 -5 1 -3 
5524 6 0.383654 0.64671 0.0328871 4 3 2 
5270 6 0.894037 0.637857 0.01964 -4 0 1 
5778 5 0.218882 0.671031 0.995454 -3 -4 2 
7271 6 0.267876 0.721111 0.0435009 0 -4 -4 
8645 6 0.854345 0.670204 0.0367284 1 -1 -2 
6904 6 0.975499 0.697259 0.0183594 -7 -2 4 
7762 6 0.761401 0.710937 0.980016 3 0 2 
5184 6 0.120757 0.791783 1.00049 0 -1 -2 
6514 6 0.810071 0.764223 0.0490119 -6 -2 0 
5519 5 0.343831 0.748077 0.997623 0 -1 0 
8013 6 0.222517 0.813988 0.0383522 5 -3 1 
8515 5 0.527776 0.768397 0.026069 1 3 2 
8136 6 0.105822 0.841169 0.960512 4 4 -2 
5941 5 0.121974 0.834441 0.0382988 -1 1 -1 
8353 6 0.621939 0.850177 0.0185331 0 -4 9 
8953 6 0.84491 0.835936 0.963341 -1 -1 0 
6807 6 0.386064 0.818506 0.993919 0 0 -3 
6993 5 0.440494 0.832716 0.991509 2 0 2 
8421 6 0.691396 0.833885 0.0450239 2 -2 1 
8691 5 0.436309 0.88553 0.0491268 -2 3 1 
8410 5 0.71991 0.864508 0.0365095 2 6 3 
8271 6 0.198206 0.924914 0.0272939 -1 -5 0 
6307 6 0.73124 0.936715 0.991685 -4 2 3 
5331 6 0.181036 0.955726 0.0171049 1 -1 2 
7160 5 0.887411 0.906275 0.999624 -1 2 2 
8350 6 0.0885688 0.964447 0.993583 0 1 4 
8406 6 0.57389 0.930566 0.984836 -1 7 -4 
7036 6 0.675424 0.960965 0.0166584 3 1 1 
6640 6 0.745419 0.990734 0.997697 -4 5 1 
5622 5 0.886873 0.0329199 0.0613715 0 5 3 
6631 6 0.528081 0.0132746 0.0571385 -5 3 0 
8960 6 0.315483 0.0493561 0.0710255 0 4 4 
8074 6 0.674476 0.0410387 0.0346301 -4 -2 5 
8268 6 0.71402 0.0532974 0.0224105 3 2 2 
6139 5 0.895947 0.0865377 0.051133 -4 1 -1 
8536 6 0.0118237 0.085303 0.98594 0 0 1 
5718 6 0.376239 0.119193 0.0643437 -1 0 -1 
6728 6 0.943651 0.10653 0.0485946 -3 0 1 
7533 6 0.301444 0.128832 0.0443785 2 3 -1 
6156 5 0.89775 0.100325 0.058295 -4 2 -1 
7784 6 0.430067 0.143043 0.0189512 2 -1 -5 
5173 5 0.507189 0.123443 0.0422124 0 1 6 
5119 6 0.131791 0.158721 0.0246292 -1 -1 0 
6135 5 0.225848 0.202389 -0.000430526 -3 3 -3 
6743 6 0.407554 0.211936 0.03759 -1 3 4 
5272 6 0.148804 0.22424 0.0650472 6 -4 -2 
8861 6 0.167497 0.218969 0.012368 0 -1 3 
8096 5 0.589088 0.272915 0.0776223 3 -4 1 
8584 6 0.799402 0.243306 0.0402446 -3 -2 0 
6645 6 0.997506 0.219388 0.0191272 -2 -1 -8 
6496 6 0.975293 0.28096 0.0399139 0 0 0 
6388 6 0.0551855 0.296813 0.0335145 -3 0 1 
6446 5 0.632866 0.270272 0.0233738 2 5 3 
5787 6 0.646722 0.317961 0.0104636 -2 3 4 
7967 6 0.676437 0.3048 0.0570194 -2 -5 3 
6440 5 0.697944 0.322277 0.0372349 0 3 4 
5139 5 0.564122 0.328693 0.0660604 1 1 -2 
6792 5 0.671891 0.356995 0.0210604 -2 2 -4 
6115 5 0.695315 0.319002 0.0479933 -2 -5 -1 
6716 5 0.625404 0.375232 0.0221183 1 0 1 
8102 5 0.308948 0.369759 0.0598084 -2 2 1 
8885 6 0.389985 0.385713 0.0361052 1 -1 -2 
5013 5 0.611166 0.456605 0.00233702 -3 1 -2 
8434 5 0.298208 0.418269 0.0283302 -2 -1 0 
5294 6 0.304428 0.388479 0.0100007 -4 -5 1 
8745 6 0.00780628 0.437175 0.0351705 -2 2 3 
6725 5 0.227641 0.430548 0.0116562 2 2 -5 
7992 5 0.298761 0.437939 0.0431707 2 3 3 
8788 5 0.503573 0.445012 0.010742 -4 -3 3 
7280 5 0.651544 0.449815 0.0303379 1 3 0 
5472 5 0.424193 0.454325 0.0581274 -1 1 3 
5995 5 0.0323733 0.478898 0.0505585 -2 2 0 
5193 6 0.942658 0.483179 0.041173 4 6 4 
7316 5 0.984373 0.536065 0.0444572 -1 -2 1 
5003 5 0.00488542 0.535536 0.0218001 2 -3 -1 
7953 5 0.565014 0.536092 0.0577414 1 0 -2 
5124 5 0.655192 0.532444 0.0205306 -2 0 2 
7925 6 0.652887 0.544739 0.0456481 -6 2 4 
6333 6 0.427285 0.575891 0.0019374 -1 -1 -4 
5082 6 0.911042 0.542685 0.0177483 -2 2 -3 
5900 6 0.212172 0.573138 0.0434881 -1 0 -3 
8378 5 0.0858981 0.627578 0.0465016 3 -2 0 
6937 5 0.311026 0.702228 0.0276023 4 -4 -1 
5073 6 0.666285 0.698126 0.0405657 -2 -2 -3 
6717 6 0.733914 0.729892 0.0751699 2 -2 -2 
5535 6 0.271091 0.726756 0.0466838 5 -4 0 
8829 6 0.556551 0.775559 0.0650477 -1 -1 3 
7928 5 0.666871 0.729728 0.0407717 -5 4 2 
7103 5 0.338096 0.700791 0.0242998 -2 4 0 
7234 6 0.0641138 0.750749 0.0678845 2 -4 3 
5063 6 0.28427 0.801104 0.0316928 3 2 -4 
8042 5 0.666676 0.765913 0.071563 7 3 3 
7429 6 0.80916 0.762556 0.0167288 -1 0 5 
5833 6 0.325703 0.825579 0.0387497 -5 -4 2 
8585 6 0.0826388 0.835105 0.0362106 3 1 0 
8591 5 0.979795 0.850812 0.0525613 -3 1 -1 
7841 5 0.668315 0.860234 0.033212 1 0 -8 
8312 6 0.937345 0.857846 0.022559 -3 -3 1 
5998 6 0.613105 0.877227 0.0333534 2 -3 0 
6097 5 0.153886 0.918901 0.0283681 3 -5 -1 
5020 6 0.108876 0.890003 0.00524758 8 2 1 
7734 5 0.492579 0.956018 0.0332091 3 -3 -1 
5275 5 0.7748 0.899488 0.00601219 -3 4 -1 
7980 6 0.743175 0.894623 0.0326432 2 1 2 
6096 5 0.939895 0.944124 0.026851 2 -2 -1 
8323 5 0.867296 0.946226 0.0100698 -3 -2 -3 
7081 5 0.165584 0.00120324 0.0182479 0 0 -3 
6151 6 0.209354 0.0143519 0.0412454 3 -1 -2 
7353 6 0.58363 0.976474 0.02153 3 -2 7 
6310 6 0.39429 0.99031 0.063544 1 2 0 
7729 6 0.846735 0.99286 0.0604063 1 0 -3 
7375 5 0.949879 0.0351024 0.0567863 0 4 -3 
6760 5 0.606662 0.0566965 0.0404299 -2 4 -4 
7836 5 0.70052 0.0454576 0.0716082 -1 1 0 
7366 6 0.169455 0.0391983 0.0688124 0 -1 2 
7721 6 0.200236 0.0593506 0.0620174 -1 0 3 
5295 6 0.25506 0.0508052 0.0570299 -2 0 3 
5636 6 0.5752 0.0759997 0.0713098 -1 -1 -1 
5772 6 0.196898 0.0913023 0.0542787 0 -1 1 
6810 6 0.309502 0.120842 0.0475532 0 -3 3 
7501 6 0.388664 0.107557 0.102556 0 3 -4 
6224 5 0.631562 0.10417 0.0257799 1 2 -4 
7096 5 0.49579 0.140759 0.0346079 -4 -2 -2 
8948 6 0.531147 0.128626 0.0784316 3 0 1 
6671 6 0.567071 0.143846 0.0509621 -1 0 -8 
7464 5 0.850813 0.134753 0.0457459 -2 5 -1 
8073 6 0.020671 0.200236 0.0381885 -1 1 1 
6014 5 0.3135 0.206105 0.0990798 2 6 5 
7982 6 0.453734 0.209157 0.0357858 0 5 -6 
5114 6 0.0473952 0.214939 0.0361127 2 0 4 
5459 5 0.730997 0.195941 0.0569755 -1 5 -6 
6089 5 0.189778 0.207887 0.0748272 -1 2 3 
7757 5 0.497367 0.269056 0.0990436 -4 2 0 
6024 5 0.139272 0.242181 0.0516812 0 0 -5 
5083 5 0.282714 0.281303 0.0532156 3 3 4 
8863 6 0.319541 0.263493 0.0573664 -2 0 -6 
8577 5 0.826236 0.223648 0.100635 -2 -5 1 
5582 6 0.255017 0.242845 0.0544355 -3 -5 7 
8903 5 0.115833 0.276966 0.0782795 0 1 6 
8441 5 0.546386 0.350451 0.0341743 2 1 2 
8551 5 0.0405159 0.380968 0.0748645 -4 1 -3 
6775 5 0.605156 0.44855 0.0374621 -3 0 -2 
6396 5 0.70949 0.4035 0.0660531 1 -3 2 
7260 5 0.7959 0.411887 0.0470484 6 -4 -2 
5895 5 0.113994 0.46709 0.067388 0 0 -5 
8429 5 0.0895529 0.46011 0.0686809 -1 -2 -1 
7720 6 0.799665 0.468776 0.0824722 0 7 -2 
7019 5 0.00535434 0.506052 0.0278447 -11 0 2 
7957 6 0.0153199 0.538567 0.0325041 1 -1 1 
5842 6 0.652853 0.538098 0.107719 -7 5 0 
5022 6 0.672939 0.549815 0.0512211 8 1 0 
7570 6 0.359794 0.572149 0.0593059 -3 -3 -2 
6338 5 0.203011 0.531704 0.0314823 -1 4 0 
5014 6 0.369162 0.597827 0.0596228 1 -1 3 
7441 6 0.605151 0.559162 0.0691289 -2 2 1 
8599 5 0.747131 0.575119 0.0241953 -5 3 1 
7306 5 0.783213 0.516164 0.0662641 -4 1 -1 
7277 5 0.0535578 0.578782 0.0683168 0 2 5 
6411 6 0.724152 0.627039 0.0924037 -3 0 -4 
5496 6 0.838508 0.624724 0.0308623 8 1 -1 
8764 6 0.320659 0.674206 0.0912667 3 -1 3 
7898 6 0.159783 0.688883 0.0678123 -3 -4 1 
8091 6 0.407065 0.653023 0.0335004 3 0 4 
6899 5 0.438438 0.675215 0.0557107 3 -4 0 
6946 6 0.912802 0.689117 0.0854149 0 2 0 
5298 6 0.501869 0.717025 0.0727092 3 -2 -5 
6796 6 0.698057 0.710094 0.0485506 2 1 0 
7215 5 0.976755 0.711894 0.0722833 2 -6 -1 
8809 6 0.613616 0.747788 0.0489557 -3 3 -3 
5805 6 0.783481 0.718693 0.0279668 -1 0 -1 
8316 6 0.938342 0.725576 0.0450616 2 -1 1 
8940 5 0.607003 0.74732 0.0316255 0 -2 2 
6644 5 0.778991 0.779687 0.0294074 -1 3 4 
7995 6 0.740997 0.758899 0.975657 0 -2 3 
7272 6 0.814379 0.787353 0.017762 0 -3 1 
6546 5 0.165248 0.835787 0.0622428 1 -1 4 
7048 5 0.387133 0.809953 0.0202371 -4 0 3 
8535 5 0.562312 0.793864 0.0418149 -1 1 -2 
5538 5 0.644042 0.828828 0.0792934 -2 -4 4 
5178 6 0.11983 0.826306 0.0597297 0 -2 3 
8614 6 0.366218 0.816321 0.077712 1 -3 0 
6341 5 0.21485 0.852924 0.0820413 -2 1 -2 
6809 6 0.618206 0.862651 0.029048 1 1 -1 
8984 5 0.72533 0.821879 0.0811868 2 3 4 
8163 6 0.262491 0.875154 0.0778684 0 1 1 
7055 5 0.364813 0.864921 0.0576786 -4 3 1 
5926 5 0.217482 0.906927 0.00672207 2 7 -2 
5380 6 0.400262 0.899194 0.040649 0 1 -2 
7367 6 0.536026 0.872731 0.0384711 5 1 1 
7254 5 0.599181 0.867692 0.0656926 -2 -1 4 
8790 5 0.0836521 0.947256 0.0839403 3 -4 0 
7225 5 0.472245 0.946321 0.0442697 0 0 5 
5918 5 0.772828 0.984915 0.00771535 -1 -1 5 
5526 5 0.717566 0.927819 0.0628523 0 3 -5 
6337 5 0.734715 0.00703293 0.0519224 -1 -1 -3 
6271 6 0.267485 0.0336745 0.0908685 -3 4 -1 
6248 6 0.097199 0.109973 0.105638 4 1 -1 
5500 5 0.800395 0.113815 0.0509187 0 0 -3 
6885 5 0.0568917 0.139168 0.0577247 -2 5 -3 
7400 6 0.352495 0.131809 0.0659042 2 -4 -4 
6986 5 0.450714 0.101652 0.0801356 -2 0 -2 
6497 5 0.600708 0.106514 0.0733215 -4 1 -2 
8201 6 0.235959 0.124242 0.0814634 4 2 -3 
5424 6 0.383534 0.177981 0.0669171 -4 -3 5 
5520 6 0.867228 0.125202 0.0989155 -3 -4 2 
8255 5 0.893818 0.138111 0.0529935 -3 2 -3 
8661 6 0.187885 0.182099 0.0432215 -5 5 3 
8390 6 0.389012 0.177324 0.0573546 -4 -3 0 
6802 6 0.383496 0.203337 0.0559035 1 1 -2 
7379 5 0.649866 0.200956 0.0883899 0 1 0 
6699 6 0.756037 0.204416 0.0539368 -3 3 8 
8546 6 0.976452 0.24123 0.0961146 -2 0 -3 
5913 5 0.688398 0.231988 0.068696 -3 -5 4 
8830 6 0.289503 0.369355 0.0976599 -2 4 0 
7124 5 0.301253 0.33534 0.0988064 -5 -2 -1 
7018 5 0.789693 0.317351 0.0843999 2 4 2 
7864 6 0.330498 0.327815 0.0903333 0 3 1 
8569 6 0.563638 0.396088 0.0826683 1 -1 1 
6344 5 0.692539 0.357931 0.10388 -1 -3 -3 
5846 6 0.860747 0.365122 0.0505951 -2 2 1 
5555 6 0.653986 0.403599 0.0549213 0 6 -1 
5848 6 0.10611 0.439425 0.0803864 1 -3 -2 
6321 6 0.180415 0.420067 0.0678911 2 2 -2 
5393 5 0.900574 0.499503 0.0479376 0 -1 2 
7657 6 0.93536 0.432857 0.0838949 -2 1 -6 
8048 5 0.246654 0.469148 0.0978463 1 -2 5 
5333 6 0.560507 0.470189 0.07096 3 0 5 
6300 5 0.6667 0.504226 0.0844352 0 -3 2 
6683 5 0.871702 0.496091 0.0659667 -2 2 3 
5694 5 0.881653 0.473996 0.0792996 -5 6 -6 
7522 5 0.659175 0.506798 0.0997761 -4 -2 -3 
5947 5 0.18405 0.518243 0.112055 -1 2 4 
6641 5 0.505995 0.521178 0.0942553 0 0 3 
6001 5 0.6518 0.554972 0.0568491 2 0 3 
7444 6 0.38035 0.574028 0.0990316 5 -5 -1 
8024 5 0.342303 0.549988 0.0844241 0 4 0 
8422 5 0.557039 0.617531 0.088917 -5 -2 2 
8751 5 0.125206 0.58481 0.0609137 -3 -1 0 
6727 6 0.0122963 0.604703 0.100102 -5 2 -3 
6351 6 0.404531 0.626103 0.0996506 -1 3 -2 
5211 5 0.421009 0.616594 0.0634151 2 1 0 
8796 6 0.577531 0.612045 0.0909045 -1 -2 0 
7074 6 0.615731 0.620037 0.110927 2 3 1 
8275 6 0.919194 0.650884 0.0842822 0 -5 1 
7838 5 0.912143 0.600246 0.0992052 3 1 -2 
5629 5 0.222493 0.661075 0.0474831 -2 1 -5 
7681 5 0.305781 0.623981 0.0817242 -1 0 1 
6710 6 0.888955 0.661206 0.0689401 -4 2 0 
6578 5 0.468594 0.705555 0.0458193 3 -5 -2 
7415 6 0.837661 0.701942 0.0794572 -3 -2 -3 
6968 6 0.675718 0.709883 0.0533827 -4 -5 2 
5671 6 0.475234 0.791703 0.0920334 1 -2 3 
7360 5 0.0304331 0.73989 0.108725 5 -2 -3 
6272 6 0.916397 0.794009 0.0805322 0 1 0 
7677 6 0.303812 0.787029 0.0990851 1 1 -1 
5363 5 0.656817 0.754852 0.0494638 2 -3 -4 
6888 5 0.592208 0.795535 0.0807853 -2 0 3 
7318 5 0.565485 0.81162 0.0945094 1 -3 3 
8997 5 0.945539 0.800189 0.0838824 -1 3 0 
8588 6 0.990569 0.892497 0.061506 -2 2 0 
8594 5 0.0981355 0.877471 0.0870751 1 3 3 
5826 5 0.642934 0.864174 0.0573898 -1 2 -1 
8222 6 0.044845 0.912667 0.0741761 -1 -2 1 
6619 6 0.431878 0.920331 0.110784 -2 -3 1 
6858 6 0.210811 0.023243 0.0940804 0 -2 -1 
8801 6 0.275627 0.995844 0.060215 1 -5 1 
6966 5 0.607444 0.942672 0.0747974 0 -6 5 
8120 6 0.998388 0.0168512 0.074584 0 6 -2 
6000 6 0.458457 0.0569598 0.0898736 -4 2 -1 
5801 6 0.627703 0.0474848 0.0893579 -1 -5 3 
7146 6 0.589684 0.0519436 0.0963054 -2 -3 -3 
6051 6 0.372347 0.0624962 0.0967226 0 -2 -2 
7728 5 0.411365 0.146492 0.101789 0 3 0 
5590 6 0.432797 0.0982489 0.0913043 1 1 -3 
7819 6 0.612996 0.124247 0.0731561 -6 -1 -5 
5653 6 0.857704 0.0962192 0.0829352 1 3 -4 
8100 5 0.973148 0.129759 0.088557 -2 -3 8 
6012 6 0.976273 0.119787 0.113184 0 1 3 
6068 5 0.138093 0.16705 0.109269 0 0 -1 
6681 5 0.880803 0.153438 0.0958164 -3 4 4 
5122 5 0.406679 0.222782 0.12065 0 -2 0 
6715 5 0.559619 0.235106 0.122245 -1 -3 0 
6468 6 0.349588 0.281171 0.125921 -1 -3 0 
7849 6 0.369571 0.277651 0.106616 3 -2 1 
6381 5 0.873916 0.271156 0.102361 -5 4 1 
7702 5 0.709835 0.331329 0.109673 3 -2 0 
5379 5 0.917212 0.325827 0.119889 1 1 0 
7810 5 0.00700973 0.32807 0.0569487 4 4 1 
6082 6 0.388243 0.37725 0.128346 0 4 1 
5570 5 0.124785 0.415922 0.0929464 0 -3 -2 
6925 5 0.407892 0.420626 0.0971179 1 -3 3 
6483 5 0.80333 0.429474 0.0968284 -2 0 1 
7169 6 0.460651 0.446662 0.116422 -2 3 3 
8167 6 0.806423 0.422958 0.110484 1 1 2 
7674 6 0.346399 0.452098 0.149071 4 -4 1 
7736 5 0.611793 0.477468 0.101958 3 0 1 
6297 5 0.219875 0.581327 0.0967106 6 -2 0 
6736 6 0.545684 0.546106 0.0892609 0 0 2 
6510 6 0.894808 0.530597 0.0948173 -2 2 0 
5713 6 0.128525 0.614303 0.0947727 -1 0 6 
6754 6 0.536431 0.573883 0.127428 3 -4 1 
7575 6 0.355905 0.606084 0.0918702 6 1 3 
7904 5 0.862254 0.612848 0.0834131 3 0 3 
7670 6 0.915486 0.608582 0.0903686 2 1 2 
5851 5 0.431251 0.640537 0.111512 1 -2 4 
6164 5 0.0723984 0.627531 0.131022 0 -4 -1 
5195 6 0.4341 0.641962 0.078254 -2 1 2 
5951 5 0.359309 0.686696 0.124899 3 2 0 
6970 5 0.934917 0.6516 0.110457 -1 6 2 
8095 5 0.00531843 0.704329 0.0749161 1 1 4 
7817 6 0.96237 0.717276 0.0845737 0 -1 -4 
5045 5 0.598995 0.67106 0.114562 0 -3 -2 
8092 5 0.933717 0.746009 0.0898432 -4 -1 3 
6319 5 0.167786 0.760597 0.0641882 -10 1 6 
6309 5 0.198491 0.77698 0.124911 -1 3 1 
7663 6 0.432105 0.731683 0.0896531 -4 6 -1 
7299 6 0.645652 0.767559 0.115906 3 -1 -2 
6659 6 0.0799691 0.82139 0.0841472 -1 -2 4 
5166 5 0.18068 0.803672 0.107374 -3 -6 -2 
7420 6 0.944562 0.816573 0.10735 -1 4 -3 
8132 6 0.265943 0.831032 0.0854232 0 4 5 
8527 5 0.0764822 0.8078 0.109653 4 -2 -4 
5562 5 0.052273 0.878254 0.0940503 -1 0 -4 
5523 6 0.24751 0.852317 0.0994721 5 4 0 
8206 5 0.459023 0.880957 0.137761 -4 -2 2 
6673 6 0.890946 0.878661 0.0917515 -2 3 -1 
5752 6 0.625004 0.875382 0.0921284 -2 -3 3 
5944 6 0.993118 0.873056 0.0920052 -2 -1 1 
6923 5 0.521773 0.881985 0.106206 -1 -1 2 
8479 5 0.576998 0.939096 0.0920352 0 -3 2 
5549 6 0.720016 0.927424 0.0957312 -1 -4 1 
8444 6 0.604649 0.973146 0.106588 0 -1 3 
5359 5 0.920251 0.942436 0.105365 3 0 -1 
8766 5 0.413087 0.990541 0.103832 7 3 2 
8394 6 0.726977 0.964668 0.11487 -5 -3 7 
7200 5 0.179342 0.989553 0.121083 1 1 4 
5705 5 0.899366 0.0466459 0.117424 4 -1 4 
8445 6 0.340255 0.0214187 0.150079 7 3 1 
8374 6 0.171958 0.0381604 0.134908 -2 2 -1 
6221 5 0.661662 0.106562 0.136583 0 0 2 
7581 5 0.746314 0.113547 0.163651 -6 0 0 
7303 5 0.911237 0.121927 0.115168 2 2 0 
8173 5 0.201102 0.187552 0.123479 -4 0 -1 
6846 5 0.540939 0.172088 0.137381 2 4 2 
7822 5 0.813983 0.178442 0.129398 0 4 5 
8428 6 0.0278839 0.201489 0.135152 2 4 0 
5036 6 0.0545978 0.169153 0.127655 2 -5 0 
7948 5 0.488544 0.238952 0.130687 -2 6 -3 
6749 6 0.290749 0.210212 0.0944507 0 3 1 
6054 5 0.151518 0.244358 0.0864445 1 1 -5 
5560 6 0.275796 0.251608 0.113922 1 -1 -4 
8211 5 0.719413 0.235013 0.12386 -6 2 -1 
5886 6 0.793643 0.203328 0.132286 -5 1 -1 
5120 6 0.241931 0.296474 0.163005 4 0 -2 
6110 5 0.984456 0.25841 0.132845 2 -4 -6 
8108 6 0.598452 0.280568 0.0943697 1 -2 3 
5196 5 0.0740299 0.303371 0.139186 1 -2 2 
5660 5 0.231165 0.356263 0.1132 4 5 -1 
7240 6 0.0911278 0.367651 0.097732 -5 1 1 
8081 5 0.371735 0.342631 0.113573 -2 -6 1 
7001 5 0.932336 0.409566 0.123591 -3 3 -3 
5322 5 0.960377 0.363063 0.142527 -8 3 -1 
7881 5 0.0079107 0.395751 0.0970797 -5 2 -5 
6933 5 0.424791 0.391372 0.111062 6 0 -2 
8382 6 0.661843 0.385564 0.134898 -1 0 4 
5603 6 0.991708 0.431127 0.158565 -4 0 1 
7487 5 0.163996 0.445363 0.0906458 -1 -2 1 
6331 6 0.691397 0.439316 0.118543 -4 -3 -1 
8291 5 0.391886 0.464376 0.112223 -6 0 -3 
6962 5 0.513929 0.454588 0.133684 -1 -3 2 
7395 6 0.106798 0.487614 0.112206 1 1 2 
5536 6 0.0371358 0.530101 0.0942991 0 3 -1 
6516 6 0.245854 0.561351 0.11569 -2 1 -3 
5695 6 0.641018 0.537443 0.0953922 3 4 -3 
7799 6 0.500568 0.559956 0.14787 -1 -3 -1 
6119 6 0.511576 0.575142 0.131141 0 0 4 
7573 6 0.588318 0.616672 0.103783 7 -2 0 
7712 5 0.799911 0.650881 0.115759 -6 3 -3 
8688 6 0.394539 0.644592 0.0830277 2 1 -3 
8062 6 0.162298 0.727514 0.126087 -1 -1 -2 
6655 5 0.760464 0.653646 0.127981 -1 -1 0 
8087 6 0.0785403 0.701088 0.14167 -1 -1 -2 
5518 5 0.195437 0.703268 0.107354 0 0 0 
6833 6 0.755047 0.685637 0.112519 -2 -7 0 
6277 6 0.0459647 0.72732 0.106587 -1 -1 -3 
5950 6 0.0371388 0.724088 0.155207 1 -1 5 
7794 6 0.790405 0.735095 0.122247 4 -3 -3 
7394 5 0.811055 0.765884 0.143886 1 -1 2 
6652 6 0.94575 0.768857 0.0955002 2 -4 2 
5844 6 0.0421222 0.831449 0.14553 2 -1 -5 
6448 5 0.4747 0.791888 0.1336 4 2 4 
7002 5 0.965364 0.843739 0.116003 1 -2 0 
5370 5 0.112955 0.842392 0.104848 -1 -3 -3 
7469 5 0.0461255 0.867845 0.119972 -4 -4 2 
5388 5 0.192684 0.856589 0.144975 2 2 0 
7730 5 0.297729 0.821929 0.145385 2 -7 2 
7820 5 0.213163 0.855542 0.123614 -7 -1 1 
8301 5 0.924638 0.835674 0.132741 6 -1 -1 
6667 5 0.418774 0.869403 0.114863 -3 1 -1 
7860 6 0.840745 0.908991 0.116104 -2 1 -1 
8943 5 0.0506096 0.970062 0.122887 3 2 -2 
8145 6 0.2014 0.913098 0.133838 -3 2 -2 
5254 6 0.254115 0.940701 0.142531 1 1 -2 
6680 5 0.39275 0.962574 0.125734 3 1 5 
6714 5 0.461333 0.945994 0.114334 4 1 0 
8053 5 0.453318 0.933963 0.126358 -3 2 0 
8388 6 0.527856 0.966016 0.127679 -2 -2 -7 
6793 5 0.521538 0.970876 0.0748363 0 4 4 
6288 6 0.443784 0.980213 0.134917 -4 -2 4 
5553 6 0.187744 0.0544001 0.160155 1 -4 -2 
8700 5 0.989357 0.00447852 0.15584 0 0 2 
8168 6 0.0977234 0.0590401 0.1393 1 2 -3 
7586 6 0.610527 0.0344251 0.152822 -1 -1 -1 
5623 5 0.855863 0.0628168 0.141708 1 1 -3 
7808 5 0.344047 0.0728531 0.161734 -5 -3 -4 
6436 6 0.772319 0.0724349 0.177654 3 -2 -5 
8243 6 0.352415 0.124141 0.143744 -2 -6 2 
5150 6 0.974488 0.151495 0.146771 -4 -4 0 
6215 6 0.727611 0.159943 0.116473 0 0 7 
6004 5 0.775165 0.145263 0.143421 6 5 -1 
6183 5 0.0640051 0.228846 0.179636 -7 1 3 
8502 6 0.0299287 0.213988 0.190458 1 1 -1 
8118 6 0.821217 0.207104 0.165068 -5 -2 2 
8608 6 0.934567 0.160692 0.175367 0 1 -1 
5456 6 0.991515 0.273906 0.126118 2 -3 2 
7167 6 0.218201 0.222422 0.15458 1 -1 -3 
8593 6 0.100606 0.299684 0.119012 -3 -1 2 
7839 6 0.707917 0.319425 0.144866 -4 -1 0 
7127 5 0.811627 0.295829 0.15698 6 4 0 
8184 6 0.030734 0.343274 0.136318 4 1 0 
6274 5 0.314957 0.341386 0.137694 1 0 4 
7073 5 0.472214 0.395464 0.0881896 -4 1 -3 
6005 6 0.755503 0.331618 0.131541 0 0 -1 
8056 6 0.40694 0.353216 0.167854 4 1 0 
8747 5 0.8699 0.37309 0.1528 -1 3 -3 
7161 6 0.104136 0.402107 0.156305 4 -1 0 
8620 6 0.534373 0.373618 0.145958 -2 -2 1 
7347 5 0.7793 0.396148 0.15348 -5 2 2 
8063 6 0.546397 0.371482 0.151908 -6 4 -5 
5595 6 0.869623 0.390782 0.162166 1 1 2 
5883 5 0.859723 0.42187 0.165277 1 -1 3 
5136 5 0.423235 0.449285 0.111537 -2 -2 0 
8767 6 0.101499 0.509326 0.196419 -3 0 0 
7267 6 0.57778 0.50525 0.136077 2 2 0 
7345 5 0.621263 0.556986 0.131465 1 -5 1 
6908 5 0.226673 0.622304 0.148034 -3 -5 -3 
8269 5 0.285152 0.614133 0.171501 0 -3 6 
5723 6 0.296595 0.59907 0.136644 7 -6 -2 
8550 5 0.0674283 0.673601 0.151954 -2 -1 0 
7142 6 0.125198 0.682142 0.15611 -4 0 -1 
5717 6 0.862506 0.666847 0.1243 4 2 1 
5611 6 0.137953 0.70367 0.114068 1 3 -1 
7550 5 0.409244 0.652301 0.175533 -3 1 0 
8002 5 0.0246688 0.715161 0.18103 2 -1 1 
5418 5 0.440934 0.730585 0.156194 2 1 0 
7135 6 0.670497 0.719112 0.137872 3 -3 4 
8944 6 0.764704 0.731998 0.14836 2 0 -2 
7131 5 0.0933318 0.767041 0.135782 -1 0 -4 
6384 6 0.931491 0.735397 0.152519 5 1 0 
5719 5 0.843475 0.740968 0.115919 1 2 5 
6977 5 0.327002 0.773319 0.18474 -2 3 1 
5831 5 0.355079 0.801045 0.153072 -1 -4 -4 
6334 6 0.679332 0.778244 0.135051 -5 3 0 
8038 6 0.905134 0.774988 0.135393 -4 -4 2 
8046 5 0.917054 0.790584 0.128305 1 0 -1 
7963 6 0.964209 0.854192 0.13165 1 2 -5 
7857 5 0.962751 0.861242 0.145914 -9 3 -3 
5203 5 0.592737 0.843738 0.152156 -2 -4 0 
5692 6 0.384159 0.864056 0.150519 7 4 -1 
8223 6 0.260397 0.919369 0.164724 3 0 2 
8756 5 0.26712 0.915165 0.136314 2 0 -4 
6249 6 0.329961 0.965059 0.124766 0 -2 -2 
7541 6 0.103989 0.949874 0.161541 3 1 1 
6447 6 0.157799 0.989264 0.123071 5 -1 0 
5634 6 0.447594 0.985074 0.161162 6 1 -5 
5289 6 0.539199 0.987736 0.179587 1 0 -2 
5448 5 0.702834 0.965388 0.152118 7 0 -3 
8088 5 0.971242 0.999179 0.14055 -3 -5 -2 
7244 6 0.10451 0.0236525 0.169233 -3 -1 6 
7934 5 0.376658 0.98987 0.185715 3 2 0 
7325 6 0.598235 0.0170123 0.22206 -1 -4 1 
8923 6 0.763137 0.952374 0.165344 -1 -1 0 
8934 5 0.352371 0.0474912 0.186141 6 0 -1 
5492 5 0.303578 0.10418 0.154624 -1 4 2 
8186 6 0.438632 0.0472617 0.15734 -4 1 3 
6991 5 0.833203 0.0948476 0.162439 2 2 -2 
6825 6 0.0396965 0.148719 0.1858 4 1 -5 
6190 6 0.227315 0.163706 0.181477 0 3 -3 
5476 5 0.279218 0.120838 0.134143 0 0 -1 
5157 6 0.691851 0.177995 0.175628 3 3 -2 
6280 6 0.971925 0.152219 0.184646 -2 -1 5 
7115 5 0.366027 0.158325 0.153694 0 -1 -1 
6555 6 0.457074 0.192281 0.187274 -4 -1 1 
5604 5 0.839668 0.194041 0.179229 2 -3 -4 
7180 5 0.387128 0.170111 0.157869 4 4 1 
5293 5 0.418973 0.208125 0.150917 -3 0 -1 
5350 6 0.110766 0.208794 0.149642 3 0 -4 
7233 5 0.777755 0.236726 0.139671 2 6 0 
5106 5 0.322863 0.25291 0.152714 3 2 -4 
8883 6 0.294474 0.266611 0.165316 3 2 2 
5364 6 0.389303 0.248654 0.194548 2 2 -3 
7503 5 0.439439 0.270135 0.170242 3 -2 -2 
8589 5 0.400388 0.303497 0.15452 3 1 2 
5703 6 0.114685 0.349504 0.199699 1 -4 -3 
8694 5 0.693972 0.360561 0.13148 -3 -1 0 
8011 6 0.0836775 0.387192 0.186413 0 2 5 
6576 5 0.197322 0.328687 0.167997 -2 -4 -1 
5279 5 0.337983 0.341775 0.136495 2 -1 0 
6687 5 0.668795 0.401702 0.177386 -7 4 2 
8625 6 0.827501 0.346589 0.180561 -1 -4 4 
6419 6 0.938605 0.365554 0.164635 6 -3 -1 
7179 6 0.168856 0.373938 0.159587 -3 -1 -2 
6930 6 0.187377 0.412099 0.171439 1 1 1 
6459 5 0.281369 0.398663 0.175729 1 -5 2 
5259 5 0.290658 0.409373 0.192936 2 2 -2 
8160 6 0.00934669 0.443952 0.164912 -1 0 0 
6187 5 0.0975558 0.459211 0.177614 -2 -2 -7 
7696 5 0.429994 0.436717 0.197131 -3 1 5 
7652 5 0.282256 0.456693 0.170236 -1 0 -1 
5707 6 0.489957 0.506975 0.16633 0 1 -2 
7269 5 0.678792 0.488112 0.196539 9 2 -3 
8395 5 0.83111 0.480427 0.179218 0 2 3 
5850 5 0.886693 0.509576 0.178215 -1 0 -1 
6070 6 0.618687 0.491465 0.157765 2 6 0 
7651 5 0.107947 0.564914 0.143604 -5 0 -1 
8400 5 0.440068 0.541951 0.189455 -1 -4 -2 
6218 6 0.892379 0.561112 0.161918 0 5 1 
7170 5 0.713307 0.559041 0.171656 -1 -4 4 
6069 6 0.140246 0.579104 0.163303 1 -4 3 
8116 6 0.778916 0.636836 0.144754 1 2 -1 
7182 6 0.0159912 0.610994 0.167459 -2 -1 3 
6066 6 0.518313 0.620883 0.184678 -1 -4 4 
6345 6 0.55712 0.640759 0.174326 1 0 -1 
5758 6 0.438451 0.639628 0.19946 5 3 2 
6779 6 0.485603 0.672229 0.163657 0 2 0 
7462 5 0.594606 0.649752 0.163838 10 0 -1 
8210 6 0.910089 0.689231 0.162716 -1 4 -1 
6342 6 0.128632 0.701746 0.159938 -2 -2 -5 
6672 5 0.530142 0.763709 0.194072 3 -1 -7 
7701 5 0.130924 0.751021 0.178325 -3 5 -2 
5035 6 0.763281 0.812184 0.149131 1 -2 1 
6477 5 0.424208 0.825684 0.165606 6 2 -1 
7894 5 0.494126 0.810095 0.194206 7 -3 3 
6103 5 0.498695 0.76992 0.198227 -4 0 2 
7308 6 0.52401 0.792214 0.160336 2 -3 3 
7266 6 0.63248 0.849022 0.158465 1 1 -2 
7700 5 0.788071 0.813968 0.150492 -4 0 2 
6430 6 0.808038 0.793388 0.208566 -4 -1 -3 
6438 6 0.963992 0.791895 0.150133 1 3 -6 
8430 5 0.504493 0.794869 0.177848 2 -1 1 
5858 6 0.926311 0.787822 0.195126 1 -2 0 
5896 6 0.148506 0.815317 0.19159 -4 -3 7 
6948 6 0.598331 0.797466 0.185822 2 -4 -2 
8545 5 0.0767209 0.884928 0.19061 3 -1 1 
7697 5 0.289325 0.872552 0.203211 -2 4 1 
5777 5 0.514881 0.869867 0.167864 2 1 -2 
6455 5 0.313347 0.875574 0.208103 2 -1 1 
5782 6 0.0160146 0.898045 0.173175 1 -2 4 
5929 6 0.139525 0.966445 0.194048 4 -3 -2 
7848 6 0.823354 0.935775 0.211155 1 -1 -1 
7219 5 0.990352 0.959535 0.178973 2 3 3 
5568 5 0.596102 0.983085 0.197498 3 2 6 
5556 5 0.725083 0.00383638 0.154946 1 4 -4 
5450 6 0.254634 0.0552975 0.205429 -2 0 3 
7419 5 0.143725 0.0523489 0.169927 -3 0 3 
8315 5 0.116312 0.0784381 0.225489 2 -1 4 
6921 5 0.421112 0.0642677 0.22798 -3 -4 3 
6625 6 0.886513 0.0752363 0.188507 -4 -2 2 
8868 5 0.529779 0.143199 0.188932 -2 2 -1 
7804 5 0.372064 0.166711 0.201758 -3 -2 1 
5096 6 0.413089 0.14606 0.173406 3 2 -1 
7644 6 0.706228 0.224839 0.185996 -2 -1 -4 
7388 6 0.186733 0.240299 0.219502 6 1 -1 
6336 6 0.723092 0.263046 0.191655 -3 1 0 
5222 6 0.700447 0.236712 0.185726 3 0 0 
8675 6 0.757026 0.212487 0.21346 1 1 3 
5027 6 0.910089 0.238884 0.239919 -1 -6 -1 
7863 6 0.245103 0.270274 0.172585 6 2 -4 
8808 5 0.736413 0.301409 0.177881 -3 1 0 
6600 6 0.998599 0.347177 0.216313 -2 -1 -6 
6897 6 0.0810091 0.347274 0.169669 -1 0 0 
8641 6 0.453888 0.302527 0.200915 0 2 2 
5349 6 0.542696 0.333604 0.235367 -2 -4 2 
5325 5 0.929751 0.344956 0.179793 2 -1 5 
8326 6 0.172062 0.414571 0.156464 -3 -5 5 
6375 5 0.932698 0.395979 0.177567 3 3 -4 
7203 6 0.209347 0.389086 0.215451 3 1 -4 
7283 6 0.684431 0.420936 0.16653 2 4 1 
7534 5 0.763988 0.43816 0.20831 2 2 1 
8887 6 0.852736 0.429684 0.212248 3 2 -1 
6176 6 0.113737 0.426694 0.206954 0 -2 1 
6126 6 0.709086 0.418314 0.191228 -5 2 1 
7732 6 0.192961 0.451983 0.199571 2 5 -3 
6026 6 0.657797 0.490918 0.199864 -4 -3 2 
7897 6 0.335205 0.564421 0.17734 2 3 -5 
8738 5 0.503848 0.506154 0.192548 1 -4 0 
5796 5 0.386527 0.545796 0.192782 3 -2 2 
6479 6 0.785683 0.501183 0.183214 -1 -2 -2 
6707 6 0.866655 0.554956 0.189069 -4 3 1 
5721 6 0.865142 0.534572 0.200118 1 -3 4 
7647 6 0.998753 0.587064 0.225818 -5 -1 4 
7834 5 0.152012 0.55253 0.20178 1 1 3 
7935 5 0.495733 0.612902 0.225793 2 8 0 
5337 5 0.758774 0.579747 0.15633 -3 0 4 
7858 5 0.966174 0.585961 0.183141 -3 -6 -2 
6637 6 0.716931 0.564247 0.191542 1 -2 3 
5162 6 0.428459 0.628444 0.202689 -1 3 1 
5766 5 0.902407 0.639462 0.179998 -1 2 -2 
7790 5 0.228929 0.648084 0.203758 2 0 5 
5890 5 0.131275 0.627073 0.218917 3 4 4 
7494 5 0.503659 0.693478 0.200597 -8 1 0 
7846 5 0.567931 0.699108 0.169196 0 3 -2 
8538 5 0.704834 0.672515 0.193034 2 0 3 
6488 6 0.0655956 0.701845 0.160538 -3 0 5 
5085 5 0.742011 0.744526 0.190744 -1 -6 -5 
8448 5 0.923798 0.722249 0.208681 -4 5 6 
7405 5 0.183584 0.806653 0.201558 1 -2 5 
7371 6 0.241441 0.784109 0.210766 3 1 4 
5062 5 0.337283 0.785101 0.170927 0 0 1 
8544 5 0.439142 0.760891 0.224225 -5 -1 -5 
6902 6 0.538413 0.784261 0.228612 4 1 3 
8492 6 0.698594 0.769575 0.151764 2 0 -3 
6002 5 0.935388 0.796441 0.242551 3 0 -1 
7079 6 0.162936 0.838534 0.205294 4 -3 -5 
7435 6 0.278076 0.877804 0.204018 2 0 3 
5539 6 0.626697 0.829437 0.207002 2 0 -1 
5030 5 0.00321239 0.835445 0.196576 2 -1 -1 
7431 6 0.145727 0.880027 0.191385 0 -1 3 
8945 5 0.814623 0.900684 0.167837 3 2 -2 
6674 5 0.875858 0.87509 0.171799 -2 2 0 
8482 5 1.00027 0.889558 0.224437 0 7 5 
6914 5 0.143936 0.900428 0.213822 0 2 1 
5265 5 0.359044 0.888265 0.217309 1 -1 4 
8933 6 0.562726 0.899901 0.208014 0 3 2 
8678 5 0.626473 0.912547 0.170402 4 -2 7 
7811 5 0.116395 0.913238 0.206753 0 -2 -1 
8339 5 0.0158478 0.960891 0.216652 0 0 0 
6731 5 0.275625 0.920477 0.171694 4 -2 1 
8873 6 0.393311 0.895244 0.202086 1 -3 3 
8811 5 0.576336 0.965765 0.180356 0 3 -3 
7675 5 0.667984 0.894597 0.209917 -2 -2 -1 
7665 5 0.27563 0.947565 0.209737 -3 4 -5 
6322 5 0.748436 0.96813 0.237591 -4 3 2 