ITEM: TIMESTEP
20000000
ITEM: NUMBER OF ATOMS
9000
ITEM: BOX BOUNDS pp pp pp
-75 75
-75 75
-75 75
ITEM: ATOMS id type xs ys zs ix iy iz 
8558 5 0.179559 0.997681 0.026144 5 -5 6 
5269 5 0.394417 0.013212 0.00217698 -3 -2 0 
7009 6 0.311474 0.997761 0.0199978 2 -6 -2 
5771 5 0.407647 0.0250972 0.00815336 -3 0 -2 
8057 6 0.862602 0.0163026 0.0012164 0 0 -1 
8842 5 0.867172 0.0277874 0.0039006 -1 -2 -2 
5870 6 0.892136 0.0467231 0.0148921 3 -3 1 
5686 5 0.00060428 0.058495 0.0197961 3 4 2 
5422 5 0.00659856 0.0492851 0.024332 2 4 2 
7686 6 0.264423 0.0596279 0.0290975 3 2 0 
8182 5 0.455017 0.0786363 0.0117492 2 0 1 
7319 6 0.523262 0.134583 0.0535345 -1 1 0 
6310 6 0.646815 0.109241 0.988807 1 -4 -6 
5145 6 0.809365 0.0432074 0.000975011 0 4 2 
7669 6 0.984114 0.104346 0.0162117 -1 3 -1 
5187 5 0.201555 0.096162 0.00282751 5 -3 2 
5135 5 0.265838 0.110566 0.97364 5 -1 0 
6660 5 0.53765 0.109901 0.00872819 -5 1 2 
7634 5 0.817661 0.145919 0.034318 -1 5 3 
5345 6 0.290824 0.116201 0.999653 3 3 -3 
6082 5 0.0738466 0.136668 0.981891 2 2 2 
5393 5 0.220451 0.157047 0.00465523 6 2 3 
8143 5 0.659406 0.129774 0.0170591 -1 0 0 
8046 6 0.0955737 0.167306 0.0200411 0 -1 0 
8200 6 0.415384 0.178485 0.0200222 -2 -2 6 
8711 6 0.411731 0.166248 0.0090599 -2 -1 0 
5409 5 0.150608 0.181351 0.984949 4 -2 2 
6758 6 0.326087 0.206813 0.0404051 -5 5 1 
5973 6 0.200901 0.244312 0.00645498 0 1 -2 
8580 5 0.895766 0.275541 0.027832 4 0 3 
5853 5 0.00263063 0.323887 0.00510866 1 -1 0 
6025 6 0.319749 0.342446 0.0507643 3 1 0 
8240 5 0.15478 0.334118 0.00168743 3 1 3 
5165 6 0.667829 0.397591 0.0224161 -1 5 2 
6852 6 0.969008 0.420333 0.974727 -5 1 2 
7891 6 0.366434 0.458317 0.0135275 -1 -2 2 
8454 5 0.591014 0.401447 0.0440851 1 2 -2 
5391 6 0.881816 0.400733 0.994066 -1 -5 -4 
6208 5 0.182375 0.488855 0.997566 -6 1 1 
7717 6 0.281352 0.482223 0.0576383 1 2 2 
7749 6 0.582166 0.50012 0.0216644 2 -2 2 
6444 6 0.165236 0.476333 0.997415 3 3 0 
8967 5 0.152179 0.497594 0.991079 7 -5 -6 
6458 5 0.637848 0.484415 0.00633948 -5 2 -1 
7283 6 0.933815 0.526385 0.998284 -2 6 0 
7586 5 0.995872 0.576646 0.0109552 2 -4 5 
5767 6 0.0765281 0.652388 0.0216567 -1 3 0 
8156 6 0.268676 0.609221 0.0695069 1 -3 0 
8441 6 0.428556 0.613497 0.999153 3 -3 -3 
5654 5 0.46665 0.63605 0.0279516 -2 -4 1 
5140 6 0.20088 0.660343 0.998773 -1 7 2 
6602 6 0.688391 0.681294 0.017218 0 -1 -2 
6948 5 0.809433 0.645284 0.990749 -4 -3 2 
5096 6 0.773807 0.714493 0.00723404 -2 2 -2 
7432 5 0.571676 0.675898 0.0159528 -3 -3 3 
6473 5 0.524358 0.709686 0.00925771 0 3 -6 
6585 5 0.0299821 0.797937 0.026293 -3 0 2 
8868 6 0.00755176 0.736319 0.0427799 -3 -5 4 
6180 5 0.30733 0.791042 0.0303328 1 -3 -1 
8359 6 0.673458 0.76363 0.029597 1 -9 -4 
5639 5 0.0195724 0.792385 0.98494 1 -2 -2 
8292 6 0.171323 0.808776 0.0237587 1 1 -1 
7188 6 0.689556 0.78744 0.986257 -4 2 2 
6860 6 0.727112 0.806283 0.0170923 0 -1 0 
6757 5 0.966193 0.787187 0.0175792 3 5 0 
7337 5 0.377245 0.779401 0.996228 1 -3 5 
5287 6 0.704803 0.830597 0.00604471 4 -9 -2 
6673 6 0.614971 0.820576 0.981507 0 1 1 
5270 5 0.999406 0.848612 0.0191295 3 0 -2 
6700 6 0.304309 0.869884 0.994512 2 -5 -3 
7251 6 0.288394 0.874733 0.95879 -2 5 -6 
5814 5 0.819531 0.878449 0.0228856 2 -3 4 
5724 6 0.820743 0.90778 0.00889901 2 0 -4 
8589 6 0.479303 0.913399 0.0396242 -3 9 1 
6549 6 0.195824 0.900101 0.994354 0 3 0 
6121 5 0.283712 0.948924 0.00596419 -1 1 0 
7245 5 0.52257 0.926408 0.0341958 3 -1 0 
7165 6 0.863146 0.914313 0.02668 -1 1 1 
6974 6 0.575669 0.968574 0.983675 1 -4 -4 
8747 5 0.615674 0.959245 0.0256492 -1 2 -3 
8729 6 0.252183 0.991469 0.00347051 0 -4 3 
8093 6 0.356489 0.9687 0.011116 0 -6 -2 
8931 5 0.481758 0.917217 0.00199267 -1 0 -2 
6001 6 0.586935 0.0538929 0.0555323 0 1 2 
5012 6 0.776973 0.0359548 0.0285065 0 -3 0 
5754 6 0.865445 0.0395604 0.0237334 -6 -1 -1 
8780 5 0.116423 0.0595677 0.0338121 -3 1 5 
6194 6 0.212002 0.128518 0.0460974 7 4 4 
6007 5 0.195969 0.10467 0.0653623 1 1 1 
5621 6 0.923002 0.143702 0.0412756 -4 -1 4 
8212 6 0.0123678 0.153771 0.0533281 0 2 3 
7996 6 0.327422 0.119721 0.0434523 2 1 -1 
5414 5 0.425089 0.198899 0.0297341 7 -1 -2 
6393 6 0.915941 0.172827 0.0301605 -1 0 -1 
5904 5 0.163633 0.209812 0.0140311 3 0 3 
7334 5 0.296127 0.210191 0.044076 -1 -2 -1 
8629 6 0.659667 0.221148 0.028418 2 -1 1 
8197 6 0.581165 0.255924 0.0353642 -5 -2 4 
7248 6 0.640613 0.250161 0.0506755 3 1 -2 
8135 6 0.423193 0.246297 0.0275234 0 -4 -1 
7390 5 0.390674 0.27873 0.0357289 -5 -5 6 
6329 6 0.750581 0.308924 0.0422889 5 -5 -3 
7917 6 0.862379 0.299876 0.00567673 -4 2 3 
8567 6 0.869288 0.273437 0.0553151 3 3 -4 
8553 6 0.736143 0.344215 0.0225829 -8 -1 0 
8719 5 0.548395 0.329476 0.0089353 2 0 0 
8600 5 0.75038 0.337389 0.0174078 2 -3 -3 
5634 6 0.0663835 0.404735 0.048736 4 3 5 
8703 5 0.375172 0.389422 0.0427194 0 -4 4 
6296 6 0.494767 0.366029 0.0190136 4 1 5 
5038 6 0.930132 0.363522 0.0429469 -2 2 -3 
8900 6 0.83291 0.393016 0.0375683 -1 2 -5 
5387 6 0.733786 0.417515 0.00298135 -1 1 -1 
5694 6 0.758739 0.430134 0.0251186 0 5 0 
6187 6 0.907523 0.456462 0.0448796 -2 4 -1 
8512 6 0.966253 0.444314 0.988802 -1 -1 1 
5111 6 0.845247 0.498515 0.0101298 2 -3 1 
5162 6 0.346402 0.499972 0.0487168 6 6 -3 
6450 5 0.413233 0.475223 0.0136962 -2 -5 1 
7892 5 0.442284 0.502279 0.0187487 -4 -1 3 
7523 6 0.806565 0.522364 0.0172456 2 -3 5 
6689 5 0.218266 0.518303 0.0509701 0 1 -2 
6875 5 0.169073 0.548087 0.0703333 -6 1 2 
6184 5 0.773378 0.607066 0.0167484 2 -1 1 
6707 5 0.77128 0.55602 0.0590382 4 -3 -1 
7218 5 0.958126 0.572626 0.0630648 2 0 4 
6580 6 0.845132 0.58339 0.00985797 -1 -3 -1 
8825 6 0.997948 0.594482 0.0353944 -1 1 -5 
6960 5 0.793651 0.586369 0.0497134 1 -1 5 
7944 6 0.0307472 0.60351 0.0380397 0 0 -2 
8661 5 0.499153 0.652513 0.0182375 2 -2 0 
6365 6 0.507124 0.64969 0.0249729 0 1 -4 
6777 5 0.000438624 0.622143 0.0310463 4 2 2 
8878 5 0.826284 0.684249 0.997558 -4 0 -2 
8374 6 0.610907 0.707078 0.0545588 1 3 -2 
5067 5 0.140744 0.732968 0.0341804 -6 5 0 
7744 5 0.326144 0.73393 0.0388529 3 0 0 
7514 6 0.518617 0.744476 0.0348769 0 5 2 
6896 5 0.332895 0.702119 0.0326784 4 -3 -1 
6900 6 0.845835 0.733421 0.0744289 2 1 0 
6384 6 0.806325 0.739809 0.00980662 3 3 3 
5262 6 0.323895 0.789239 0.0235104 -2 -1 -1 
8294 6 0.491398 0.779021 0.0347005 3 -1 -2 
7470 5 0.0252517 0.832294 0.0333693 1 0 1 
5476 6 0.639487 0.832901 0.0637075 -3 3 2 
5437 6 0.786813 0.799942 0.0691592 1 0 -3 
7238 5 0.217861 0.855669 0.0703699 -1 -1 0 
5790 6 0.846174 0.833325 0.988772 1 2 -2 
5217 5 0.926346 0.849114 0.0398657 4 1 0 
7788 6 0.00182083 0.8864 0.0499929 2 -5 -3 
7803 6 0.652982 0.874086 0.0330741 -1 1 3 
7879 6 0.293282 0.902457 0.0291319 3 3 1 
5264 6 0.69479 0.893148 0.0623538 -1 -1 -3 
6487 5 0.0661155 0.935264 0.0794471 -5 -5 -1 
8321 5 0.0579312 0.927465 0.0239652 2 1 1 
5431 5 0.138459 0.940866 0.0321097 2 0 1 
5617 6 0.394877 0.0184268 0.0625215 -3 5 1 
8382 6 0.92471 0.970372 0.0503146 -3 -3 1 
5689 6 0.0481547 0.0633051 0.0703339 -1 3 1 
6367 5 0.461045 0.0269952 0.0372737 -4 3 -2 
7501 5 0.280278 0.0104513 0.0545698 -3 0 1 
5697 6 0.317616 0.0505824 0.0601108 4 3 -3 
7366 5 0.549257 0.0224307 0.0817005 1 0 2 
5585 5 0.963985 0.0386796 0.0442235 -2 -1 3 
8559 6 0.407691 0.0502509 0.0629712 1 1 -1 
6643 6 0.516592 0.133351 0.0301259 -2 1 -2 
8489 6 0.909726 0.114252 0.0901312 2 -2 5 
5266 6 0.00238463 0.14091 0.0638713 5 -1 2 
8508 6 0.578041 0.138518 0.0431329 -1 -3 2 
7215 5 0.657648 0.142981 0.0267479 -3 6 -2 
7067 5 0.649907 0.0813293 0.0810778 -2 -1 -1 
6167 6 0.685843 0.124303 0.0771371 3 1 2 
5563 5 0.87016 0.143086 0.0568077 -8 -2 2 
5022 6 0.0610096 0.172214 0.0935297 1 -6 3 
5189 6 0.235284 0.173555 0.080301 3 0 0 
6270 5 0.252849 0.167207 0.0305932 3 1 0 
7281 5 0.704376 0.179476 0.0557011 3 -5 2 
5985 6 0.902985 0.17026 0.0524384 1 3 0 
5339 6 0.928869 0.196605 0.0981389 -3 1 2 
7286 6 0.0464202 0.207168 0.0868355 4 4 6 
7599 6 0.680654 0.218217 0.0649962 -2 1 1 
7497 6 0.341573 0.234388 0.0791623 3 6 4 
8370 6 0.477171 0.240441 0.0484408 -4 3 2 
7221 5 0.564996 0.177789 0.062081 0 0 -4 
5475 6 0.594264 0.205322 0.0690525 -2 1 2 
7883 5 0.669039 0.244307 0.051904 3 1 1 
6489 5 0.860604 0.262136 0.0681717 -4 3 -2 
5441 5 0.413958 0.263683 0.0505832 -1 -1 -3 
7092 5 0.526931 0.294314 0.070571 1 3 0 
8440 6 0.693174 0.237216 0.0607482 -3 0 -2 
5502 6 0.705336 0.278567 0.0619275 0 2 2 
5272 5 0.00741287 0.348856 0.0420504 4 0 -2 
7066 5 0.417847 0.352037 0.0348601 -1 -5 -1 
5078 5 0.380921 0.383131 0.0718413 1 3 3 
7364 6 0.342015 0.392802 0.0720106 0 -5 5 
7683 6 0.0937856 0.382509 0.0414505 3 -2 -2 
6253 6 0.238134 0.42542 0.0733941 -2 4 0 
7833 6 0.0172385 0.492407 0.0518538 0 -2 0 
7317 6 0.596787 0.498189 0.100069 3 5 4 
7347 5 0.899902 0.532826 0.0457693 -3 4 1 
7800 6 0.667035 0.494147 0.0751229 -3 -3 -4 
5499 5 0.335033 0.613333 0.071098 1 2 -4 
5796 6 0.580233 0.598869 0.0507463 -4 1 3 
5005 5 0.933092 0.642355 0.0523694 -2 4 -1 
6442 5 0.225685 0.62292 0.0633365 -1 -2 4 
6563 6 0.398312 0.614397 0.0697952 4 0 -4 
6003 5 0.904325 0.619889 0.071859 -3 4 2 
6311 5 0.413384 0.693089 0.0405749 0 0 -2 
8061 5 0.687362 0.699079 0.0847837 -7 -3 -1 
7196 6 0.835158 0.651737 0.0662556 2 1 -6 
7613 6 0.918331 0.693416 0.0495832 1 -2 -1 
5571 5 0.722577 0.736521 0.0881581 -1 2 1 
7856 6 0.0800484 0.832445 0.031914 2 2 2 
6261 5 0.175324 0.815387 0.0672043 7 4 1 
6611 6 0.838766 0.793231 0.0732346 -2 -1 4 
8336 5 0.124677 0.830361 0.0482984 -1 0 0 
8557 5 0.119983 0.874397 0.032878 0 -4 -1 
8888 6 0.32704 0.8755 0.0342912 -1 0 -5 
8517 5 0.863202 0.83807 0.0935776 1 -1 4 
6051 6 0.257486 0.872182 0.0564974 -2 -5 2 
5797 5 0.425774 0.878345 0.0858369 3 0 2 
7505 5 0.384164 0.917604 0.0742497 2 0 1 
7423 6 0.91709 0.941293 0.0406045 -1 -3 -4 
8231 6 0.440783 0.930628 0.0570078 3 1 1 
7809 5 0.00890582 0.937787 0.0467441 2 -4 1 
6526 6 0.852172 0.0110562 0.0601439 0 1 4 
6313 5 0.358736 0.981149 0.0636573 -3 -2 1 
6269 5 0.396493 0.926496 0.0612289 3 3 6 
8298 6 0.79748 0.0103196 0.0753089 -3 -3 -3 
5440 6 0.409546 0.00073985 0.12106 2 -1 4 
5620 5 0.458773 0.994772 0.0804369 -1 -3 3 
5101 6 0.909206 0.996941 0.0774438 0 1 3 
7400 5 0.271984 0.0208087 0.088145 2 2 -2 
5680 6 0.782024 0.0508091 0.111168 -2 -1 3 
8487 5 0.832449 0.0274963 0.0553337 4 4 4 
8246 5 0.107727 0.0557848 0.0825472 1 2 3 
6911 6 0.481206 0.0725298 0.0759089 -6 1 3 
6191 6 0.774158 0.0543189 0.108809 1 -1 2 
8879 6 0.814598 0.0734849 0.0803036 -2 2 4 
8945 5 0.535276 0.0949452 0.0729801 -1 0 -1 
8469 6 0.21353 0.120465 0.0576655 -4 -1 3 
6654 6 0.124683 0.15955 0.0495022 2 -2 0 
7496 5 0.188998 0.17583 0.0811903 2 -4 -1 
7338 5 0.203708 0.11911 0.10446 1 2 3 
7478 5 0.487159 0.142244 0.0892069 -2 -1 -4 
7792 6 0.794346 0.139627 0.0563287 5 -3 6 
7416 6 0.959791 0.108469 0.078527 4 2 2 
5074 6 0.344842 0.157129 0.0379977 -2 -3 -4 
7981 5 0.522222 0.159087 0.110284 4 5 4 
6109 5 0.694314 0.140624 0.0996274 0 0 0 
7483 6 0.675923 0.196516 0.0794948 -1 2 0 
5351 6 0.479554 0.121604 0.0779643 -4 0 2 
6134 6 0.0305537 0.19709 0.0546281 -1 5 6 
5405 6 0.180453 0.215215 0.0779975 -3 4 -1 
5954 6 0.290543 0.302931 0.0830778 4 2 2 
8091 5 0.377706 0.276633 0.0891655 1 2 2 
8205 5 0.843184 0.279338 0.0696523 2 2 4 
5943 6 0.92575 0.251524 0.0801872 -4 2 1 
5508 6 0.931668 0.274604 0.0894899 -3 1 4 
8226 5 0.500081 0.27498 0.0822534 -3 5 0 
5582 5 0.604243 0.28099 0.0767424 0 -1 -1 
6080 6 0.360767 0.291089 0.085017 1 2 3 
6658 5 0.521375 0.301108 0.101061 -2 -6 0 
7831 5 0.600478 0.292242 0.105371 2 2 -1 
6586 5 0.217864 0.367888 0.0566947 4 -2 4 
8983 5 0.491715 0.358223 0.0933125 1 1 -1 
7278 6 0.618216 0.372842 0.0647374 -4 -4 -4 
7562 5 0.8 0.420125 0.0446932 -2 -5 6 
5170 6 0.938378 0.374834 0.106231 0 -1 -2 
7673 5 0.982485 0.422691 0.0523325 0 -4 -8 
6782 5 0.53962 0.400186 0.0575313 -4 -6 6 
5358 5 0.735286 0.416437 0.0791328 4 8 2 
8716 5 0.74132 0.452059 0.0748199 -5 -1 1 
5455 6 0.0993679 0.49449 0.0533866 1 4 -3 
5334 6 0.509603 0.484445 0.0931259 0 0 0 
5112 6 0.00946325 0.471495 0.0406756 -1 6 1 
8262 6 0.162444 0.549002 0.0788199 3 1 2 
5297 5 0.954193 0.516447 0.0855706 0 -3 2 
8671 6 0.828545 0.552208 0.077918 4 0 3 
7784 5 0.131304 0.557814 0.0883805 -4 -3 0 
7037 6 0.308596 0.606055 0.0703556 -1 -2 -3 
6228 5 0.441977 0.570946 0.0653121 4 -2 -5 
7826 6 0.180917 0.610337 0.0881136 -4 4 -2 
8088 6 0.0112726 0.577156 0.087336 4 -1 5 
8398 6 0.384472 0.613743 0.0683329 -3 0 0 
6495 5 0.18228 0.64523 0.0720661 -1 0 -3 
7413 5 0.210995 0.669994 0.0643666 0 6 -5 
5443 6 0.663001 0.696827 0.0743702 -4 3 1 
6198 6 0.285928 0.682493 0.0380573 1 0 -2 
6491 6 0.363785 0.68757 0.0705831 5 0 -4 
7064 5 0.111574 0.741882 0.0695872 -1 3 1 
6790 6 0.265726 0.740966 0.0830338 -2 3 4 
8465 6 0.984506 0.771975 0.0625339 -2 -5 6 
6178 6 0.333177 0.771745 0.0889095 -4 3 3 
7903 6 0.743371 0.751411 0.0791328 -3 -3 2 
7738 6 0.614385 0.809321 0.0427454 1 2 -2 
7716 6 0.041609 0.80779 0.0859284 -4 -3 -1 
6181 5 0.193355 0.829484 0.10079 5 -1 -3 
6104 6 0.836126 0.783411 0.0886412 7 -6 6 
6704 6 0.383881 0.843159 0.0840447 -8 -3 0 
8704 6 0.655304 0.790193 0.0642742 -4 -2 -6 
5367 5 0.909183 0.881968 0.0490476 -7 2 0 
7461 5 0.481881 0.883456 0.0688229 3 3 2 
7219 6 0.929497 0.907652 0.108647 -4 -3 1 
7254 6 0.954238 0.876234 0.078979 -4 -5 0 
8145 5 0.0486591 0.935513 0.0840241 5 -6 0 
7973 6 0.764677 0.895905 0.0840222 -1 0 3 
7519 6 0.916354 0.882786 0.086423 -1 -1 4 
5136 5 0.486398 0.900459 0.118368 5 2 2 
6196 5 0.720768 0.927895 0.0803146 -1 -1 -1 
5684 5 0.792255 0.920708 0.0676701 -3 1 1 
7433 5 0.45692 0.939142 0.108205 4 -4 2 
7625 5 0.612294 0.945956 0.0756242 -1 5 -1 
8338 6 0.961795 0.954041 0.0574126 -3 -2 0 
7798 6 0.26256 0.949286 0.0935319 -1 -1 5 
7534 6 0.394251 0.987701 0.0849062 -6 1 2 
7657 5 0.525258 0.986194 0.0295213 -3 6 -2 
6118 5 0.90245 0.948449 0.0867614 -1 -2 0 
7690 6 0.0783643 0.979194 0.0519536 0 1 2 
7839 6 0.418765 0.985662 0.0804205 3 1 5 
8511 6 0.876767 0.983033 0.112845 3 -1 -1 
5432 6 0.971274 0.0268264 0.0714219 2 -2 0 
6303 6 0.0652485 0.0248333 0.0836328 3 -1 2 
5102 6 0.222718 0.0800814 0.104079 0 5 -3 
5235 5 0.045737 0.0844478 0.112085 5 0 -5 
6953 6 0.268033 0.106555 0.092161 2 6 -4 
7412 6 0.810225 0.0958101 0.114647 1 4 -6 
8385 6 0.848481 0.0709283 0.107983 -2 3 1 
6672 5 0.880164 0.0737239 0.0944073 -4 2 4 
5193 5 0.0710264 0.155233 0.117034 -1 3 -5 
8530 5 0.345042 0.174652 0.133026 6 -3 4 
6396 6 0.448968 0.146016 0.121055 0 0 2 
8647 5 0.680584 0.175688 0.0978446 -2 -1 2 
5042 6 0.562006 0.188075 0.109448 -2 0 4 
7815 5 0.353306 0.29255 0.0882952 3 0 -1 
5072 5 0.745984 0.305891 0.0773714 -5 1 2 
8930 5 0.852796 0.313173 0.121636 2 -4 3 
6427 5 0.351665 0.298871 0.0952127 -1 5 -2 
8420 5 0.632842 0.319389 0.0943298 -3 3 -1 
6337 6 0.555361 0.362378 0.0827701 -1 -4 -3 
7008 5 0.661856 0.349422 0.115308 1 1 -1 
8592 6 0.435044 0.343515 0.0812554 -5 6 4 
6862 6 0.454611 0.358209 0.0745663 1 0 -4 
5061 5 0.752025 0.340356 0.0797387 -4 4 -1 
5153 5 0.104308 0.363551 0.110283 5 0 5 
8410 6 0.413518 0.356738 0.107734 6 3 -1 
5700 6 0.424345 0.358385 0.117042 -4 0 0 
6797 5 0.434511 0.345104 0.112144 2 0 0 
7874 6 0.932903 0.355519 0.0998833 -7 1 -3 
6927 6 0.584859 0.407074 0.0981866 -1 2 0 
7773 6 0.694071 0.380496 0.0818724 1 -2 -1 
7969 6 0.0963473 0.415319 0.106498 2 -1 2 
7459 5 0.783857 0.434665 0.0771592 2 -2 0 
7440 5 0.203379 0.478108 0.095578 -4 -1 -1 
6970 5 0.705679 0.513196 0.0913242 2 0 0 
6454 5 0.0540255 0.516773 0.147694 0 -5 1 
6833 5 0.276637 0.489251 0.0800685 0 3 -6 
6060 6 0.598725 0.492392 0.0473763 -1 -1 2 
5643 6 0.715481 0.501265 0.102342 -2 0 -1 
6076 5 0.0253468 0.534265 0.0957014 -3 0 2 
5917 5 0.690913 0.526022 0.104427 3 -1 -6 
8140 5 0.0876226 0.554485 0.119134 3 4 -3 
6841 6 0.700003 0.5166 0.113752 1 3 -1 
6366 6 0.879137 0.59665 0.067056 2 -3 -2 
7759 6 0.0902092 0.576103 0.109869 -6 1 2 
5347 5 0.767704 0.598757 0.120873 -4 1 2 
5715 5 0.888925 0.621582 0.0957517 -4 6 -1 
6008 6 0.764903 0.637772 0.126214 -1 -1 4 
7244 5 0.0480984 0.659219 0.0895155 2 0 -1 
6959 6 0.20375 0.596625 0.126212 -4 -2 3 
5104 6 0.395487 0.647351 0.119554 1 1 3 
7548 5 0.119283 0.62894 0.0575699 1 1 -3 
8807 6 0.481109 0.641993 0.0798412 -1 -2 0 
5925 5 0.0375172 0.668208 0.107328 1 -3 -1 
6690 5 0.84582 0.682236 0.122213 -5 0 -1 
8030 5 0.520049 0.707171 0.117545 -1 3 0 
5827 5 0.5572 0.698448 0.0859401 0 -1 4 
8758 5 0.743868 0.736034 0.113038 -1 -2 0 
6171 6 0.183504 0.701319 0.0664064 -2 3 0 
5064 6 0.974795 0.716379 0.10305 5 -4 -3 
5862 5 0.436612 0.746887 0.101475 2 -4 0 
7897 5 0.59802 0.738367 0.111076 0 -2 0 
7882 6 0.289327 0.756228 0.121589 2 -1 2 
8870 6 0.96455 0.751188 0.0586188 -3 -3 6 
7529 5 0.172775 0.804889 0.0683065 0 0 -3 
8397 6 0.31143 0.830583 0.0931571 -1 0 3 
7791 6 0.806185 0.826129 0.09942 -2 1 1 
8899 6 0.926544 0.879839 0.0784347 -1 -1 1 
8485 6 0.132939 0.823546 0.0993738 2 -1 -4 
8287 6 0.586351 0.845129 0.120433 2 -1 1 
8132 5 0.0688389 0.875283 0.137908 0 -1 1 
5727 6 0.755361 0.875052 0.0741867 -8 4 -2 
5462 6 0.209524 0.890296 0.074116 -4 -1 0 
7474 6 0.207781 0.906652 0.0821044 0 1 0 
8462 6 0.601146 0.928556 0.0954214 -5 5 0 
5279 5 0.945196 0.931565 0.097634 -2 -3 2 
8094 5 0.355828 0.980712 0.0728477 1 -8 -5 
8005 5 0.54286 0.975464 0.111867 0 1 2 
8261 6 0.966258 0.938431 0.0785192 -2 2 1 
6698 6 0.0531395 0.974751 0.0584593 2 -2 2 
5192 6 0.877612 0.93334 0.115533 2 -5 2 
7912 5 0.143392 0.0192864 0.157735 4 -1 0 
8760 5 0.543894 0.998662 0.097389 -4 -4 1 
8631 5 0.740096 0.0408317 0.111771 -3 2 5 
6608 5 0.829317 0.0116838 0.106422 0 1 -4 
6858 5 0.479309 0.0552914 0.149434 1 0 -2 
7466 5 0.755806 0.0436258 0.130485 1 -1 2 
6878 5 0.802197 0.995064 0.125907 -2 -1 1 
5944 6 0.0614839 0.0721078 0.114884 -5 -1 -2 
6792 5 0.443378 0.0887098 0.0873824 -1 2 6 
7578 6 0.542287 0.102767 0.120565 1 -1 -3 
6273 6 0.611742 0.10064 0.149823 0 -1 3 
7326 6 0.999914 0.0936989 0.122399 5 -3 1 
6421 6 0.0474462 0.14161 0.103596 -3 -1 3 
5113 6 0.424249 0.124011 0.100629 6 -4 3 
8301 5 0.550372 0.203362 0.169282 -3 6 1 
5908 5 0.703468 0.185598 0.11995 7 5 1 
7093 5 0.332668 0.181992 0.124318 -1 -1 3 
6755 6 0.621452 0.209643 0.0717898 0 -1 2 
6368 5 0.834724 0.189895 0.148823 0 -6 -2 
6004 5 0.556997 0.221093 0.0998904 5 0 9 
8587 6 0.588439 0.269624 0.13952 1 -2 -2 
6053 5 0.226391 0.258599 0.109341 -3 3 -2 
6411 5 0.234832 0.268026 0.125744 2 -1 0 
5995 5 0.670116 0.271477 0.0968263 1 -1 -3 
5143 5 0.856679 0.306149 0.117852 -3 -1 -7 
5044 5 0.0754658 0.307095 0.133246 -1 4 0 
5292 6 0.300566 0.257757 0.10082 -4 -2 5 
5613 6 0.875919 0.332601 0.100715 -3 -5 7 
5594 5 0.951326 0.341032 0.173457 0 -1 1 
7938 5 0.00825917 0.340783 0.104978 -2 -3 3 
7316 6 0.776691 0.336757 0.125816 -2 1 -2 
8866 5 0.932264 0.350105 0.0906896 2 3 4 
8635 6 0.521228 0.378835 0.134632 3 2 0 
7595 5 0.0397028 0.437823 0.121449 -2 2 3 
5086 6 0.142742 0.477636 0.117699 1 -3 1 
7235 5 0.795899 0.424996 0.133521 2 0 -4 
6837 6 0.0788612 0.417056 0.149474 3 -3 0 
5411 5 0.679904 0.441392 0.133674 0 -3 -2 
8078 6 0.929816 0.495895 0.0982786 0 3 2 
5722 5 0.0501797 0.467046 0.0665967 4 2 5 
7694 6 0.821098 0.449131 0.15275 -3 0 -2 
5479 5 0.110406 0.488594 0.137192 -2 -5 6 
5883 6 0.213915 0.521891 0.132998 -3 -1 0 
8275 6 0.259833 0.497573 0.112469 0 -1 0 
8738 6 0.453281 0.488913 0.090586 2 -2 1 
8543 6 0.570973 0.503511 0.137467 1 1 1 
8670 5 0.780789 0.49808 0.148644 -2 0 -1 
7142 6 0.700537 0.557051 0.100482 -2 3 0 
8303 6 0.189895 0.558884 0.141465 5 2 1 
7658 5 0.139187 0.643332 0.0957434 4 -1 4 
5344 6 0.610718 0.570921 0.117906 -7 -3 2 
8407 6 0.852737 0.582444 0.115896 4 3 2 
6010 6 0.782379 0.639752 0.131044 -1 -1 3 
8260 5 0.809237 0.602467 0.13856 -4 -2 1 
5142 6 0.0243546 0.659106 0.0981757 3 0 2 
8929 6 0.921848 0.630183 0.113735 -10 -5 -2 
6981 5 0.285698 0.675666 0.142598 0 0 4 
5625 6 0.251078 0.688773 0.139945 3 -3 3 
5276 5 0.557843 0.690803 0.128394 -5 3 3 
7992 6 0.726787 0.692823 0.142536 1 1 -1 
8257 5 0.887254 0.712145 0.096847 0 -3 0 
7970 5 0.179811 0.725494 0.149426 -3 0 0 
8391 5 0.288711 0.728262 0.140653 1 4 -1 
5880 6 0.536723 0.708499 0.0981053 -3 1 6 
8593 5 0.673113 0.762663 0.12768 -2 3 1 
6465 6 0.737572 0.74525 0.133066 0 -1 1 
5491 6 0.556528 0.766747 0.113427 -1 -1 -5 
6156 5 0.254477 0.754375 0.117742 -3 -4 0 
5467 6 0.263307 0.819664 0.0946172 2 1 3 
7840 6 0.696182 0.772748 0.141765 -3 1 1 
7684 6 0.752129 0.804696 0.135104 -2 -6 0 
8737 6 0.179632 0.841099 0.126507 1 -4 6 
5158 6 0.219358 0.835113 0.111997 -1 3 0 
8940 5 0.333955 0.844291 0.116899 1 -1 4 
5363 5 0.385544 0.849516 0.125991 -1 3 5 
6592 5 0.623966 0.862635 0.128451 6 0 -2 
6334 6 0.227383 0.875279 0.132082 5 2 -2 
6648 5 0.345984 0.923773 0.144142 0 3 0 
8329 5 0.273758 0.882823 0.156734 4 -4 -4 
5894 6 0.644457 0.866684 0.125446 0 2 2 
6623 5 0.767073 0.903766 0.175909 0 1 10 
5231 5 0.419696 0.949756 0.174259 2 -3 1 
6028 6 0.587331 0.935496 0.0951245 0 1 -2 
6485 5 0.675026 0.984862 0.148333 -2 -2 1 
8544 6 0.98193 0.957965 0.109905 1 0 0 
8576 6 0.109959 0.980652 0.159727 5 -5 -5 
7877 6 0.598989 0.00705523 0.15283 1 -2 -4 
5717 6 0.622034 0.0402291 0.138326 3 0 -3 
7110 5 0.906467 0.0163804 0.171106 -2 1 1 
7395 5 0.938276 0.0411933 0.169495 -2 1 1 
5591 6 0.506425 0.0715629 0.0983252 -2 -5 5 
5321 6 0.70502 0.0724382 0.171752 -3 -1 -1 
8463 5 0.0425559 0.0772428 0.137675 -1 -3 1 
6350 6 0.739573 0.126753 0.125441 5 1 0 
5034 5 0.919426 0.101375 0.117192 2 -1 -2 
6512 6 0.434225 0.132877 0.113012 -4 3 2 
8596 5 0.427659 0.177217 0.142351 -3 5 -2 
8002 5 0.61927 0.143453 0.120842 0 -3 5 
8318 6 0.626435 0.149915 0.159854 1 -1 5 
8871 5 0.543738 0.139274 0.147036 5 1 1 
7049 6 0.805152 0.189302 0.1524 1 1 2 
5445 6 0.0197978 0.216371 0.144615 -1 -2 -3 
6103 5 0.180487 0.203282 0.145977 1 0 2 
7007 6 0.374051 0.16124 0.206576 2 -1 -6 
6754 6 0.679832 0.16973 0.165191 0 -3 0 
7341 6 0.297848 0.224518 0.138341 -2 -5 -3 
5520 5 0.928316 0.180152 0.154454 -1 -2 2 
5114 5 0.702521 0.232414 0.15275 -3 -3 2 
5275 6 0.852871 0.259348 0.133626 -2 -3 0 
6005 5 0.291675 0.297118 0.130226 -2 0 0 
7051 6 0.298717 0.28472 0.131192 4 -5 -3 
6038 6 0.499183 0.2942 0.120882 -1 -2 -1 
8539 6 0.536162 0.271386 0.151063 0 -1 0 
7233 6 0.738619 0.272738 0.142452 -1 -5 1 
7003 5 0.802938 0.3269 0.137014 2 0 4 
8056 6 0.00898339 0.304807 0.179202 1 -2 -2 
8059 6 0.558253 0.382645 0.165188 -3 2 -4 
7197 5 0.663932 0.381142 0.152979 -4 -7 -3 
6641 6 0.726774 0.425421 0.137049 2 3 -3 
7446 6 0.860205 0.425481 0.130191 4 2 -1 
8405 6 0.88632 0.412375 0.161066 0 -2 1 
6070 6 0.954551 0.453399 0.130104 1 -1 -2 
5248 5 0.0832917 0.522229 0.136453 3 3 1 
5566 6 0.31436 0.4919 0.191594 -4 -2 -3 
6035 6 0.674686 0.552575 0.130051 1 2 0 
7236 6 0.930146 0.519726 0.126207 -2 2 -1 
7047 6 0.0931131 0.514931 0.165709 -1 2 2 
5091 6 0.119181 0.542915 0.15786 -1 -1 -1 
8549 5 0.773494 0.496588 0.158658 0 -6 1 
7668 6 0.974638 0.534198 0.167346 3 -7 4 
8577 6 0.477834 0.5708 0.11919 -1 0 1 
8196 6 0.312909 0.539949 0.126893 1 2 0 
8488 6 0.660228 0.592831 0.139595 3 -6 1 
7123 5 0.664769 0.585976 0.142574 6 -1 4 
7719 6 0.0981025 0.568659 0.154973 0 -3 1 
8006 6 0.113229 0.580685 0.112799 -2 -8 -1 
5660 6 0.188664 0.607364 0.151367 -1 0 1 
6247 5 0.199865 0.599749 0.160351 1 -5 1 
6094 6 0.246664 0.59418 0.177619 -2 2 0 
8050 6 0.403741 0.619788 0.158921 -1 0 -3 
8698 6 0.830973 0.613822 0.175608 1 -5 3 
7876 6 0.0963954 0.670664 0.141361 3 -2 -1 
8805 5 0.255197 0.564229 0.177936 2 1 -1 
5383 6 0.317058 0.644668 0.143601 2 3 2 
8554 5 0.564043 0.604203 0.182483 -1 0 3 
5122 6 0.677487 0.656741 0.150475 -3 -3 6 
7040 6 0.13153 0.647745 0.132785 1 5 -2 
7257 5 0.201814 0.685905 0.15732 4 2 5 
5395 6 0.47674 0.611886 0.11106 7 1 2 
5675 6 0.281729 0.667214 0.152317 2 -6 -1 
8360 5 0.893146 0.676995 0.164737 -3 0 2 
5547 6 0.304382 0.734565 0.172033 4 2 2 
7723 6 0.375137 0.74612 0.172152 0 1 4 
6356 5 0.350562 0.740267 0.12337 2 -2 0 
8001 6 0.1066 0.774763 0.157499 1 3 0 
7465 5 0.529701 0.751513 0.132038 -1 -3 3 
5237 6 0.105717 0.779008 0.168472 3 -2 -1 
8081 5 0.217062 0.809483 0.190477 1 -2 -4 
8435 5 0.550501 0.795453 0.136349 2 -6 0 
7929 6 0.429282 0.836466 0.139737 -2 -2 0 
6507 5 0.756599 0.857017 0.148567 -5 0 -2 
8706 5 0.0685356 0.866702 0.156801 8 2 7 
8694 5 0.937313 0.939621 0.157964 2 -5 6 
6645 5 0.000525037 0.866723 0.1548 3 -1 -2 
7555 6 0.492975 0.900219 0.171441 1 -4 1 
8348 5 0.648831 0.920907 0.167594 -1 1 2 
7422 6 0.812623 0.876572 0.161735 -2 -5 -2 
8740 5 0.223342 0.93485 0.153847 2 -2 1 
6804 6 0.0285094 0.936486 0.175095 0 1 -3 
7282 6 0.886086 0.941723 0.116605 -1 1 1 
6749 5 0.633456 0.948325 0.179575 2 0 2 
5988 5 0.0702719 0.0142495 0.140055 -1 6 -1 
8155 5 0.96095 0.985126 0.191928 -3 -4 -1 
8207 6 0.0514776 0.0373728 0.146808 3 3 0 
7742 6 0.409148 0.0395452 0.218742 0 1 -2 
5453 6 0.00344197 0.984274 0.176525 0 -6 -5 
7793 5 0.437718 0.0369732 0.177607 0 2 -5 
7621 5 0.505506 0.0564264 0.173635 -2 6 1 
8921 5 0.841051 0.0276435 0.216796 1 1 -3 
6152 5 0.0883485 0.101295 0.174366 2 6 0 
5786 6 0.209191 0.0736425 0.182474 -4 2 0 
7859 5 0.999223 0.0841102 0.167377 2 1 -1 
8840 5 0.300429 0.101797 0.196055 0 3 2 
8938 5 0.418427 0.125424 0.174246 -1 -2 -3 
6111 6 0.763161 0.129194 0.180424 -3 0 -4 
6295 6 0.0243264 0.142519 0.18313 0 3 0 
7308 5 0.443577 0.141474 0.158195 -2 0 -2 
8602 6 0.742247 0.173729 0.174263 1 -1 4 
7550 5 0.312378 0.139293 0.150324 5 -3 1 
8331 6 0.407305 0.175907 0.16114 -4 -5 -2 
8198 5 0.842267 0.177904 0.204803 3 0 3 
6891 6 0.0357816 0.205249 0.210681 -1 -3 1 
5354 6 0.780078 0.199017 0.170279 -1 -3 -5 
7333 6 0.371961 0.262485 0.179853 6 4 2 
6778 6 0.31452 0.24651 0.165148 0 1 2 
5050 6 0.758484 0.268426 0.204361 2 4 6 
7522 6 0.852694 0.296685 0.150916 4 4 1 
7172 6 0.956579 0.292803 0.204966 -2 5 5 
6572 6 0.187156 0.308676 0.156398 -3 2 1 
8127 6 0.53467 0.327641 0.147058 5 0 9 
6272 6 0.142994 0.338857 0.172742 4 -3 -6 
5607 6 0.22828 0.328441 0.17166 0 -1 -6 
6893 5 0.338322 0.376821 0.155932 -1 -2 2 
5284 5 0.652977 0.375336 0.12442 4 -1 2 
6000 6 0.689622 0.304988 0.150628 -4 -5 0 
6815 5 0.804542 0.305942 0.171461 0 2 -2 
7624 5 0.447965 0.355388 0.151155 3 -2 3 
6739 6 0.740076 0.372033 0.17613 2 -2 2 
5930 5 0.648761 0.381233 0.145338 0 -1 3 
8975 6 0.911597 0.396189 0.134882 -3 -7 1 
7234 5 0.942484 0.369061 0.145258 0 0 1 
7169 6 0.495178 0.406387 0.21311 0 -4 -4 
6733 6 0.0178097 0.383956 0.179723 1 2 -6 
5258 6 0.412605 0.444668 0.155321 -1 -4 -1 
6582 6 0.443261 0.490182 0.166971 -1 3 0 
8836 6 0.203433 0.522726 0.229216 5 -2 -3 
5832 6 0.244833 0.475601 0.20951 4 2 3 
5536 5 0.137731 0.550685 0.158742 0 1 3 
8797 5 0.212643 0.544337 0.106621 3 2 0 
5280 5 0.848 0.593542 0.183262 -5 -3 1 
8741 5 0.238041 0.583479 0.172583 -4 -6 -1 
7958 5 0.22344 0.628184 0.197727 1 -2 -1 
5222 6 0.394627 0.597475 0.144516 0 6 1 
7079 6 0.805952 0.634477 0.208854 2 -6 -1 
6988 6 0.952388 0.645159 0.189793 1 0 -4 
5053 5 0.974914 0.632265 0.178809 5 1 0 
7085 5 0.0264866 0.613919 0.151849 3 1 1 
8712 6 0.753378 0.649401 0.137925 0 0 1 
6027 5 0.263411 0.6705 0.178694 3 -3 1 
6040 6 0.384158 0.671204 0.178737 4 -1 -3 
5986 6 0.842484 0.713399 0.190593 -7 -3 -5 
8984 5 0.351317 0.740959 0.165041 -3 0 1 
6361 6 0.950818 0.692013 0.165337 -3 -3 0 
6761 6 0.0416067 0.709059 0.17807 1 -1 3 
6706 5 0.606551 0.739861 0.177248 4 4 -2 
7062 6 0.534467 0.774776 0.182431 -1 2 -2 
6576 6 0.011534 0.782076 0.212177 4 3 7 
5677 5 0.0814315 0.812341 0.144354 3 -3 4 
6093 5 0.0269281 0.855633 0.160082 -3 -3 2 
6693 6 0.375871 0.849713 0.149847 0 -3 2 
6842 5 0.542093 0.857683 0.152412 4 -4 -1 
5854 6 0.743194 0.84413 0.173208 -3 -4 3 
7176 5 0.208384 0.887044 0.177793 0 -1 -1 
8814 6 0.365421 0.881889 0.171843 -6 -4 -3 
8883 5 0.694191 0.90353 0.158448 -3 -3 -4 
8272 5 0.821984 0.903125 0.18015 -4 0 -5 
8054 6 0.902598 0.859087 0.144614 1 2 -2 
6909 6 0.939922 0.944651 0.174942 -2 2 5 
5466 6 0.330923 0.941574 0.167628 1 -5 -3 
6958 6 0.602093 0.924593 0.199971 -6 3 0 
8177 5 0.817588 0.957126 0.134929 6 7 -3 
5992 5 0.111239 0.976085 0.205498 3 -4 3 
7437 5 0.231484 0.986124 0.230816 4 -3 -1 
8974 5 0.288371 0.01691 0.20321 4 4 4 
5824 6 0.463057 0.0183056 0.173245 3 -1 2 
8803 5 0.575781 0.0395021 0.201263 4 1 6 
7102 6 0.189133 0.0618016 0.177364 4 4 0 
5747 5 0.421186 0.0603919 0.23187 -2 -3 -2 
5336 6 0.56602 0.0510847 0.230808 0 3 -3 
6743 6 0.670107 0.00970861 0.203416 2 1 -3 
6159 5 0.0100131 0.115849 0.193969 -1 -6 -1 
6429 6 0.673959 0.0769757 0.170234 4 2 -1 
5110 6 0.713119 0.0702491 0.188859 3 3 0 
6738 6 0.0936986 0.107705 0.198525 3 -4 -6 
7914 6 0.190248 0.0980845 0.214486 3 0 2 
8172 6 0.710725 0.0951257 0.217778 -1 0 2 
8010 6 0.295132 0.114051 0.187781 1 3 3 
8788 6 0.538597 0.104476 0.154994 -7 1 1 
7986 6 0.669204 0.118547 0.220187 4 -4 -6 
7035 6 0.0523325 0.150788 0.179628 4 -3 3 
5683 5 0.947217 0.152609 0.240404 -3 -5 -1 
5964 6 0.0704169 0.156392 0.151652 -5 -4 2 
6824 5 0.27312 0.216758 0.204642 3 0 -1 
6383 6 0.404627 0.146631 0.182221 -2 5 -3 
8789 5 0.886893 0.167779 0.229927 2 -1 1 
7577 6 0.95275 0.178478 0.1883 4 0 2 
7614 6 0.102605 0.164619 0.18406 5 -1 0 
5374 6 0.877976 0.186236 0.226208 -2 3 0 
8131 6 0.0402851 0.201621 0.200354 0 0 -2 
7263 6 0.0284876 0.18308 0.171062 2 0 4 
5025 6 0.83779 0.205938 0.200495 -5 0 -1 
8623 5 0.287939 0.293767 0.191963 2 4 -4 
8880 5 0.101743 0.281267 0.177276 4 1 3 
5678 5 0.77469 0.262165 0.219186 -2 1 2 
6266 5 0.0948358 0.343145 0.209652 -1 3 1 
8922 5 0.379163 0.320681 0.198641 5 5 3 
8477 6 0.377097 0.336579 0.220117 4 1 0 
6904 6 0.545418 0.322023 0.234651 1 -3 -1 
5020 6 0.579138 0.344942 0.199429 -1 -2 -4 
8634 5 0.344781 0.355061 0.199967 -3 -2 2 
5911 6 0.400689 0.37524 0.205151 2 1 -3 
7982 5 0.708092 0.35679 0.196765 2 1 0 
8718 5 0.699474 0.370763 0.176097 -3 1 2 
8504 5 0.0518999 0.445842 0.20323 2 -1 0 
7875 5 0.450262 0.429538 0.187387 -4 -5 5 
8015 5 0.648944 0.427373 0.171295 -4 -4 -1 
6059 5 0.875857 0.41359 0.177899 -2 2 -7 
5939 6 0.00427678 0.39931 0.13974 6 1 1 