ITEM: TIMESTEP
50000000
ITEM: NUMBER OF ATOMS
9000
ITEM: BOX BOUNDS pp pp pp
-75 75
-75 75
-75 75
ITEM: ATOMS id type xs ys zs ix iy iz 
5013 6 0.0269059 0.00828271 0.0389224 -1 0 -4 
6522 6 0.343225 0.98799 0.0468444 -2 -4 7 
5661 6 0.543456 0.994159 0.0178885 -1 0 1 
7465 5 0.724283 0.0497305 0.0124441 3 1 -2 
8207 6 0.763526 0.0228248 0.0263149 2 3 2 
6489 6 0.973747 0.0735223 0.00263698 8 -2 7 
8485 6 0.653079 0.0962117 0.998257 3 -6 0 
8144 5 0.957166 0.0766518 -0.00213288 -2 -1 1 
7362 5 0.0320354 0.105862 0.997036 4 0 6 
6508 5 0.445855 0.108173 0.0557149 2 2 3 
9000 5 0.563528 0.105762 0.0285783 1 4 -3 
6737 5 0.745406 0.132144 0.0258412 4 2 2 
6098 6 0.811317 0.110164 0.963814 9 12 3 
5416 5 0.126432 0.0910687 0.0224369 -2 0 -3 
6493 6 0.816978 0.105361 0.962929 5 -3 -5 
5640 5 0.883902 0.124751 0.0279441 10 1 -9 
6119 5 0.542679 0.112448 0.982572 5 -5 5 
8951 5 0.107056 0.183329 0.97898 1 5 2 
8136 6 0.59465 0.14166 0.984877 0 0 -2 
7572 5 0.709352 0.146159 0.0153215 -2 8 -1 
7048 6 0.0806159 0.205684 0.0298771 6 10 -1 
6264 6 0.272001 0.255228 0.0118875 1 4 -3 
6598 6 0.243112 0.237433 0.973864 4 -1 -3 
8978 6 0.502217 0.233388 0.0311788 1 4 1 
5821 5 0.539314 0.271335 0.020921 -5 1 -1 
8315 6 0.609038 0.254573 0.986878 -7 0 -5 
7357 6 0.652895 0.244529 0.00792498 2 -2 7 
6021 6 0.977475 0.237882 0.995593 0 1 -14 
8822 5 0.175268 0.266698 0.0227019 -4 3 -3 
5591 5 0.189841 0.28029 0.0269993 3 -2 -2 
6931 6 0.599145 0.256421 0.00746351 0 0 1 
8816 5 0.255003 0.338889 0.992253 -6 0 10 
5707 5 0.737121 0.293587 0.977355 -9 -8 7 
5893 6 0.0466973 0.3471 0.00795797 5 12 -5 
7744 6 0.139398 0.309852 0.00283333 -2 -6 4 
5179 6 0.462903 0.301147 0.0330117 1 3 -2 
5027 6 0.589572 0.30244 0.0226079 6 5 -5 
5326 6 0.769505 0.319173 0.0212382 0 7 -2 
5166 6 0.786027 0.334609 0.0468486 1 -1 9 
5353 6 0.941754 0.388462 0.0412632 1 12 1 
7824 6 0.334074 0.409871 0.00844757 5 -9 1 
7936 5 0.335836 0.41985 0.0233944 -7 2 3 
6731 6 0.441925 0.360889 0.993989 6 -8 1 
8600 6 0.528686 0.392872 0.0124028 4 3 2 
5536 6 0.772602 0.426376 0.0320047 2 2 -10 
6537 5 0.967926 0.432656 0.993337 2 -5 -11 
5571 6 0.603016 0.380929 0.0147054 -7 1 -1 
8055 5 0.64188 0.449207 0.985725 -8 -1 -2 
5248 5 0.965239 0.471573 0.0134567 -3 1 2 
7763 6 0.221962 0.472806 0.0354077 4 7 -8 
7673 6 0.628823 0.499051 0.022873 -2 4 0 
6042 6 0.00121417 0.511539 0.0208426 3 2 -2 
7011 6 0.21611 0.497117 0.980409 -3 -3 -2 
6132 5 0.858348 0.536227 0.0185235 4 3 9 
6655 6 0.423633 0.650866 0.0431048 2 -6 6 
5456 6 0.72878 0.555167 0.996709 -1 4 -7 
7803 5 0.822504 0.613469 0.00839159 -1 13 7 
8058 5 0.3621 0.660217 0.0313381 -3 0 0 
6674 6 0.95222 0.572663 0.0265195 2 -10 1 
8326 6 0.184973 0.591812 0.0095403 -2 2 4 
5732 5 0.24767 0.646137 0.970909 -5 1 4 
8740 6 0.249165 0.641617 0.0124477 5 2 -1 
6572 6 0.975863 0.621044 0.002322 -5 -2 -7 
6519 6 0.189408 0.689181 0.0241525 -6 1 -1 
5028 6 0.694332 0.654768 0.0275878 -2 0 -6 
8465 6 0.802513 0.677329 0.984144 -1 -4 2 
5074 6 0.107748 0.674237 0.0157731 3 -6 2 
5922 5 0.415626 0.696744 0.00673858 0 -3 -3 
8949 6 0.354595 0.69617 0.0205288 -8 3 4 
8028 5 0.899084 0.678319 0.0320917 6 7 3 
5871 5 0.861314 0.705718 0.994079 -3 -1 3 
5582 5 0.942415 0.714823 0.996992 1 0 2 
8810 6 0.810249 0.716256 0.992956 -6 -5 2 
7748 6 0.630191 0.74327 0.984825 1 2 -4 
6208 5 0.352962 0.798624 0.040636 -7 -5 2 
6787 5 0.621536 0.794204 0.939758 -2 -1 -3 
6483 5 0.556052 0.80532 0.0162552 2 7 4 
5341 5 0.676174 0.809423 0.0247287 2 -1 3 
7621 5 0.826251 0.787133 0.991038 1 5 -8 
7482 5 0.0854424 0.844196 0.0122006 -1 1 5 
5925 6 0.967724 0.816585 0.0210032 -11 3 1 
8505 6 0.876841 0.807799 0.0340156 3 -4 5 
7287 5 0.266668 0.86997 0.0216779 -1 -5 -8 
7027 6 0.45237 0.881317 0.999598 7 1 -2 
7699 6 0.493334 0.867246 0.00718484 0 -3 -6 
8889 6 0.658857 0.929659 0.985161 5 -3 0 
8233 6 0.144015 0.909248 0.0402777 -3 -2 -3 
8919 5 0.962582 0.931797 0.0178648 1 -5 -1 
8095 6 0.279196 0.93298 0.0283918 4 2 -1 
8185 6 0.335352 0.992082 0.0374988 -4 0 1 
6927 6 0.353324 0.971902 0.0214796 -11 2 -7 
8299 5 0.513037 0.0229497 0.994863 4 4 -6 
7991 6 0.825801 0.998942 0.987004 2 6 6 
7120 5 0.171809 0.971667 0.0192983 -6 2 4 
8908 6 0.0942148 0.0322165 0.0454593 9 9 4 
5831 5 0.952442 0.0230007 0.057766 -3 5 2 
6023 6 0.374964 0.0610823 0.0621383 1 -5 2 
7307 5 0.103835 0.0753184 0.0304833 -3 -4 4 
7547 6 0.201446 0.0680458 0.0572195 -4 -2 -1 
6245 5 0.437642 0.107491 0.0604291 -6 10 3 
6747 5 0.189588 0.103399 0.0454523 -3 2 6 
8177 6 0.641291 0.132276 0.0314333 1 -7 -2 
5418 5 0.964485 0.140995 0.0452666 -4 -5 -5 
7458 6 0.00532326 0.127654 0.0440383 -10 6 -5 
7520 6 0.442999 0.139467 0.0263048 6 -2 -1 
7163 6 0.448978 0.150687 0.0515241 -3 3 -1 
8401 5 0.0170203 0.254689 0.996186 0 3 4 
5742 6 0.21335 0.210659 0.0218778 -3 -4 -2 
8372 6 0.348019 0.220248 0.0393629 6 8 1 
6738 6 0.72146 0.234739 0.0572554 2 4 4 
6650 5 0.715996 0.181912 0.0402803 0 -2 -6 
7328 5 0.214646 0.257754 0.999163 -6 0 8 
5889 5 0.347064 0.209686 0.0210206 -2 7 8 
7665 6 0.056567 0.28416 0.021808 5 12 -17 
7839 6 0.543111 0.258552 0.051155 2 0 -8 
6182 6 0.560644 0.252563 0.0399772 -2 7 -4 
8497 5 0.711015 0.29555 0.0267276 8 -6 1 
6311 6 0.768766 0.251752 0.0542336 2 -12 -1 
8930 6 0.826809 0.243879 0.0383121 1 2 -2 
8410 5 0.200166 0.305632 0.00109845 7 7 1 
8847 5 0.346733 0.263134 0.0372722 -9 0 3 
8560 5 0.127529 0.320634 0.00089329 4 -4 6 
5097 5 0.977472 0.272027 0.0468793 0 -6 4 
7977 6 0.683993 0.332554 0.0197441 -5 -7 -1 
6008 5 0.769331 0.32307 0.0540392 -2 1 -1 
8879 6 0.931759 0.325654 0.0255357 -11 -8 2 
8320 6 0.862855 0.380246 0.0342689 -2 -2 -1 
6839 6 0.666591 0.350587 0.00373464 -4 0 -4 
7907 5 0.173117 0.375864 0.0799919 4 -2 4 
8049 6 0.333237 0.429251 0.997156 -7 1 -7 
8591 5 0.506081 0.363184 0.00511536 -4 -2 -3 
7697 5 0.703527 0.427024 0.0284881 -1 3 1 
8302 5 0.52872 0.383141 0.036286 2 -3 3 
5949 5 0.86359 0.395889 0.0611472 -2 1 4 
8972 6 0.949259 0.388482 0.0247053 3 5 -4 
5354 6 0.321911 0.431509 0.0478686 -3 -3 5 
6802 6 0.61016 0.427462 0.033716 3 0 5 
6260 6 0.583048 0.439973 0.0293855 -3 0 -9 
5031 6 0.599901 0.440033 0.0458046 3 12 -8 
7508 6 0.654312 0.507479 0.0419598 0 -6 -3 
6720 6 0.837511 0.521743 0.0603563 -4 2 -7 
7419 6 0.722015 0.580539 -0.00245826 3 6 5 
6668 5 0.849772 0.542649 0.0687428 -2 -6 2 
5813 6 0.135222 0.583532 0.01901 4 -1 -12 
6705 6 0.203331 0.612375 0.0633936 6 4 -1 
6359 6 0.226011 0.618373 0.0672603 -3 1 6 
6254 6 0.801625 0.614716 0.0413907 1 -3 5 
5219 5 0.0657118 0.667588 0.988228 -2 -5 7 
5171 5 0.972104 0.667278 0.0401597 -2 3 0 
7967 5 0.999833 0.680635 0.994499 1 -2 5 
8109 6 0.0328731 0.658814 0.0592294 2 -1 9 
6328 6 0.0659439 0.656877 0.0229246 -4 2 0 
5011 6 0.886748 0.702467 0.0308134 -4 -1 9 
8415 5 0.989843 0.720751 0.0321911 -10 4 5 
5769 5 0.371218 0.72074 0.042518 -3 -6 10 
5692 5 0.438144 0.747697 0.0139389 -5 -3 -4 
6291 6 0.027627 0.747478 0.0875228 0 -2 3 
7878 6 0.643686 0.801385 0.999822 -2 2 3 
6753 5 0.680213 0.79302 0.0437575 -5 -9 -2 
6512 5 0.0325704 0.829991 0.0672927 3 -1 2 
6142 6 0.843972 0.832077 0.0470732 1 8 1 
6646 5 0.0688849 0.861857 0.00221707 -6 -2 0 
5583 5 0.84277 0.867913 0.0464222 2 -4 -5 
7164 6 0.949899 0.822608 0.0208304 0 5 -4 
6869 5 0.9743 0.844435 0.0434489 -6 2 3 
8797 6 0.690125 0.873057 0.0019257 1 1 3 
6943 6 0.36941 0.88793 0.973637 -1 1 0 
7439 6 0.54058 0.889901 0.0414672 0 4 1 
8077 6 0.132503 0.0138665 0.0380868 -2 8 -2 
8262 6 0.381445 0.997999 0.0522733 -3 -3 -1 
8287 5 0.427343 0.0162869 0.0739248 9 0 -1 
8235 5 0.560021 0.0279866 0.0688653 -5 -1 0 
8381 5 0.444878 0.0912661 0.0984388 0 3 -6 
8339 6 0.0660968 0.126465 0.0391538 1 -5 -4 
8529 6 0.17333 0.0957731 0.0470577 0 -2 -1 
8399 5 0.846617 0.114887 0.058817 5 -1 1 
8484 5 0.0937171 0.135234 0.100394 10 1 -5 
6432 5 0.162846 0.130416 0.0824139 9 0 5 
5137 6 0.215511 0.101217 0.0362074 1 4 -1 
6583 6 0.948191 0.100317 0.0224568 1 4 5 
8977 5 0.226747 0.17614 0.0565545 5 -4 -2 
7576 6 0.29757 0.203922 0.0660166 -2 -6 6 
8641 6 0.354507 0.154478 0.0665275 4 0 9 
8393 6 0.417592 0.130109 0.0788752 -4 10 -8 
7222 5 0.512945 0.146449 0.0407193 -10 -1 -2 
5543 6 0.0774126 0.177796 0.0942704 2 -3 1 
6365 6 0.847379 0.258423 0.0496067 4 1 -6 
6047 5 0.1378 0.194181 0.0190764 1 -3 0 
8127 5 0.280477 0.238955 0.0683262 1 0 -8 
6347 6 0.516784 0.218534 0.033306 2 -11 -3 
7906 5 0.483694 0.273278 0.0447387 5 -3 -2 
6769 6 0.367032 0.248546 0.0851618 -1 -3 -2 
7488 5 0.993894 0.28287 0.0322058 -2 -1 3 
6297 5 0.0768514 0.294441 0.0819359 -8 -2 -6 
8333 6 0.404275 0.300243 0.0963247 -1 5 1 
7927 5 0.589389 0.312342 0.0422764 8 0 0 
7055 5 0.647065 0.305671 0.0170481 0 -3 1 
6681 6 0.11441 0.343925 0.0619908 -6 -5 1 
6212 6 0.490682 0.361143 0.0833618 -5 2 1 
7998 5 0.561677 0.337458 0.0154416 0 5 1 
6256 5 0.177454 0.342377 0.0824306 7 4 2 
8390 6 0.652657 0.360676 0.0225852 -4 1 9 
6159 5 0.953422 0.326663 0.0651417 -2 -3 7 
7517 5 0.944962 0.384431 0.0779918 1 0 -4 
8965 6 0.698421 0.401842 0.0619162 -8 -4 2 
5264 6 0.762831 0.376693 0.0435812 -3 -3 -5 
7084 6 0.585016 0.433519 0.0608119 0 9 -4 
5284 6 0.013648 0.424592 0.0930413 0 -7 -3 
5004 6 0.519678 0.428534 0.0920052 1 -3 -1 
5123 5 0.0106432 0.46447 0.0745387 -8 8 4 
5135 5 0.0316506 0.467893 0.0734054 2 -5 -3 
5467 5 0.0533958 0.484512 0.0869073 2 -8 -4 
6735 5 0.239081 0.48155 0.0473674 5 0 -4 
7493 6 0.587629 0.509008 0.0462647 8 -8 -3 
5449 6 0.31527 0.536895 0.0402981 2 -5 5 
8238 6 0.589252 0.541205 0.0433662 11 8 1 
7609 5 0.662438 0.5045 0.0904908 5 -11 1 
8205 5 0.995983 0.494223 0.0709552 0 -6 2 
6360 6 0.20338 0.531573 0.0635533 -1 7 2 
6773 5 0.318986 0.553534 0.0908052 8 -2 -4 
5969 5 0.594643 0.552755 0.0140964 -5 4 -6 
8176 6 0.649623 0.534914 0.0693289 -9 -4 1 
6230 6 0.59513 0.503244 0.0550961 3 6 -3 
5960 5 0.458734 0.573904 0.0624372 -2 -2 5 
6055 5 0.795452 0.571648 0.0841502 -6 0 1 
5050 5 0.798224 0.626927 0.055202 6 -4 0 
6788 6 0.12869 0.622204 0.0705691 -3 0 0 
6965 5 0.831706 0.657713 0.0647173 3 3 4 
8327 6 0.110439 0.685758 0.0317555 3 -8 1 
5618 6 0.231731 0.697133 0.0567901 1 10 2 
6481 6 0.164098 0.7108 0.0418075 2 0 -2 
8164 5 0.827996 0.714479 0.0246175 -1 -2 -6 
5154 6 0.197767 0.698114 0.0332947 12 -3 9 
6467 5 0.391723 0.698047 0.0232048 -9 1 0 
5155 6 0.894342 0.707645 0.0628269 0 -1 0 
8913 5 0.00418239 0.766429 0.0747411 0 -3 -9 
5388 6 0.00797367 0.786664 0.051419 -3 -4 10 
6564 5 0.381983 0.849131 0.0951556 2 0 2 
7567 5 0.115469 0.807578 0.100714 1 4 1 
6592 5 0.314689 0.838371 0.0343356 8 -6 -2 
8897 5 0.952885 0.83977 0.0275242 4 -4 -6 
7945 5 0.991051 0.839834 0.0930001 -7 2 3 
5266 6 0.988836 0.865065 0.0586219 -4 7 -4 
5489 5 0.387818 0.903708 0.0790469 1 1 4 
8831 5 0.703839 0.874416 0.0479173 -1 -5 -6 
8357 5 0.719249 0.86911 0.0707019 9 -3 0 
6441 5 0.0710429 0.883873 0.0668843 0 0 2 
6717 6 0.424762 0.893552 0.0366777 -1 7 3 
7893 6 0.455641 0.910933 0.0431565 1 -1 4 
6962 5 0.622236 0.931064 0.0413667 -4 2 -5 
8973 5 0.799657 0.946204 0.0284861 -2 -3 4 
7812 5 0.412157 0.893544 0.0234964 0 -4 3 
7875 6 0.705252 0.910047 0.0820744 0 -10 3 
6800 6 0.325478 0.96932 0.0108569 3 -4 6 
7303 5 0.841046 0.995745 0.0984166 -3 -2 -8 
8574 5 0.394193 0.985915 0.0620849 -3 0 -2 
8833 5 0.382199 0.952442 0.0316491 2 -6 4 
8081 6 0.571361 0.00799779 0.0741547 9 -8 -3 
6078 6 0.652927 0.0226289 0.113293 -6 3 8 
5490 6 0.0433616 0.0323292 0.120018 -7 0 0 
7703 5 0.984232 0.0380562 0.0897097 4 -2 6 
7553 6 0.334912 0.0894313 0.0716744 5 8 7 
5535 6 0.444767 0.0537245 0.0853125 -8 4 1 
8181 6 0.607439 0.0455711 0.0903543 -1 3 -1 
5287 5 0.699989 0.0805624 0.0932728 -1 11 -4 
8108 5 0.901391 0.0860518 0.074414 -4 -3 -9 
7614 5 0.186409 0.0798521 0.0685118 4 -2 1 
7250 6 0.64671 0.0487673 0.0869526 -3 -1 4 
8996 6 0.101528 0.111946 0.0485483 2 -3 1 
5391 5 0.165339 0.130953 0.0461315 2 -8 0 
8873 5 0.379714 0.0966328 0.0340623 -8 6 -3 
8970 5 0.373112 0.152265 0.0912194 -1 -2 4 
5689 5 0.783854 0.107697 0.100392 -10 -9 -6 
8997 5 0.103531 0.154792 0.0982315 2 3 -4 
7779 6 0.80472 0.184556 0.067314 9 -1 2 
8044 5 0.972419 0.134246 0.0463822 -7 -5 3 
7756 6 0.0749387 0.205023 0.0656611 -2 1 2 
7863 5 0.758843 0.220744 0.0829138 -5 1 -2 
5250 5 0.31347 0.257423 0.0742593 0 -2 2 
5990 5 0.640767 0.230739 0.0711369 -2 -3 -2 
7301 6 0.203051 0.230741 0.0785021 -1 -4 -1 
7986 6 0.454237 0.332228 0.0890958 4 -4 7 
7035 5 0.952622 0.375138 0.121154 7 1 0 
8569 6 0.278261 0.320497 0.0969309 1 -3 -5 
7000 5 0.0743214 0.352743 0.110158 3 -6 -7 
7235 5 0.0330029 0.394432 0.0944327 -10 -4 3 
6315 5 0.150453 0.37613 0.0771104 -8 4 1 
5598 6 0.567518 0.408402 0.104447 -5 -3 -1 
5111 5 0.73252 0.368338 0.0769619 1 5 -2 
8699 6 0.826208 0.405439 0.116682 -9 3 -5 
8450 6 0.652858 0.420275 0.0489419 -1 5 -1 
8139 6 0.812665 0.391758 0.088498 1 1 0 
7688 5 0.3737 0.438459 0.0662108 -1 -3 -2 
8198 6 0.498738 0.446616 0.0826639 0 -9 8 
5305 6 0.543946 0.424893 0.068474 6 -3 -1 
7367 5 0.938724 0.45925 0.114523 3 4 -1 
6086 6 0.611421 0.43702 0.129579 -4 -4 -2 
6242 6 0.873231 0.427028 0.0613481 0 -2 7 
8477 5 0.751797 0.469317 0.0986631 2 8 -2 
8204 5 0.11424 0.502619 0.0943953 -4 7 -4 
8719 6 0.232086 0.500252 0.0711806 -3 -3 1 
6108 5 0.759245 0.467074 0.0753745 -6 1 -3 
7981 5 0.123388 0.496013 0.0593872 5 -3 6 
5561 5 0.346378 0.529507 0.0692428 -6 2 2 
5934 6 0.787084 0.544488 0.0704082 2 -2 -6 
6547 6 0.270868 0.557735 0.0880469 -1 6 1 
8792 5 0.536522 0.532336 0.0762266 2 4 4 
5857 6 0.869521 0.559819 0.0962692 -7 -2 -4 
8749 6 0.619767 0.64101 0.0818431 -1 -4 6 
7057 6 0.908924 0.598294 0.0746655 5 -1 0 
8964 5 0.877913 0.637208 0.070272 5 -3 -3 
6548 5 0.916527 0.617371 0.0496032 -1 3 -8 
8595 6 0.36043 0.627919 0.0809361 7 -4 0 
6176 5 0.729196 0.665179 0.0903896 -4 -6 2 
8776 5 0.443711 0.674616 0.0942125 1 -3 -2 
5090 5 0.573161 0.708982 0.0730927 1 2 1 
5533 5 0.740548 0.704552 0.0814878 2 6 -5 
5067 6 0.647509 0.698347 0.0740778 -1 -3 -6 
7270 5 0.848742 0.696423 0.0953961 5 10 -5 
6028 6 0.927368 0.711896 0.0853059 1 -2 4 
5691 6 0.199439 0.699379 0.0491593 -5 -2 -3 
8443 5 0.585691 0.698253 0.0618433 0 -1 0 
8881 6 0.933822 0.729297 0.0713615 0 4 -9 
8537 5 0.00739601 0.704744 0.0941979 1 9 7 
5883 6 0.427263 0.746713 0.0508217 4 8 -3 
5368 6 0.658647 0.718119 0.0664386 -2 -4 1 
6618 5 0.51627 0.732427 0.113286 -3 5 -3 
8953 5 0.690912 0.767777 0.0958744 1 0 2 
5334 6 0.959737 0.783021 0.0839016 -1 0 3 
8211 5 0.169922 0.777029 0.0818316 -3 2 -5 
8787 6 0.295227 0.772625 0.0742686 0 -8 -1 
5021 5 0.777757 0.795358 0.0924084 2 6 0 
5632 6 0.0488711 0.82494 0.0546283 0 -2 1 
6535 6 0.141352 0.829683 0.0569755 4 4 1 
5577 6 0.0317768 0.823639 0.0945474 3 -8 6 
7690 5 0.36724 0.81772 0.113296 4 3 0 
6776 5 0.846762 0.802208 0.0540096 2 -10 -1 
6614 5 0.11336 0.908168 0.0919883 -3 -1 7 
7953 6 0.212057 0.924641 0.080575 6 0 4 
7351 5 0.577614 0.946951 0.110348 1 -3 4 
5246 5 0.430816 0.0013159 0.104386 0 5 4 
5800 5 0.963267 0.0133792 0.141759 -3 1 2 
8007 5 0.261077 0.0390027 0.145097 2 2 4 
6041 6 0.00980162 0.0533183 0.0966293 7 0 5 
8662 5 0.032514 0.0445224 0.0944997 3 -1 0 
6765 5 0.234991 0.0836685 0.0619516 7 3 -11 
8815 5 0.259541 0.131371 0.0769788 4 -3 1 
8363 6 0.33879 0.0889356 0.139588 -8 4 0 
8736 5 0.122351 0.121953 0.113302 5 -6 5 
8140 5 0.117184 0.12431 0.121288 3 -1 1 
8632 5 0.580765 0.15828 0.113409 7 -5 8 
8479 6 0.724081 0.148071 0.0953795 -2 4 -2 
5192 6 0.36663 0.147823 0.117277 4 0 -9 
8054 5 0.267995 0.182214 0.102618 -1 5 1 
8551 5 0.916877 0.22902 0.116474 -7 2 -6 
8208 6 0.425448 0.219528 0.0858809 2 1 -6 
7707 6 0.101306 0.271055 0.105519 -7 2 2 
5945 5 0.625016 0.253485 0.0855398 2 4 -3 
8409 6 0.717475 0.255247 0.0930567 0 -1 6 
7870 6 0.0784254 0.234815 0.0658622 -1 6 9 
5034 6 0.497528 0.255546 0.0763205 3 0 6 
8697 6 0.392013 0.333417 0.0933622 1 4 -5 
5723 6 0.652945 0.353193 0.109696 0 4 -3 
7858 5 0.885653 0.346868 0.0640845 -9 -7 0 
7319 5 0.486007 0.391753 0.0888811 -7 7 -1 
5159 6 0.454913 0.35789 0.127193 -6 3 -9 
6881 6 0.966525 0.439142 0.13575 -1 5 -6 
6998 6 0.781247 0.424257 0.113381 -4 9 1 
8666 6 0.808177 0.418601 0.0954559 0 -2 1 
8388 5 0.845979 0.421465 0.0925264 4 0 6 
6079 6 0.0661906 0.438737 0.0788481 -1 -10 2 
6277 5 0.259593 0.440772 0.0800212 8 -1 10 
7476 6 0.50483 0.453029 0.125717 -1 -10 -7 
5133 6 0.0772699 0.52634 0.0979122 -2 -5 -4 
6004 5 0.61912 0.53475 0.0882182 -11 2 7 
5837 6 0.886028 0.501288 0.135191 2 4 1 
7056 6 0.787232 0.550077 0.109341 -2 -6 5 
8451 6 0.818707 0.551588 0.0732813 -3 2 -4 
6378 6 0.403431 0.580771 0.124441 -5 -5 -7 
6531 6 0.395552 0.652113 0.0920315 -6 -2 -2 
7429 6 0.167474 0.628977 0.123877 -8 5 -3 
8200 6 0.599088 0.650439 0.0965635 4 7 5 
6718 6 0.224986 0.619023 0.117865 -8 5 3 
5340 5 0.308662 0.616343 0.100449 3 -1 4 
7442 5 0.849608 0.652779 0.100929 -1 -5 -1 
7911 5 0.070068 0.690636 0.11685 9 6 0 
6730 6 0.160626 0.652002 0.123597 -5 -5 0 
7347 6 0.442393 0.645663 0.104514 9 -1 7 
7373 6 0.702801 0.742449 0.0937794 -3 5 8 
6485 5 0.56149 0.7261 0.071014 8 -3 -9 
6173 5 0.551205 0.737906 0.0707021 -1 1 -4 
7224 6 0.43133 0.791346 0.0878077 3 3 -3 
5395 6 0.544639 0.770403 0.105918 0 -4 0 
5099 5 0.802016 0.731948 0.135301 5 -7 2 
5764 6 0.0948812 0.794043 0.102083 -3 -5 4 
7582 5 0.332638 0.771721 0.0687785 2 7 2 
8704 5 0.979559 0.781676 0.112722 -3 -2 -2 
6351 5 0.710541 0.825012 0.0720877 -1 1 2 
8424 5 0.976407 0.783219 0.0710317 -2 -6 -6 
8659 5 0.254427 0.867229 0.107282 -2 0 1 
8744 6 0.309931 0.855684 0.0954072 5 -1 -3 
7133 6 0.509378 0.853136 0.111471 1 -1 -2 
8580 5 0.570844 0.854429 0.0792171 5 -6 3 
5252 5 0.61636 0.884612 0.115507 5 4 0 
8068 6 0.812622 0.906484 0.0871602 2 0 3 
7790 6 0.856854 0.860637 0.102396 -2 -2 1 
7306 5 0.466402 0.940317 0.0797463 4 -1 0 
6514 6 0.769805 0.905115 0.0851944 4 6 7 
8871 6 0.487183 0.968251 0.103934 4 -5 3 
5512 5 0.467203 0.937151 0.118913 4 1 -1 
7007 6 0.675402 0.975629 0.105403 0 -1 5 
8613 5 0.882496 0.968298 0.0946223 6 8 -2 
6324 5 0.991714 0.962949 0.119443 6 1 -5 
7964 6 0.137712 0.980782 0.0763814 4 -8 2 
7545 6 0.236821 0.97794 0.138694 7 13 -8 
5772 6 0.711293 0.966195 0.108065 2 0 3 
6187 5 0.63264 0.980397 0.116549 -7 -2 7 
8042 6 0.704826 0.0298565 0.156597 -5 8 -1 
5935 6 0.731931 0.0329761 0.106672 -6 8 -1 
5412 5 0.332534 0.078992 0.0824307 9 1 7 
5485 6 0.589273 0.0645034 0.0821559 -4 -4 1 
8022 5 0.655222 0.0479881 0.111706 2 1 -4 
5003 6 0.652967 0.0483391 0.103065 -2 3 4 
7363 6 0.897387 0.0536213 0.113405 3 -1 3 
5227 5 0.00161645 0.119307 0.1271 2 3 -1 
5751 5 0.205236 0.106137 0.0922174 -3 1 -2 
5870 6 0.175968 0.16109 0.154533 -11 -1 -4 
5233 6 0.245414 0.140629 0.130154 -6 2 4 
7788 5 0.0899364 0.154981 0.129343 -1 -7 -4 
6645 6 0.691178 0.136957 0.130199 -1 3 4 
5532 5 0.0187615 0.178813 0.113037 -2 -2 0 
8132 6 0.710707 0.20969 0.132872 -2 0 5 
7785 6 0.485867 0.233174 0.137325 -3 5 2 
7501 6 0.529916 0.185837 0.12851 -3 -1 1 
7300 6 0.860537 0.208944 0.129479 3 3 -2 
5905 5 0.628704 0.234927 0.0787175 -1 3 8 
8962 5 0.72808 0.214608 0.139441 2 3 -6 
7856 5 0.434568 0.273974 0.157501 4 -1 -4 
6807 6 0.693964 0.303296 0.119375 5 -3 1 
5356 5 0.81296 0.27297 0.137594 -9 -2 4 
8515 5 0.965069 0.228867 0.118671 -5 -3 2 
5118 6 0.326056 0.2653 0.122062 0 0 -2 
6016 6 0.528995 0.281386 0.170199 6 -4 -2 
8010 6 0.952983 0.320641 0.122544 1 3 3 
6352 6 0.213989 0.345581 0.13719 -3 0 -11 
6057 5 0.0848757 0.330354 0.132893 1 -4 -1 
8932 5 0.15547 0.398266 0.123269 1 -3 5 
7735 5 0.585125 0.392689 0.11851 -7 1 7 
7845 5 0.719264 0.400779 0.118294 -3 4 12 
6893 5 0.526516 0.459538 0.164098 0 -2 -8 
6850 6 0.982426 0.419568 0.144514 -5 1 -3 
5322 5 0.0704686 0.419722 0.148249 -2 -8 -11 
6817 6 0.567917 0.445463 0.137657 -3 -6 2 
6573 5 0.663958 0.459773 0.0954494 -3 -5 -4 
8673 6 0.214427 0.516821 0.127993 4 3 8 
7705 5 0.459571 0.450597 0.0995613 4 7 -5 
8137 6 0.935991 0.496873 0.117582 3 -5 -2 
6644 6 0.94551 0.454529 0.129452 -2 -5 2 
8336 5 0.0807239 0.477411 0.125256 7 -3 1 
6113 6 0.331602 0.528241 0.131483 0 3 1 
7755 5 0.497257 0.541974 0.101148 7 2 5 
6229 5 0.00959371 0.502823 0.149045 -7 3 -8 
7182 6 0.232375 0.568346 0.154628 1 -6 4 
8739 5 0.49015 0.544999 0.142297 -3 8 4 
6976 6 0.26771 0.560362 0.150913 -1 -1 4 
7108 5 0.577497 0.57714 0.105903 1 -2 1 
5285 6 0.0439447 0.598384 0.107489 0 3 6 
7551 6 0.638589 0.572296 0.153603 0 -1 -1 
7090 6 0.907134 0.595315 0.139996 -7 -1 4 
6374 5 0.401976 0.589057 0.137779 -6 -2 3 
6878 5 0.325544 0.622944 0.12257 0 3 -1 
6763 6 0.823675 0.675236 0.163747 2 1 -4 
7804 5 0.225572 0.710422 0.161758 5 1 -4 
6888 5 0.275259 0.690976 0.121684 -6 -7 4 
5534 6 0.451226 0.72769 0.088824 -6 -14 6 
7607 5 0.85607 0.743238 0.125085 -1 -9 -10 
8801 5 0.12834 0.755191 0.128242 2 3 6 
5789 6 0.729162 0.761968 0.105132 3 -7 6 
8622 6 0.747682 0.739082 0.134058 2 3 -2 
5075 5 0.977738 0.712068 0.128233 7 -1 3 
6595 6 0.180472 0.78639 0.133882 -4 -9 9 
6369 6 0.342374 0.77596 0.109233 4 1 3 
5932 5 0.760599 0.782446 0.122926 2 -1 3 
5347 5 0.811466 0.780881 0.103323 1 -5 -4 
8991 5 0.610111 0.822535 0.128016 -4 -2 1 
5369 5 0.908171 0.791015 0.097821 -14 5 -3 
8884 6 0.959345 0.872726 0.12231 0 4 -4 
8296 5 0.555247 0.91527 0.102087 0 -2 4 
6600 6 0.851046 0.910427 0.118149 -3 0 2 
7335 5 0.888216 0.898826 0.118449 4 -6 0 
6388 6 0.788448 0.928847 0.119566 -6 8 -1 
6938 6 0.336458 0.977144 0.120232 -8 3 2 
7256 6 0.351174 0.948864 0.106337 6 3 1 
5908 5 0.889226 0.917942 0.119411 -1 2 -2 
6882 6 0.408397 0.00115252 0.147187 2 6 2 
8175 5 0.827909 0.0035873 0.152702 3 -4 -1 
5076 5 0.479063 0.0409998 0.146456 1 0 -7 
6275 6 0.539517 0.0546637 0.144805 1 0 -4 
8770 5 0.831457 0.0439352 0.158895 6 -5 -2 
6060 5 0.944219 0.083829 0.158013 0 5 -2 
6117 6 0.385707 0.0742228 0.136257 8 4 4 
6755 6 0.58949 0.0870133 0.159924 2 -4 3 
6558 5 0.0140542 0.104887 0.133688 2 -1 3 
7530 6 0.464658 0.167178 0.155222 -3 12 -1 
8826 6 0.299524 0.181189 0.122215 10 1 5 
7587 6 0.905076 0.135875 0.173904 -6 2 0 
7239 5 0.0455194 0.209661 0.152922 -6 -4 3 
7999 5 0.0198146 0.208814 0.190402 1 2 -4 
7928 5 0.0282346 0.219109 0.141077 -9 3 7 
5131 5 0.849647 0.202943 0.109406 -2 2 1 
6014 6 0.234171 0.262472 0.12079 3 8 -1 
6892 6 0.449334 0.261152 0.162028 -5 5 -1 
6739 6 0.81077 0.268031 0.155483 5 -3 6 
5134 6 0.0441636 0.305871 0.145966 4 -1 6 
8445 6 0.098973 0.267433 0.146936 4 4 -3 
6890 6 0.415632 0.321543 0.161232 -5 -3 -4 
6263 5 0.769468 0.315698 0.149863 3 6 5 
5107 6 0.307117 0.300236 0.150329 0 -4 -6 
8340 6 0.466152 0.322143 0.128294 -1 -3 -1 
6528 5 0.890635 0.35168 0.150929 -2 5 -3 
7219 5 0.413562 0.337389 0.161179 1 5 0 
6584 6 0.581939 0.334549 0.19148 1 1 -1 
5785 6 0.807584 0.443994 0.119673 -2 -10 -6 
7014 5 0.388138 0.406869 0.162664 -5 0 5 
5001 6 0.411035 0.413468 0.136182 -1 -5 -3 
7017 5 0.56562 0.438409 0.186864 -2 1 -1 
6282 5 0.13859 0.459198 0.161294 9 4 6 
8422 5 0.630382 0.423087 0.137999 3 1 6 
8772 6 0.0830488 0.481443 0.111051 -3 -1 5 
6482 6 0.359262 0.438419 0.170416 10 0 -7 
5608 5 0.584639 0.457463 0.136198 -7 -4 5 
6491 6 0.471442 0.4717 0.148239 7 0 -2 
6408 5 0.834142 0.495725 0.118475 -2 -1 2 
5956 6 0.203397 0.527271 0.137428 -2 9 -2 
6168 5 0.389862 0.559774 0.143945 5 2 5 
5787 5 0.504203 0.557601 0.132119 2 4 0 
7269 6 0.679917 0.551414 0.154265 6 -2 -7 
6666 5 0.489212 0.517079 0.149156 3 -5 -5 
7313 5 0.853282 0.599692 0.148737 4 5 0 
6246 5 0.014909 0.622426 0.184318 -2 2 3 
6161 6 0.26643 0.613756 0.141324 3 3 -1 
7470 5 0.719622 0.615758 0.136053 2 -2 3 
8173 5 0.733758 0.591413 0.116121 6 1 4 
8213 5 0.765801 0.623908 0.155588 -4 4 -3 
8470 6 0.996171 0.624324 0.148187 0 10 -5 
7315 6 0.38677 0.62878 0.10602 1 2 8 
6608 5 0.648066 0.663903 0.139034 -2 2 4 
7993 6 0.659757 0.671916 0.205339 5 5 -4 
5715 5 0.832947 0.604366 0.177408 3 5 7 
7575 6 0.934958 0.60393 0.18779 -4 0 0 
6032 6 0.982526 0.594261 0.138984 1 -2 5 
5271 6 0.29309 0.658447 0.188798 7 12 -8 
5763 5 0.82455 0.652843 0.174978 3 1 4 
7070 5 0.551696 0.656633 0.143422 -2 -8 6 
6974 5 0.780267 0.706082 0.129222 -4 -10 -4 
8768 5 0.189452 0.714889 0.159548 9 -4 2 
7882 5 0.82528 0.678936 0.184701 -2 2 3 
6796 6 0.848971 0.732591 0.160903 7 13 -5 
7757 5 0.0573365 0.743389 0.132277 1 -1 1 
6786 5 0.627815 0.754503 0.133021 13 4 -3 
5071 5 0.982423 0.718234 0.151921 -1 -2 -5 
6289 6 0.77072 0.774692 0.127185 -2 -11 -12 
7739 5 0.977694 0.788405 0.150293 1 -1 -4 
5953 5 0.661612 0.793561 0.187617 6 3 6 
8783 6 0.8679 0.798835 0.138348 -2 -3 4 
6206 5 0.962998 0.797651 0.165159 4 -9 -9 
7117 6 0.147092 0.820207 0.12223 -3 4 -4 
5863 6 0.502257 0.845685 0.145952 -4 7 -1 
5808 6 0.708035 0.857016 0.131162 1 6 -3 
5292 5 0.767671 0.853505 0.145154 0 1 0 
5437 5 0.0639509 0.910772 0.165403 5 -3 0 
5585 5 0.23111 0.84133 0.117908 1 5 2 
8942 5 0.490807 0.908898 0.137558 -1 -6 -8 
5109 5 0.500683 0.931968 0.172804 2 7 6 
7602 5 0.619195 0.889712 0.134628 -8 4 8 
8713 5 0.289432 0.930421 0.130555 6 -5 0 
6034 6 0.499722 0.949029 0.120747 -3 -1 2 
8834 6 0.97632 0.921493 0.125432 -3 -3 -2 
8748 5 0.366345 0.949882 0.177759 -3 1 -3 
5911 6 0.684116 0.968376 0.0992335 8 0 -5 
8419 6 0.726963 0.969102 0.176256 5 7 1 
7579 5 0.449581 0.988363 0.182334 2 4 -3 
7447 5 0.514017 0.96274 0.168496 0 7 0 
6450 5 0.581087 0.00809079 0.185081 2 -3 -1 
5823 6 0.577486 0.959503 0.116988 10 3 7 
6317 6 0.324258 0.0289406 0.169341 -3 4 0 
7034 6 0.689672 0.019511 0.158155 -3 2 0 
6274 5 0.791704 0.0138053 0.194079 4 -6 -4 
5658 5 0.283971 0.0599379 0.168219 -1 9 -1 
6505 5 0.337215 0.0229268 0.198652 -3 5 3 
8518 5 0.0254962 0.0624935 0.124363 3 -3 1 
6066 5 0.208724 0.0540293 0.109319 0 -2 4 
6509 5 0.520384 0.0294065 0.15374 -4 0 2 
6813 6 0.7746 0.0508927 0.176764 5 11 -7 
7955 6 0.993283 0.0428335 0.171896 0 -1 -1 
5185 5 0.550831 0.0660669 0.210953 -3 6 1 
7138 5 0.586205 0.0752258 0.159889 -1 4 -8 
8899 5 0.823114 0.119476 0.124158 0 -9 -3 
5181 6 0.94811 0.0992709 0.207573 6 -3 -6 
5766 5 0.216586 0.128422 0.188319 4 0 2 
8557 6 0.671372 0.132141 0.13824 -3 -2 1 
6617 6 0.725894 0.187226 0.126894 0 1 6 
6341 6 0.807455 0.187365 0.166383 7 2 1 
5286 6 0.842656 0.177048 0.169139 -4 3 0 
6037 5 0.958512 0.167798 0.16137 -3 2 -5 
7080 5 0.987533 0.185858 0.198433 -7 5 1 
6084 6 0.181089 0.152713 0.162359 3 -7 1 
6677 6 0.167029 0.204241 0.162573 0 -3 -4 
5450 5 0.168115 0.21782 0.213065 1 5 -2 
5053 6 0.342341 0.208291 0.178811 -1 -2 2 
6270 6 0.818927 0.178999 0.170681 -11 0 5 
7321 6 0.437589 0.254029 0.19102 3 1 4 
5537 6 0.607571 0.270146 0.197808 -5 8 5 
6207 6 0.822891 0.311442 0.141895 1 1 3 
8196 6 0.909509 0.293873 0.188334 9 -4 -3 
7918 6 0.862724 0.282471 0.166343 -3 -8 3 
7708 6 0.303034 0.326779 0.123167 -12 1 -1 
5814 6 0.903993 0.31768 0.188901 0 0 5 
5835 5 0.587991 0.338897 0.192677 0 1 -3 
8331 5 0.845324 0.380448 0.20231 -5 -4 3 
8987 6 0.0124852 0.403905 0.167518 -8 -7 3 
7729 5 0.117637 0.380647 0.183185 2 5 -3 
8273 6 0.415016 0.399539 0.186794 3 2 0 
8793 5 0.354413 0.407231 0.189687 -5 -5 -2 
5930 5 0.840813 0.398342 0.166985 11 4 0 
7118 6 0.959493 0.424339 0.191794 5 0 4 
5323 5 0.803104 0.432093 0.17848 -9 0 2 
8063 6 0.992757 0.487003 0.186676 -2 3 8 
6864 6 0.991671 0.466057 0.173377 -2 0 6 
7453 5 0.483758 0.558851 0.167365 6 7 4 
8898 6 0.516355 0.553877 0.157858 1 0 -7 
7711 5 0.647186 0.516655 0.147485 3 -4 3 
6325 6 0.915816 0.528795 0.186062 -2 8 -8 
8640 5 0.997996 0.558948 0.149834 -1 0 -6 
5410 6 0.213328 0.701315 0.158543 -2 -2 0 
7030 5 0.445985 0.650591 0.153852 -10 -1 -6 
5197 6 0.730387 0.655435 0.210544 1 2 4 
8664 5 0.933974 0.66027 0.184446 -4 -2 4 
8552 5 0.0930077 0.692577 0.186271 0 3 5 
7680 6 0.540028 0.632907 0.123952 -1 -5 0 
8229 6 0.15919 0.700062 0.186915 2 7 2 
6209 6 0.286566 0.713167 0.173915 -7 1 -6 
6276 6 0.247644 0.738079 0.158451 6 -3 2 
5540 6 0.386548 0.722227 0.17645 -4 -5 -16 
7404 6 0.468075 0.771865 0.174756 3 -3 1 
6540 6 0.786235 0.765347 0.193701 3 -2 1 
8113 6 0.862885 0.809363 0.160283 0 4 -1 
5756 5 0.067669 0.742625 0.164469 -1 5 -3 
6665 5 0.923603 0.787725 0.138975 -9 2 0 
5811 5 0.165393 0.82099 0.176268 -6 5 -1 
5143 6 0.0575966 0.827041 0.211883 6 5 -3 
6932 6 0.496909 0.860882 0.169429 4 -6 -1 
6012 5 0.0611497 0.840584 0.153187 5 6 -6 
6249 5 0.0876295 0.868559 0.181602 -6 3 -6 
6372 5 0.566576 0.889181 0.163322 -1 0 7 
8169 6 0.693604 0.896133 0.169632 0 -1 -3 
7031 5 0.78315 0.884665 0.198434 -2 7 -4 
6949 5 0.849172 0.927255 0.152809 2 3 2 
7798 6 0.160505 0.921826 0.17173 -5 5 4 
8255 6 0.731724 0.957318 0.182464 -3 -1 -6 
5014 6 0.110132 0.972932 0.145894 -2 9 1 
8550 5 0.145834 0.976335 0.186709 0 -2 -1 
5997 5 0.291005 0.949948 0.164632 -1 -5 1 
6120 5 0.88271 0.0235838 0.168951 1 3 3 
6768 6 0.0686339 0.998894 0.24118 5 3 4 
8118 5 0.856103 0.0220607 0.182326 -1 5 6 
5439 6 0.0689162 0.0103305 0.210905 0 4 -3 
5346 6 0.519568 0.00132797 0.197313 8 -4 5 
8249 6 0.856213 0.0269919 0.205195 1 -4 11 
5986 5 0.177965 0.0695513 0.188214 -2 0 1 
5277 5 0.284465 0.115041 0.193105 2 0 -4 
7683 6 0.0244628 0.187896 0.184825 -2 8 -6 
5734 5 0.471197 0.14173 0.175006 5 3 5 
8348 5 0.511178 0.156688 0.209263 2 1 3 
8180 6 0.547764 0.185297 0.207651 4 1 0 
5862 6 0.561772 0.203835 0.194782 -1 -4 3 
6071 5 0.684962 0.186214 0.175049 -2 2 -5 
8939 6 0.808375 0.215934 0.187579 -2 4 -4 
8308 5 0.292929 0.227091 0.215329 -4 9 2 
7342 5 0.373017 0.195578 0.202264 -5 0 1 
8936 6 0.873321 0.235973 0.215407 -5 4 -2 
6889 6 0.205801 0.23527 0.183425 -3 -6 -4 
5440 6 0.336784 0.21359 0.252493 0 -1 -7 
5324 5 0.865848 0.244973 0.194086 3 -1 -7 
8067 5 0.137542 0.241178 0.199588 9 -3 4 
7285 5 0.218345 0.265724 0.174948 -10 -3 1 
6658 6 0.205735 0.244503 0.189702 7 9 5 
8447 6 0.885117 0.264768 0.173496 -1 2 -4 
6603 6 0.633684 0.327809 0.16876 2 -4 10 
6259 6 0.867557 0.278609 0.2076 1 6 -5 
8774 6 0.412327 0.298237 0.191131 -6 8 -8 
7672 6 0.568761 0.324513 0.208408 -1 5 -2 
8283 6 0.840616 0.332196 0.244161 -7 10 -2 
6915 6 0.0210178 0.389147 0.209562 -3 -3 -6 
5593 6 0.870745 0.309228 0.163244 2 2 5 
7234 5 0.779689 0.355957 0.190584 -8 -5 1 