ITEM: TIMESTEP
20000000
ITEM: NUMBER OF ATOMS
9000
ITEM: BOX BOUNDS pp pp pp
-75 75
-75 75
-75 75
ITEM: ATOMS id type xs ys zs ix iy iz 
8786 6 0.11629 0.000518557 0.996289 6 -2 0 
7140 5 0.185712 0.0350898 0.988197 -1 0 -2 
7746 5 0.762569 0.0318417 0.980191 0 -3 1 
6097 5 0.853796 0.0376435 0.993156 -7 2 0 
6211 6 0.570168 0.022336 0.977344 -7 4 3 
8367 6 0.123034 0.0820446 0.00212602 0 1 -1 
6891 6 0.935022 0.0952961 0.0191134 0 3 -5 
6985 6 0.397081 0.134297 0.995313 -2 0 4 
7130 6 0.409833 0.114016 0.0356927 2 4 1 
5416 6 0.00516609 0.101378 0.0417189 5 0 -2 
7884 5 0.451259 0.12022 0.993422 0 3 -4 
6771 5 0.420048 0.114889 0.00553285 1 -2 -1 
6583 6 0.639327 0.177538 0.00738569 0 -1 2 
8863 5 0.935782 0.197752 0.0335635 -1 -3 0 
8164 6 0.52551 0.237589 0.955666 -1 3 -1 
7011 5 0.727754 0.214222 0.0300652 -1 -5 1 
8348 5 0.183108 0.215859 0.0225698 5 5 3 
6963 6 0.642996 0.251342 0.00729461 -3 0 0 
6841 6 0.460095 0.250088 0.0661694 -2 -3 10 
6254 5 0.664184 0.246015 0.997516 -2 2 -2 
5387 5 0.853289 0.274332 0.016955 -4 -3 1 
5227 6 0.198682 0.26429 0.0154408 0 -1 -2 
6260 5 0.306023 0.301481 0.983693 1 -1 -2 
6651 6 0.641181 0.313993 0.992178 -6 2 1 
5091 6 0.875442 0.273079 0.994299 -6 1 0 
5461 6 0.294179 0.3286 0.988396 2 3 -3 
5074 5 0.478661 0.303284 0.0386015 2 -2 -4 
5723 5 0.462865 0.335549 0.0120775 4 4 0 
8207 5 0.697471 0.332681 0.0487646 -1 0 0 
7383 6 0.952202 0.356934 0.00934369 -5 3 2 
5420 5 0.312298 0.37033 0.003841 0 1 2 
7456 5 0.528927 0.334568 1.00312 0 3 -1 
6277 6 0.658771 0.351924 0.0346818 -4 2 0 
5519 5 0.80186 0.37644 0.985565 -3 1 -1 
5778 6 0.464345 0.39142 0.0338629 -3 0 -5 
7615 5 0.353104 0.408558 0.0327254 2 0 -1 
6768 6 0.627022 0.408131 0.0185879 -3 5 1 
8811 6 0.846252 0.402566 0.0100682 4 0 0 
6004 6 0.929549 0.469462 0.0305336 4 2 2 
7001 5 0.982949 0.462237 0.00826765 -3 2 0 
5009 6 0.0304008 0.45852 0.997876 -1 -3 -2 
6101 5 0.164554 0.486274 0.991594 -3 -1 -1 
7898 5 0.600089 0.512126 0.979045 0 -3 2 
7221 5 0.407116 0.479593 0.970062 2 0 -1 
6687 6 0.564563 0.527639 0.0342375 2 -3 0 
5914 5 0.635319 0.433865 0.00788222 2 3 -1 
6055 6 0.872597 0.508218 0.0229862 -1 0 0 
6006 5 0.0352286 0.552822 0.993765 2 2 -6 
5645 5 0.417472 0.517038 0.987867 -5 4 4 
8924 6 -0.000159586 0.502564 0.978946 1 0 -2 
5977 5 0.400865 0.6002 1.00133 -2 7 3 
5069 6 0.0764061 0.603225 0.97623 -1 2 -6 
8272 6 0.281652 0.58737 0.980137 -3 1 -4 
7152 6 0.335393 0.55431 0.00616535 2 -2 -3 
8379 5 0.518966 0.567131 0.975089 0 2 -2 
8517 5 0.59564 0.587483 0.038984 1 -1 0 
5183 5 0.315716 0.645428 0.0540999 1 0 -1 
7198 5 0.481534 0.608269 0.0328438 0 2 -3 
7827 5 0.586514 0.60141 0.992626 -3 -4 -1 
7836 5 0.720659 0.624881 0.00630203 0 -1 -1 
7159 5 0.574562 0.63326 0.0403614 3 3 -2 
5791 5 0.682316 0.659296 0.0108515 -1 -1 3 
8939 6 0.696984 0.635526 0.0158763 -1 0 0 
8538 6 0.404444 0.648496 0.00274816 2 1 -2 
6582 6 0.328704 0.732922 0.979316 2 0 3 
6804 6 0.325705 0.667366 0.98304 -1 -1 3 
6044 5 0.873979 0.69404 0.0293853 -5 -6 -1 
8094 5 0.923207 0.705161 0.0551266 1 -2 -1 
8372 6 0.985469 0.693343 0.984079 -4 -1 1 
5854 6 0.0384196 0.73077 0.035903 4 2 2 
8806 5 0.0539798 0.760117 0.00623427 3 2 1 
7002 5 0.0640678 0.718861 0.00385716 1 1 -3 
8352 5 0.0839277 0.763105 0.020892 2 -2 3 
5084 6 0.690652 0.743997 0.971186 4 -3 2 
7267 6 0.31418 0.745735 0.00674777 -5 -1 -5 
6861 5 0.951921 0.763888 0.000821856 -4 -1 -1 
8116 6 0.116521 0.813721 0.968075 -1 -1 0 
5858 6 0.520807 0.818832 0.0557173 2 -1 1 
5979 6 1.00476 0.81499 0.985394 -2 3 1 
5130 6 0.358327 0.843567 0.00609902 -2 4 -4 
7224 6 0.680558 0.833073 1.00812 2 6 0 
8088 5 0.772855 0.881885 0.0215541 -1 7 3 
6611 5 0.22909 0.919733 0.0129096 -1 1 -2 
6441 6 0.354742 0.89316 0.0077836 1 1 2 
7054 5 0.612634 0.888895 0.980659 3 -4 4 
6983 6 0.789834 0.935317 0.00980772 -2 0 1 
5612 5 0.109873 0.945042 0.038593 1 0 5 
7394 5 0.768007 0.92454 0.00956098 0 3 1 
5358 6 0.815434 0.946283 0.00947572 0 1 0 
6176 5 0.632344 0.976845 0.984196 -2 -3 -1 
8141 6 0.396398 0.0622388 0.040158 -1 -4 5 
7733 6 0.661211 0.0722214 0.0504107 4 2 -3 
6190 6 0.791143 0.0468027 0.0271542 1 0 2 
6524 6 0.726324 0.0586013 0.0121683 2 -2 0 
7592 6 0.842438 0.0465336 0.0158314 0 0 -1 
7007 5 0.950629 0.0948578 0.0658076 -3 2 5 
7591 6 0.123751 0.145443 0.0313831 4 2 -1 
6837 5 0.17511 0.153265 0.0699236 4 5 -4 
6738 5 0.652479 0.113154 0.0255369 -3 2 4 
7715 5 0.350576 0.150792 0.0475961 -3 -1 -1 
7753 6 0.383954 0.158522 0.0376831 0 -2 2 
5056 5 0.800722 0.13971 0.0697496 3 2 -4 
5027 5 0.945056 0.147889 0.0183157 -6 2 3 
6419 6 0.65477 0.1702 0.0685825 3 -2 1 
5185 5 0.151076 0.199416 0.0333574 -2 1 1 
8408 6 0.704869 0.187188 0.0716638 -3 0 -1 
6019 5 0.598789 0.237749 0.0343728 2 2 0 
6155 5 0.14304 0.260557 0.0427468 1 1 2 
5648 6 0.0194397 0.31941 0.014419 4 4 2 
6964 5 0.131185 0.297746 0.0492175 3 -3 0 
7502 5 0.260588 0.263904 0.0540606 -1 0 0 
6061 6 0.468549 0.253018 0.00788623 -3 -3 4 
8086 5 0.636187 0.298875 0.0246968 0 4 -3 
6615 6 0.771335 0.337699 0.0708304 6 -2 4 
5441 5 0.26797 0.322736 0.055948 3 4 -1 
6807 6 0.703373 0.319225 0.0333856 -5 2 0 
8537 6 0.764066 0.30957 0.0126828 -1 2 3 
6192 5 0.959042 0.322721 0.0477148 -4 -4 3 
6679 5 0.37428 0.367484 0.0321541 -5 -1 0 
6547 6 0.646928 0.328612 0.0884829 1 3 0 
7442 6 0.943955 0.310425 0.0642989 -3 4 -4 
8222 6 0.0613856 0.39241 0.054928 8 -3 3 
6077 6 0.100591 0.361113 0.0392023 0 0 -1 
7687 5 0.601389 0.400072 0.0180348 0 -2 -4 
6306 6 0.445645 0.416495 0.0188322 -3 0 -3 
8322 5 0.67324 0.416153 0.0209558 0 6 1 
8950 6 0.781199 0.42659 0.0431894 3 -3 4 
5496 6 0.980791 0.395174 0.0087613 -2 1 -1 
5859 6 0.497258 0.467018 0.0323356 1 -1 -2 
7778 5 0.664263 0.457571 0.0469447 2 -2 -1 
5398 6 0.679019 0.420141 0.0276824 5 3 -2 
8990 5 0.286875 0.462891 0.0853969 1 1 5 
7853 5 0.312113 0.483675 0.0245073 -1 -1 -2 
8813 6 0.68675 0.460708 0.0160466 -6 0 0 
6243 6 0.210527 0.513006 0.0227117 -1 5 2 
5761 6 0.541449 0.510143 0.0187361 2 -5 6 
5563 6 0.633119 0.538567 0.993392 2 -3 3 
6551 6 0.487161 0.532288 0.994793 2 -4 -1 
7377 5 0.492124 0.561873 0.0303419 -2 2 4 
8490 6 0.444396 0.60441 0.045631 3 -4 -2 
6247 5 0.627922 0.592616 0.0299067 -1 1 -1 
6800 5 0.666981 0.578186 0.00622823 2 -1 1 
8638 6 0.540606 0.6253 0.0243334 2 -1 3 
8457 6 0.595016 0.656847 0.0325263 -8 4 3 
8270 5 0.840033 0.686889 0.0584733 -4 -2 1 
7845 5 0.857741 0.702358 0.0244812 -3 -4 -4 
8046 6 0.330067 0.693202 0.0043977 -1 2 -1 
8869 5 0.41848 0.691508 0.0369894 -1 1 2 
5070 6 0.760805 0.722782 0.0405666 -1 -4 -3 
7012 6 0.290821 0.727552 0.0469469 -5 -1 -3 
8556 5 0.329937 0.763887 0.058584 -4 4 -3 
7069 6 0.630586 0.790625 0.0289613 2 1 -2 
6942 6 0.269963 0.781332 0.0665255 1 -2 2 
8160 5 0.59938 0.821263 0.0136952 0 -1 2 
7624 6 0.76336 0.802533 0.0541405 3 -4 3 
8276 5 0.76888 0.789054 0.0429717 -4 1 2 
6776 6 0.235714 0.846647 0.996712 -1 1 1 
5525 5 0.326139 0.806549 0.0296677 1 0 5 
5930 5 0.60233 0.810827 0.0379078 0 1 -3 
6987 6 0.384753 0.801093 0.0194102 0 -5 -4 
8507 5 0.306317 0.899999 0.0514817 1 3 1 
7837 5 0.450722 0.843813 0.00303314 1 2 -3 
8684 6 0.465871 0.895347 0.0519492 4 -1 -5 
7957 6 0.609877 0.872369 0.0599699 1 -3 2 
7566 6 0.735799 0.872177 0.987407 -1 4 -5 
7742 6 0.93074 0.854215 0.038919 -1 -4 4 
5681 6 0.756402 0.903007 0.0694325 -1 -5 1 
7517 5 0.857896 0.892452 0.0346457 0 1 0 
8275 6 0.956355 0.90034 0.0181026 4 -3 -2 
7032 6 0.63512 0.947774 0.0223127 1 2 -4 
6007 6 0.418946 0.957622 0.0482502 -3 -5 -2 
8168 5 0.50192 0.0606524 0.0888236 -5 1 -2 
8633 5 0.905395 0.0812494 0.0382935 -3 -1 2 
6380 6 0.165838 0.132427 0.0703175 -6 0 -1 
6610 5 0.569903 0.0726165 0.0619932 2 -1 2 
5181 6 0.988088 0.108911 0.0437146 -2 0 3 
7096 5 0.387713 0.106087 0.0579149 1 0 2 
5803 6 0.513945 0.147231 0.0440825 0 2 -5 
8139 6 0.948818 0.115106 0.0649668 -1 -4 2 
7804 6 0.914849 0.174018 0.027392 -1 -3 1 
5932 6 0.54016 0.216738 0.0429691 -2 3 2 
5516 5 0.628182 0.198571 0.061157 -2 1 -1 
7964 6 0.652796 0.229142 0.0833019 1 -2 2 
7609 6 0.631515 0.240421 0.0434058 -1 -4 3 
8583 6 0.761959 0.297153 0.0604451 4 -3 0 
7350 5 0.0742232 0.303856 0.0546457 0 2 -2 
7572 6 0.512287 0.294528 0.0775491 -1 -2 5 
5520 5 0.508158 0.262305 0.0852656 1 -1 -1 
8928 6 0.565768 0.356502 0.0566679 -2 -2 1 
6105 6 0.612094 0.384054 0.0667703 -4 0 3 
6452 5 0.957696 0.374873 0.0422148 -2 2 0 
6658 5 0.0728232 0.395784 0.0293039 1 2 2 
5285 6 0.871673 0.392408 0.0596028 -2 -2 0 
6395 5 0.275293 0.410412 0.0473585 1 0 -6 
7768 5 0.306665 0.420159 0.0417998 4 2 8 
7731 6 0.453104 0.405531 0.0712409 2 -3 -6 
6001 5 0.759742 0.412308 0.0773611 1 -1 4 
6209 6 0.517897 0.459705 0.0456596 0 -1 3 
7788 6 0.677794 0.44043 0.0944657 -3 -1 3 
7780 6 0.134927 0.447538 0.0313661 -4 0 -2 
7744 5 0.561874 0.462405 0.052901 -1 0 2 
5464 6 0.886923 0.42635 0.039413 -7 0 1 
5307 5 0.101426 0.511109 0.0681505 1 -2 -3 
8781 5 0.199433 0.509645 0.0185977 4 0 0 
6870 5 0.772549 0.480713 0.053846 5 4 -5 
8771 6 0.998722 0.497342 0.0953483 0 -1 -4 
5620 6 0.577006 0.520166 0.0486374 5 -3 1 
6852 6 0.417307 0.548688 0.0785541 3 0 3 
5087 6 0.631554 0.515265 0.0334228 -3 -1 -6 
7189 6 0.560618 0.547092 0.0652719 2 -1 0 
7659 5 0.367243 0.55546 0.0417662 -1 -1 -3 
6253 6 0.49769 0.585879 0.103623 -5 -3 3 
5773 5 0.93311 0.545642 0.0616482 -4 -2 10 
6528 6 0.414087 0.577949 0.0762571 -3 3 -1 
8113 6 0.634646 0.600169 0.0630549 -3 -1 0 
7052 5 0.787371 0.627746 0.0569701 -2 5 -3 
7145 6 0.0133138 0.624517 0.0241494 3 -5 0 
8664 5 0.0412913 0.614313 0.0679517 0 1 2 
8943 5 0.977348 0.611609 0.0608472 -1 -1 -2 
6008 5 0.361274 0.618402 0.0994455 -4 4 4 
7882 5 0.438747 0.648693 0.058361 3 -3 1 
8391 5 0.776786 0.662212 0.101602 0 -2 -1 
7714 5 0.414828 0.662808 0.0655956 1 -2 -2 
7309 5 0.607222 0.644695 0.0919718 3 -5 -1 
7126 5 0.712483 0.688459 0.0838236 1 0 -4 
5814 6 0.868361 0.705925 0.102804 0 -2 2 
7620 6 0.032706 0.670742 0.0571379 -5 -2 -1 
7079 6 0.929984 0.693586 0.0795488 0 -5 1 
5151 6 0.14231 0.688577 0.0689333 -1 1 2 
5652 5 0.151153 0.698541 0.0697998 -3 2 2 
5100 6 0.761133 0.653718 0.0672236 3 1 1 
6898 5 0.804916 0.71633 0.0514253 -5 1 2 
5418 5 0.395715 0.741056 0.0589982 0 0 -1 
5541 6 0.867286 0.734129 0.0711607 0 3 -2 
8592 6 0.301324 0.828134 0.0588226 1 2 2 
7193 5 0.574528 0.807174 0.0579278 4 -8 2 
8619 5 0.0301803 0.824481 0.0501024 -1 1 -2 
5562 6 0.165111 0.806085 0.043694 4 4 0 
8717 6 0.400724 0.885635 0.0408977 -5 7 -4 
5137 5 0.894848 0.878281 0.0734378 1 -2 3 
5708 5 0.00586438 0.868812 0.0479101 2 2 1 
6119 5 0.942024 0.900943 0.0501533 -1 -3 0 
5264 6 0.0460646 0.914878 0.0583136 -6 -2 1 
5569 6 0.473174 0.902322 0.0526744 -2 0 -2 
6968 6 0.751993 0.945569 0.0635327 -2 -1 -1 
6443 6 0.965285 0.965688 0.0324903 1 -2 -4 
6178 5 0.427406 0.965184 0.0449735 -6 0 1 
5975 5 0.498761 0.989175 0.0376801 -3 -3 -1 
8244 5 0.360326 0.0187458 0.118629 2 3 0 
6379 6 0.340287 1.00143 0.0930259 -1 -4 5 
7909 6 0.72145 0.0614574 0.0995046 0 5 1 
5239 6 0.200611 0.0314007 0.105015 5 3 0 
8361 6 0.472594 0.0704066 0.0654456 -4 -1 0 
7988 5 0.570859 0.0957526 0.0670399 1 8 -1 
7275 6 0.657168 0.0822937 0.0462854 -3 -1 -2 
5379 6 0.123611 0.101663 0.0385373 -2 -1 1 
8319 6 0.773651 0.130495 0.118752 -3 4 3 
8384 6 0.886902 0.0871492 0.0662527 -2 5 2 
6799 5 0.965234 0.104615 0.0984578 0 2 1 
5440 6 0.563965 0.19177 0.0606353 0 2 -3 
8692 6 0.232296 0.178849 0.108342 -1 0 2 
8708 5 0.465356 0.186395 0.0448686 -3 -3 3 
6059 6 0.646507 0.233616 0.0933999 1 4 5 
6114 6 0.438446 0.20755 0.101845 -1 6 1 
6758 6 0.174722 0.239369 0.0699478 0 1 -3 
8630 5 0.4257 0.247202 0.0896922 0 0 0 
5777 5 0.459834 0.249884 0.106628 3 4 -1 
7366 5 0.711558 0.197413 0.0667705 4 0 7 
6546 5 0.00982555 0.253862 0.120345 -4 0 3 
6561 5 0.0905346 0.28054 0.0761099 0 -3 1 
5513 6 0.0320147 0.300617 0.0884983 5 1 -2 
8727 6 0.491283 0.31174 0.0679783 -5 -3 4 
8739 6 0.989266 0.317398 0.0986992 -1 1 10 
8287 6 0.813063 0.301422 0.0688768 1 -1 3 
7860 5 0.347658 0.350637 0.0956019 -2 0 0 
7507 6 0.436614 0.362951 0.076588 -2 -5 -3 
8864 6 0.76495 0.35537 0.0598556 2 1 2 
7313 5 0.179107 0.379029 0.101061 -4 2 -1 
8773 5 0.200183 0.372375 0.0919971 1 1 5 
5424 5 0.569734 0.410611 0.0876538 1 0 -1 
6927 6 0.590282 0.412786 0.0734312 -1 -1 0 
8303 5 0.339611 0.440462 0.078328 3 4 -5 
5900 6 0.407975 0.420143 0.0936741 -2 -5 -2 
8041 6 0.285833 0.43755 0.121643 1 -1 -4 
6924 6 0.657459 0.452989 0.0531219 -3 -5 1 
8817 6 0.827007 0.456231 0.0602258 0 0 -2 
7232 6 0.232261 0.433834 0.0512087 -2 -5 -1 
6038 5 0.461852 0.458208 0.0494778 -3 4 -3 
5888 5 0.879054 0.4539 0.111153 4 -1 3 
6795 6 0.285511 0.503054 0.0948684 2 5 -2 
5570 5 0.391167 0.46419 0.0442499 -1 2 1 
5066 6 0.443338 0.48239 0.0854541 2 -2 0 
7528 6 0.116834 0.531824 0.0459056 3 2 -2 
8078 5 0.797806 0.579104 0.0829082 -5 0 4 
5392 6 0.936077 0.581887 0.055285 -3 0 -2 
7631 6 0.222678 0.656481 0.0799419 -4 5 -1 
8611 6 0.352321 0.637044 0.0615246 0 -6 3 
5941 5 0.781927 0.639538 0.0656176 2 3 3 
5442 6 0.786857 0.614681 0.100117 1 -4 1 
6341 6 0.169844 0.649423 0.0556906 -2 0 1 
6903 5 0.181523 0.662757 0.0390078 5 1 4 
7685 6 0.567203 0.683894 0.0552172 -4 0 3 
8998 5 0.648148 0.706899 0.0641494 0 1 2 
7094 6 0.701179 0.674048 0.109834 4 0 -3 
8510 5 0.969496 0.686372 0.0790146 -2 -2 0 
7080 6 0.93956 0.690053 0.0864022 -4 -1 2 
6095 5 0.702934 0.751367 0.100773 -3 2 3 
5217 6 0.735099 0.763119 0.0901748 0 3 1 
8084 5 0.768095 0.702807 0.118007 3 0 2 
7890 5 0.773835 0.738641 0.0498822 -5 -7 -1 
8081 6 0.144232 0.74215 0.0730636 0 -2 2 
8194 6 0.338467 0.76089 0.0611315 -5 -3 0 
6103 6 0.620617 0.750953 0.0956562 1 -2 4 
6657 5 0.804167 0.741868 0.0818904 1 -4 2 
5080 6 0.1462 0.811272 0.0744808 -5 1 1 
8082 6 0.206673 0.804215 0.0637595 -1 0 -1 
7560 5 0.485466 0.803477 0.0847051 -4 1 1 
6397 6 0.520547 0.780262 0.0680456 3 -6 2 
5167 5 0.538648 0.801671 0.0835717 -3 3 -1 
6590 5 0.571141 0.81167 0.0660871 -6 0 2 
8253 6 0.544682 0.830497 0.101007 4 -2 -3 
8716 6 0.543244 0.843057 0.0770062 -2 1 2 
8311 6 0.913125 0.796315 0.0711173 3 -3 5 
5583 5 0.910971 0.787334 0.100196 -2 -3 -1 
5936 5 0.366823 0.847645 0.111547 0 1 5 
8001 5 0.323509 0.875441 0.102417 0 -2 -3 
8401 6 0.0240438 0.893728 0.100061 5 -5 -1 
7947 5 0.524896 0.914607 0.0773839 -1 3 -1 
7427 5 0.767883 0.962165 0.0809871 0 0 2 
5005 5 0.0107948 0.936079 0.0624762 -1 0 -2 
6919 5 0.540476 0.929944 0.0618233 1 -2 0 
5811 5 0.879059 0.945555 0.07891 0 4 -2 
5502 6 0.188983 0.0112549 0.0880847 4 2 -6 
8410 6 0.711198 -0.00237103 0.0893536 3 8 -3 
7202 6 0.241198 0.00651661 0.101436 -5 0 1 
7233 6 0.78125 0.987596 0.125627 0 -2 -2 
5530 6 0.304279 0.0602385 0.1337 -5 7 4 
7948 6 0.125963 0.056172 0.0729569 -4 5 2 
6609 6 0.0990611 0.110914 0.1461 -3 7 0 
8234 6 0.100046 0.0414324 0.10392 3 0 0 
7209 5 0.0874426 0.114357 0.120377 5 3 3 
5249 5 0.843002 0.0819103 0.08813 2 2 3 
6325 5 0.710635 0.162969 0.101809 0 3 0 
8353 5 0.433766 0.188817 0.109543 -2 2 0 
5713 6 0.587484 0.166061 0.0924325 4 -1 -2 
6860 6 0.684818 0.224133 0.0736345 2 -2 -1 
7448 5 0.0207998 0.18818 0.115907 3 -2 -1 
7219 5 0.182739 0.215018 0.126378 -5 -2 -2 
5657 6 0.409771 0.21827 0.131759 1 2 -1 
6593 6 0.673744 0.218995 0.108794 -6 -1 0 
7958 5 0.703337 0.22181 0.106386 -3 -2 1 
7362 5 0.856191 0.219682 0.0831579 0 -3 1 
8077 5 0.526239 0.239618 0.112491 1 1 5 
6836 5 0.969439 0.216813 0.132863 -1 -1 6 
5611 6 0.106696 0.280706 0.0998525 4 3 2 
5172 5 0.124446 0.30455 0.0913348 1 1 4 
6134 5 0.238841 0.226425 0.127317 2 -5 2 
5018 5 0.731598 0.259428 0.108465 -1 -1 -1 
6915 5 0.179293 0.29879 0.109925 -1 -5 5 
7886 6 0.832367 0.288223 0.0571377 0 2 3 
8744 5 0.871344 0.294735 0.116301 -3 6 -1 
8452 6 0.46682 0.34821 0.126686 1 1 1 
5197 5 0.77253 0.325923 0.106047 2 2 2 
6714 6 0.804548 0.32775 0.100912 0 -1 -3 
6817 5 0.932498 0.316076 0.164109 0 0 -1 
6876 6 0.0626393 0.357912 0.130145 -1 -1 3 
5546 5 0.251977 0.377883 0.0904117 0 -1 3 
7077 5 0.564482 0.362961 0.0916792 0 -5 -1 
5895 5 0.933781 0.377229 0.103476 1 -4 1 
7446 6 0.0693781 0.373223 0.10699 3 5 -1 
6935 6 0.246695 0.354971 0.0843745 0 -1 0 
8038 5 0.280966 0.376195 0.098826 4 0 -2 
6990 6 0.2377 0.388561 0.116614 1 -1 -1 
6907 5 0.355019 0.35444 0.143459 1 -4 0 
8004 6 0.652082 0.427262 0.110741 6 1 3 
5866 5 -0.00170997 0.403857 0.0977108 2 2 -3 
5497 5 0.648816 0.454351 0.0967073 -5 3 9 
5578 5 0.59722 0.408048 0.14223 1 -3 0 
8283 5 0.766847 0.434503 0.0922977 -2 -1 -4 
6057 5 0.0213066 0.473587 0.0832641 -1 4 6 
6162 6 0.569029 0.468839 0.128176 -2 3 -1 
8944 5 0.0874848 0.422187 0.12994 1 4 -2 
8800 5 0.282917 0.491492 0.0728474 -4 0 -1 
5409 6 0.92795 0.491861 0.0920964 -2 5 -2 
6681 6 0.0975896 0.530238 0.080083 2 -4 -2 
8264 6 0.318542 0.50693 0.101456 5 3 0 
7078 5 0.603684 0.575509 0.119161 -2 3 -4 
6087 5 0.532703 0.576134 0.0946228 -2 -3 2 
5641 6 0.501094 0.543861 0.0754444 1 -1 -2 
8176 6 0.749094 0.563688 0.121896 0 -2 -1 
7993 5 0.880165 0.596795 0.105913 -1 1 1 
5961 5 0.0158542 0.559962 0.103074 4 -1 1 
5155 6 0.482344 0.57643 0.0697693 -3 -3 0 
7823 6 0.526741 0.612669 0.0811962 -4 -6 0 
6834 6 0.16373 0.657173 0.120467 2 2 4 
7347 5 0.580165 0.598201 0.112143 3 -1 1 
7928 5 0.604764 0.635986 0.114431 2 -1 2 
8467 6 0.738011 0.602967 0.134311 -1 -1 1 
6405 6 0.932014 0.611865 0.0920515 2 1 2 
8432 6 0.0534529 0.65735 0.0744279 -3 1 -1 
5166 6 0.790104 0.664076 0.109612 4 -1 1 
6854 6 0.107242 0.653993 0.111409 -1 -1 3 
5945 5 0.207325 0.675187 0.118958 -4 -1 -3 
5699 5 0.869474 0.665027 0.125781 -6 2 0 
5003 5 0.177591 0.733044 0.0813713 -2 3 -1 
5370 6 0.277232 0.733307 0.0945455 -3 -3 -4 
8829 5 0.427848 0.723919 0.0732033 -1 -1 3 
7574 5 0.729683 0.736294 0.116635 0 -1 2 
7878 6 0.926379 0.720498 0.106592 -4 -2 3 
6384 6 0.534395 0.74135 0.0859004 -2 0 1 
8875 5 0.69072 0.723506 0.0947046 1 -1 -4 
7158 5 0.595954 0.79485 0.0914614 3 -2 -1 
5799 6 0.962736 0.799605 0.0813909 0 -3 3 
7975 6 0.979141 0.85609 0.115229 3 2 2 
6606 6 0.201369 0.805173 0.0876431 -1 3 0 
6382 5 0.256135 0.848348 0.153182 2 0 3 
6282 6 0.911344 0.85972 0.115404 -5 -3 0 
8296 5 0.126295 0.872025 0.100439 1 -4 2 
8354 6 0.736421 0.884408 0.080663 0 1 2 
8582 6 0.0489148 0.856275 0.101586 0 -2 -1 
8876 5 0.815378 0.856988 0.0959531 -3 1 -5 
6327 5 0.878143 0.911159 0.106578 -6 4 -1 
5487 5 0.230958 0.947952 0.080844 -2 0 -5 
5573 5 0.791731 0.927596 0.0576992 1 4 -4 
5742 5 0.842918 0.943257 0.122037 -1 -1 0 
8349 5 0.133166 0.0450792 0.0957931 -3 2 6 
5834 6 0.382292 0.00977828 0.136687 2 1 0 
6527 6 0.852096 0.956758 0.113619 1 -2 -2 
8654 6 0.39053 0.0178696 0.134622 0 -4 0 
7577 5 0.803932 0.00559126 0.122903 -7 1 -3 
7360 5 0.653089 0.0324217 0.0938899 5 -2 4 
5026 6 0.0382853 0.0425587 0.15503 4 -1 0 
7100 5 0.459923 0.0924006 0.164377 2 0 -3 
8569 5 0.671302 0.064138 0.12838 3 -6 -1 
5241 6 0.780914 0.0575592 0.140535 3 1 0 
5843 5 0.143275 0.098807 0.113284 1 -1 -3 
5115 6 0.228916 0.110687 0.103946 -1 2 -1 
6329 5 0.536214 0.0956046 0.0981743 1 -1 -1 
6525 6 0.177195 0.106783 0.139035 2 1 2 
5085 6 0.364913 0.136262 0.1011 4 1 4 
7199 6 0.412612 0.13786 0.0989443 1 4 -4 
8637 5 0.551001 0.133566 0.122198 -1 2 6 
5901 5 0.797472 0.151427 0.119033 -5 2 1 
7268 6 0.0306419 0.169542 0.15687 0 1 -2 
8789 6 0.481907 0.145837 0.132476 2 -3 1 
8656 5 0.868989 0.131898 0.082664 2 0 -1 
5108 6 0.678256 0.161636 0.136599 3 2 -3 
8273 6 0.728262 0.129183 0.107669 0 -4 0 
5689 6 0.289701 0.205048 0.156312 0 -1 0 
7677 5 0.633125 0.20166 0.102084 -4 -2 -2 
6318 5 0.690587 0.212366 0.0924202 3 -1 3 
7840 6 0.631918 0.229157 0.136049 0 -1 -2 
6635 5 0.922406 0.221153 0.081302 -1 -2 -6 
7301 5 0.630344 0.253322 0.128552 1 -4 1 
7871 6 0.704542 0.25418 0.149318 3 -2 -2 
6208 5 0.937778 0.265056 0.129597 2 1 0 
7748 6 0.96849 0.28447 0.133022 3 -3 -2 
5912 5 0.218667 0.307273 0.126674 -4 -5 -1 
5844 5 0.347538 0.321935 0.112619 0 -2 -4 
8518 6 0.438195 0.320856 0.146858 -4 4 -1 
8071 6 0.0585877 0.341927 0.0724681 5 1 1 
5758 6 0.71402 0.338276 0.110924 1 2 -2 
5160 5 0.541332 0.390637 0.104313 5 1 -3 
8689 5 0.785823 0.377658 0.147844 -1 2 -1 
5320 5 0.949349 0.361318 0.0885189 4 -1 2 
7905 6 0.601891 0.417143 0.120015 -3 4 -6 
8191 5 0.375159 0.392869 0.117739 -6 5 0 
7789 5 0.851185 0.424115 0.139789 3 5 -2 
7157 6 1.00295 0.430583 0.112927 -6 0 -5 
5139 6 0.198245 0.477825 0.127413 2 1 3 
5500 5 0.532695 0.436224 0.1233 2 0 1 
7997 6 0.332444 0.437276 0.14674 -1 2 -4 
7510 5 0.485617 0.492523 0.0874221 -8 -6 -8 
7588 5 0.748524 0.45001 0.124839 -2 0 1 
6943 6 0.231707 0.480935 0.141418 -2 2 2 
8596 5 0.185413 0.544962 0.132914 3 -1 -5 
8857 6 0.685964 0.548837 0.137683 5 -2 0 
5732 6 0.232244 0.560158 0.162808 -2 -1 0 
7336 6 0.944174 0.545016 0.194759 0 -6 0 
6669 6 0.691391 0.521562 0.130286 0 -3 4 
6218 6 0.329367 0.620415 0.126078 -3 3 0 
6359 6 0.727476 0.613987 0.104637 4 1 0 
7810 6 0.902164 0.602894 0.110757 2 1 3 
7721 6 0.49279 0.636285 0.116197 0 -3 2 
7072 6 0.779268 0.643067 0.111302 6 1 -1 
6261 5 0.378767 0.65697 0.103759 3 5 -5 
7317 5 0.130499 0.727533 0.13174 1 4 -1 
7467 5 0.567677 0.719219 0.125225 -2 4 -7 
6975 6 0.650424 0.682733 0.138398 -2 5 1 
7399 5 1.00327 0.713204 0.123562 2 -2 0 
7865 5 0.443097 0.70333 0.121144 -1 -4 -1 
8615 5 0.58295 0.701509 0.133088 1 -1 1 
6205 6 0.0299711 0.768773 0.0887907 6 0 -3 
8601 6 0.123206 0.724974 0.11426 -5 -2 2 
8259 5 0.343167 0.750559 0.137157 -2 -3 1 
6957 6 0.382143 0.766201 0.128748 1 3 7 
6330 6 0.130234 0.821436 0.153628 -2 -1 3 
7323 6 0.526396 0.832974 0.0809269 3 -3 2 
8670 6 0.650209 0.789563 0.105667 -1 -6 3 
5666 6 0.088877 0.825851 0.127663 0 5 1 
6453 5 0.0191283 0.85337 0.113408 5 -3 3 
5976 5 0.0846499 0.884332 0.0950458 1 2 1 
6488 6 0.623951 0.850007 0.101543 1 0 0 
5729 5 0.441844 0.895726 0.0690527 -1 3 4 
7725 5 0.159889 0.954351 0.135398 -3 0 7 
7311 5 0.316272 0.955688 0.149213 5 -4 2 
8355 6 0.876636 0.961061 0.120473 -1 -6 -2 
5593 5 0.0675097 0.993904 0.108546 -4 1 2 
7035 6 0.160156 0.978471 0.128107 3 0 3 
7223 6 0.634754 0.987145 0.0790903 -6 1 3 
6234 5 0.700413 0.980318 0.132304 1 4 -2 
8889 5 0.885042 0.994991 0.143123 -1 -1 2 
6326 5 0.376706 0.983521 0.139365 -1 -1 -1 
5273 6 0.344714 0.0296039 0.155167 -2 4 8 
8867 6 0.707606 0.0537398 0.112615 3 3 -2 
7411 6 0.713947 0.051956 0.157672 0 -5 4 
8464 5 0.84417 0.0858876 0.153681 1 4 -1 
7485 6 0.345619 0.0957176 0.168887 0 2 -4 
8503 5 0.730573 0.073617 0.148204 -1 -1 0 
8552 6 0.569435 0.1133 0.155971 -3 -3 0 
5931 5 0.304813 0.154211 0.16092 1 1 -3 
7433 6 0.651443 0.160399 0.159111 -2 -3 8 
6577 6 0.917605 0.128757 0.155431 0 2 -3 
6381 6 0.979328 0.174326 0.144674 1 3 -7 
7944 6 0.257115 0.165141 0.141383 -2 -2 1 
7661 5 0.0910704 0.185559 0.142176 3 5 -5 
7952 6 0.0400224 0.202697 0.150384 3 -1 4 
6323 6 0.845428 0.23045 0.167248 -1 -4 4 
7972 6 0.968593 0.268177 0.114133 -2 3 -4 
7364 6 0.564138 0.295939 0.151429 2 1 2 
5298 5 0.472601 0.342919 0.175438 -1 4 -6 
5983 6 0.705347 0.31793 0.148566 -5 -1 -3 
7294 6 0.0817904 0.340387 0.191913 2 -3 -1 
5032 6 0.383591 0.354218 0.134096 -6 -2 0 
8764 5 0.426598 0.360762 0.135692 -3 2 -4 
5177 6 0.538138 0.382724 0.163802 -1 -2 2 
6374 5 0.877839 0.344298 0.146781 5 -4 2 
8804 5 0.286941 0.383632 0.135363 4 5 2 
8438 6 0.104119 0.405813 0.164427 1 3 6 
8097 6 0.208143 0.422736 0.129997 5 0 -2 
7974 5 0.569292 0.401037 0.128763 1 -5 -6 
8122 6 0.788321 0.389985 0.163424 7 0 -5 
5812 5 0.800524 0.401985 0.15869 3 -1 3 
7484 5 0.848476 0.423582 0.160102 2 2 4 
5800 6 0.976264 0.445525 0.151448 1 -1 -1 
7637 6 0.508894 0.456347 0.15014 -2 -7 1 
6704 6 0.258755 0.448338 0.180298 -1 3 -2 
5123 5 0.782789 0.444373 0.169659 3 -6 -4 
8679 5 0.429652 0.471713 0.16246 2 -2 3 
8323 5 0.496419 0.484284 0.120987 -2 -9 0 
6156 6 0.559776 0.501975 0.117043 1 6 -3 
8043 5 0.755282 0.511812 0.174524 -1 -1 2 
8794 6 0.841674 0.445391 0.184635 -2 -1 -1 
6429 5 0.139729 0.504831 0.15828 -4 -2 2 
8961 5 0.205668 0.539066 0.143403 1 1 -1 
8760 6 0.411471 0.578516 0.131077 -10 0 3 
6809 5 0.477568 0.631343 0.14678 -3 2 -1 
6511 5 0.492954 0.636054 0.16422 -1 3 -5 
5662 6 0.367268 0.66743 0.160457 -1 -2 1 
6291 6 0.789716 0.660814 0.160044 -1 -2 -9 
8111 5 0.9146 0.665404 0.170222 -5 0 1 
7389 6 0.976621 0.646971 0.146692 0 -2 -3 
6881 5 0.137902 0.678819 0.125429 5 1 -4 
8948 5 0.190572 0.66615 0.150073 0 1 -3 
5449 5 0.67714 0.676461 0.147195 0 -3 -5 
5143 5 0.115985 0.726039 0.162915 -1 1 -1 
6149 5 0.204966 0.723392 0.138678 0 -6 4 
5148 5 0.528266 0.715011 0.145709 4 6 2 
7946 5 0.801961 0.723151 0.158091 4 -3 -3 
7806 5 0.0144983 0.731636 0.165827 -5 0 -2 
8453 5 0.0644185 0.73724 0.123394 -2 3 -4 
5538 6 0.778235 0.739441 0.153495 3 -2 5 
5545 5 0.79143 0.723015 0.168246 2 -1 -1 
8212 6 0.263305 0.763889 0.129706 -1 -6 -1 
8639 6 0.307913 0.808542 0.164303 0 2 -5 
8729 5 0.417815 0.787077 0.137563 -2 -1 1 
6273 5 0.0353944 0.833668 0.135679 0 0 1 
5789 6 0.346332 0.813738 0.106353 1 0 2 
5763 6 0.0931502 0.833196 0.12738 -4 2 2 
7612 6 0.421565 0.793973 0.156183 -4 -1 -3 
6018 5 0.699224 0.834726 0.158852 -1 -2 6 
7705 5 0.218295 0.823875 0.150073 -1 -1 0 
6047 6 0.812781 0.88537 0.123512 -1 0 1 
5491 6 0.806405 0.877015 0.181253 3 -1 1 
5883 6 0.821417 0.866507 0.0999207 4 1 -2 
5309 6 0.0282379 0.872967 0.11005 -1 -3 1 
7038 6 0.0280283 0.943969 0.151793 2 2 1 
8655 6 0.952987 0.888216 0.170882 -2 3 4 
8563 6 0.14088 0.977789 0.178011 0 0 2 
8288 6 0.938934 0.929895 0.188658 -1 -4 6 
6901 6 0.376886 0.949907 0.130162 9 0 3 
8366 6 0.779965 0.975464 0.17248 6 -4 0 
6238 6 0.880781 0.954772 0.14646 1 2 2 
7678 6 0.0855361 -0.000128114 0.139189 0 -1 1 
7933 5 0.933597 0.986781 0.151206 -4 -2 2 
8197 6 0.37091 0.997657 0.151088 1 1 0 
6226 6 0.429332 0.00714149 0.154085 -2 1 0 
6885 5 0.103143 0.0321199 0.170141 0 4 -5 
7671 6 0.737196 0.0596988 0.110604 0 0 0 
8386 5 0.829158 0.0737169 0.169071 2 1 3 
7585 6 0.86701 0.0450833 0.153718 2 -1 2 
6789 5 0.281623 0.08544 0.132704 2 -1 3 
6334 5 0.810347 0.084132 0.212367 2 -6 3 
5956 5 0.666924 0.116299 0.166921 -1 6 0 
6731 5 0.82337 0.142809 0.150504 0 0 3 
7741 6 0.0999192 0.175678 0.166776 1 -1 0 
5284 6 0.149653 0.143868 0.18183 0 1 1 
6984 5 0.655589 0.132312 0.134801 0 1 0 
6388 5 0.0716226 0.215175 0.136352 -2 -1 -6 
7457 5 0.580176 0.171809 0.214209 0 5 -2 
6179 5 0.393175 0.149026 0.159503 -1 2 -2 
8926 5 0.456783 0.199558 0.175171 4 -1 2 
8169 5 0.130632 0.222353 0.141482 -2 -4 5 
6102 5 0.138138 0.215132 0.132837 0 3 2 
5138 5 0.862208 0.218487 0.167853 5 1 1 
7281 6 0.92934 0.177342 0.194082 -7 -2 -2 
8825 6 0.614654 0.225473 0.13708 1 0 -3 
8034 6 0.678807 0.26926 0.14798 -3 4 2 
6469 6 0.370455 0.224772 0.189526 -5 -3 -6 
6308 5 0.398307 0.254897 0.170768 2 5 0 
6778 5 0.819907 0.245923 0.16034 -5 1 2 
7003 6 0.443237 0.261476 0.148247 2 4 1 
5661 5 0.730082 0.252456 0.170212 -2 -4 -2 
7917 5 0.95105 0.296629 0.152471 1 5 -1 
5365 6 0.0599377 0.31215 0.171361 0 0 -4 
6122 5 0.347984 0.341315 0.174039 4 1 2 
8718 6 0.310358 0.320317 0.154956 -5 -2 1 
8341 5 0.656774 0.322418 0.171691 4 -4 3 
6332 6 0.0483325 0.321362 0.16135 0 -2 -3 
5472 5 0.726982 0.301737 0.118516 -5 0 0 
5245 5 0.820293 0.329372 0.139806 -4 5 1 
5404 5 0.899813 0.325387 0.163428 4 2 4 
5013 6 0.804545 0.405621 0.193788 -2 4 1 
7764 5 0.797876 0.354586 0.157092 0 2 3 
6030 5 0.607156 0.352612 0.159692 1 3 1 
7596 6 0.407675 0.492159 0.191858 -3 1 -2 
7438 6 0.666823 0.478477 0.172784 4 3 2 
6421 6 0.0272534 0.511434 0.131729 -2 -2 2 
8933 5 0.107996 0.545901 0.136157 2 0 -2 
5001 5 0.400181 0.504205 0.183591 -1 1 0 
6911 6 -0.000429051 0.519252 0.175089 1 0 4 
6011 6 0.0530821 0.532797 0.207628 6 -8 -2 
6028 5 0.0982571 0.539086 0.189708 0 0 0 
6678 6 0.686605 0.578651 0.181468 1 -2 -1 
5303 5 0.714897 0.55419 0.152192 6 -1 1 
5206 6 0.0235926 0.571249 0.190688 -3 4 2 
6722 6 0.309668 0.554446 0.182878 -2 -2 -1 
8187 5 0.173248 0.582828 0.16971 -1 5 0 
7147 6 0.593429 0.642388 0.202058 -4 -2 0 
5060 5 0.205669 0.633452 0.206446 -1 0 1 
6688 6 0.431149 0.671992 0.152351 -2 -2 1 
8174 5 0.237886 0.667452 0.170203 -4 -1 5 
7106 6 0.677183 0.705799 0.178212 -1 -4 4 
6761 5 0.182293 0.713931 0.208371 1 4 1 
7324 5 0.359652 0.700318 0.196445 1 -1 8 
8705 6 0.245218 0.707571 0.147425 -3 1 1 
8560 5 0.126919 0.788965 0.160259 5 1 2 
7571 6 0.392721 0.786613 0.143978 0 0 0 
5654 5 0.0141177 0.803918 0.197709 5 -3 0 
8492 6 0.00937051 0.808062 0.173462 2 -1 -1 
6437 5 0.100837 0.809762 0.14115 2 -1 2 
5411 6 0.872986 0.827794 0.173425 1 4 4 
8658 6 0.212936 0.883888 0.166835 6 0 1 
8662 5 0.589007 0.845657 0.196011 -1 -2 2 
6455 5 0.141771 0.878136 0.158687 -3 -2 1 
6082 5 0.249394 0.88524 0.184224 4 2 1 
7701 5 0.533635 0.930279 0.137112 -1 -5 2 
5631 5 0.713844 0.85143 0.173594 0 -1 0 
6698 6 0.415649 0.89199 0.169643 2 0 2 
7266 5 0.0256515 0.964963 0.167451 7 -1 -5 
7217 5 0.151111 0.961014 0.165469 3 0 -3 
5274 5 0.258185 0.936442 0.198192 -1 0 4 
8617 5 0.339905 0.956576 0.145958 4 -2 0 
6531 5 0.0158047 0.975505 0.179118 3 1 0 
6376 5 0.309771 0.986443 0.168828 -3 -3 3 
7051 5 0.829539 1.00026 0.198411 0 -6 -1 
7237 5 0.102503 0.040095 0.17358 2 0 2 
8232 6 0.566281 0.062075 0.150921 -5 2 -2 
7169 6 0.817524 0.0636296 0.222343 1 0 -6 
8880 5 0.00639207 0.105864 0.205163 1 -1 5 
8783 6 0.217831 0.0708653 0.256505 2 0 -1 
6850 6 0.730799 0.079406 0.186645 2 -2 4 
7672 6 0.954975 0.0762802 0.142433 0 -1 -1 
8345 6 0.979039 0.0804742 0.214558 4 2 0 
6667 5 0.377651 0.107946 0.200915 1 -1 -3 
6974 6 0.616839 0.0897398 0.196923 0 1 3 
8519 5 0.0405674 0.176035 0.215829 -1 2 -4 
8877 6 0.061201 0.186386 0.204199 -2 5 -3 
8211 6 0.00202297 0.208418 0.210582 1 2 -4 
5719 6 0.0619899 0.239205 0.194197 4 1 3 
5747 6 0.13186 0.220309 0.212726 -1 2 -2 
7429 6 0.250158 0.25619 0.186415 -5 -2 -2 
7122 5 0.580523 0.291821 0.246323 -5 -4 0 
5413 5 0.160673 0.273357 0.186427 -3 4 -2 
8190 6 0.0179769 0.254379 0.168039 -2 -2 -1 
5511 5 0.220747 0.319876 0.179713 1 -4 4 
6822 5 0.0658871 0.304212 0.212258 3 0 5 
8133 6 0.131881 0.306603 0.184356 4 6 1 
8204 5 0.20522 0.325087 0.247207 -1 1 4 